 vasp.5.4.4.18Apr17-6-g9f103f2a35 (build Jan 14 2022 15:04:31) complex          
  
 executed on             LinuxIFC date 2023.01.27  22:54:36
 running on   48 total cores
 distrk:  each k-point on   48 cores,    1 groups
 distr:  one band on NCORES_PER_BAND=  12 cores,    4 groups


--------------------------------------------------------------------------------------------------------


 INCAR:
 POTCAR:    PAW_PBE C 08Apr2002                   
 POTCAR:    PAW_PBE N 08Apr2002                   
 POTCAR:    PAW_PBE C 08Apr2002                   
 POTCAR:    PAW_PBE Cr_pv 02Aug2007               
 POTCAR:    PAW_PBE C 08Apr2002                   
 POTCAR:    PAW_PBE O 08Apr2002                   
 POTCAR:    PAW_PBE C 08Apr2002                   
   SHA256 =  253f7b50bb8d59471dbedb8285d89021f4a42ed1a2c5d38a03a736e69125dd95 C/
   COPYR  = (c) Copyright 08Apr2002 Georg Kresse                                
   COPYR  = This file is part of the software VASP. Any use, copying, and all ot
   COPYR  = If you do not have a valid VASP license, you may not use, copy or di
   VRHFIN =C: s2p2                                                              
   LEXCH  = PE                                                                  
   EATOM  =   147.1560 eV,   10.8157 Ry                                         
                                                                                
   TITEL  = PAW_PBE C 08Apr2002                                                 
   LULTRA =        F    use ultrasoft PP ?                                      
   IUNSCR =        1    unscreen: 0-lin 1-nonlin 2-no                           
   RPACOR =    1.200    partial core radius                                     
   POMASS =   12.011; ZVAL   =    4.000    mass and valenz                      
   RCORE  =    1.500    outmost cutoff radius                                   
   RWIGS  =    1.630; RWIGS  =    0.863    wigner-seitz radius (au A)           
   ENMAX  =  400.000; ENMIN  =  300.000 eV                                      
   ICORE  =        2    local potential                                         
   LCOR   =        T    correct aug charges                                     
   LPAW   =        T    paw PP                                                  
   EAUG   =  644.873                                                            
   DEXC   =    0.000                                                            
   RMAX   =    1.529    core radius for proj-oper                               
   RAUG   =    1.300    factor for augmentation sphere                          
   RDEP   =    1.501    radius for radial grids                                 
   RDEPT  =    1.300    core radius for aug-charge                              
                                                                                
   Atomic configuration                                                         
    4 entries                                                                   
     n  l   j            E        occ.                                          
     1  0  0.50      -273.3789   2.0000                                         
     2  0  0.50       -13.7508   2.0000                                         
     2  1  0.50        -5.2854   2.0000                                         
     3  2  1.50        -5.4423   0.0000                                         
   Description                                                                  
     l       E           TYP  RCUT    TYP  RCUT                                 
     0    -13.7508458     23  1.200                                             
     0     -8.2022199     23  1.200                                             
     1     -5.2854383     23  1.500                                             
     1     34.0145650     23  1.500                                             
     2     -5.4423304      7  1.500                                             
  local pseudopotential read in
  partial core-charges read in
  partial kinetic energy density read in
  atomic valenz-charges read in
  non local Contribution for L=           0  read in
    real space projection operators read in
  non local Contribution for L=           0  read in
    real space projection operators read in
  non local Contribution for L=           1  read in
    real space projection operators read in
  non local Contribution for L=           1  read in
    real space projection operators read in
    PAW grid and wavefunctions read in
 
   number of l-projection  operators is LMAX  =           4
   number of lm-projection operators is LMMAX =           8
 
 POTCAR:    PAW_PBE N 08Apr2002                   
   SHA256 =  e053789ff3a61a86a1b75d8a110fcc91f86041011e7b0817c7c99e4e8a6349d7 N/
   COPYR  = (c) Copyright 08Apr2002 Georg Kresse                                
   COPYR  = This file is part of the software VASP. Any use, copying, and all ot
   COPYR  = If you do not have a valid VASP license, you may not use, copy or di
   VRHFIN =N: s2p3                                                              
   LEXCH  = PE                                                                  
   EATOM  =   264.5486 eV,   19.4438 Ry                                         
                                                                                
   TITEL  = PAW_PBE N 08Apr2002                                                 
   LULTRA =        F    use ultrasoft PP ?                                      
   IUNSCR =        1    unscreen: 0-lin 1-nonlin 2-no                           
   RPACOR =    1.200    partial core radius                                     
   POMASS =   14.001; ZVAL   =    5.000    mass and valenz                      
   RCORE  =    1.500    outmost cutoff radius                                   
   RWIGS  =    1.400; RWIGS  =    0.741    wigner-seitz radius (au A)           
   ENMAX  =  400.000; ENMIN  =  300.000 eV                                      
   ICORE  =        2    local potential                                         
   LCOR   =        T    correct aug charges                                     
   LPAW   =        T    paw PP                                                  
   EAUG   =  627.112                                                            
   DEXC   =    0.000                                                            
   RMAX   =    1.529    core radius for proj-oper                               
   RAUG   =    1.300    factor for augmentation sphere                          
   RDEP   =    1.514    radius for radial grids                                 
   RDEPT  =    1.338    core radius for aug-charge                              
                                                                                
   Atomic configuration                                                         
    4 entries                                                                   
     n  l   j            E        occ.                                          
     1  0  0.50      -384.7179   2.0000                                         
     2  0  0.50       -18.5828   2.0000                                         
     2  1  0.50        -7.0898   3.0000                                         
     3  2  1.50        -6.8029   0.0000                                         
   Description                                                                  
     l       E           TYP  RCUT    TYP  RCUT                                 
     0    -18.5828119     23  1.200                                             
     0    -13.5018863     23  1.200                                             
     1     -7.0897853     23  1.500                                             
     1      9.5240782     23  1.500                                             
     2     -6.8029130      7  1.500                                             
  local pseudopotential read in
  partial core-charges read in
  partial kinetic energy density read in
  atomic valenz-charges read in
  non local Contribution for L=           0  read in
    real space projection operators read in
  non local Contribution for L=           0  read in
    real space projection operators read in
  non local Contribution for L=           1  read in
    real space projection operators read in
  non local Contribution for L=           1  read in
    real space projection operators read in
    PAW grid and wavefunctions read in
 
   number of l-projection  operators is LMAX  =           4
   number of lm-projection operators is LMMAX =           8
 
 POTCAR:    PAW_PBE C 08Apr2002                   
   SHA256 =  253f7b50bb8d59471dbedb8285d89021f4a42ed1a2c5d38a03a736e69125dd95 C/
   COPYR  = (c) Copyright 08Apr2002 Georg Kresse                                
   COPYR  = This file is part of the software VASP. Any use, copying, and all ot
   COPYR  = If you do not have a valid VASP license, you may not use, copy or di
   VRHFIN =C: s2p2                                                              
   LEXCH  = PE                                                                  
   EATOM  =   147.1560 eV,   10.8157 Ry                                         
                                                                                
   TITEL  = PAW_PBE C 08Apr2002                                                 
   LULTRA =        F    use ultrasoft PP ?                                      
   IUNSCR =        1    unscreen: 0-lin 1-nonlin 2-no                           
   RPACOR =    1.200    partial core radius                                     
   POMASS =   12.011; ZVAL   =    4.000    mass and valenz                      
   RCORE  =    1.500    outmost cutoff radius                                   
   RWIGS  =    1.630; RWIGS  =    0.863    wigner-seitz radius (au A)           
   ENMAX  =  400.000; ENMIN  =  300.000 eV                                      
   ICORE  =        2    local potential                                         
   LCOR   =        T    correct aug charges                                     
   LPAW   =        T    paw PP                                                  
   EAUG   =  644.873                                                            
   DEXC   =    0.000                                                            
   RMAX   =    1.529    core radius for proj-oper                               
   RAUG   =    1.300    factor for augmentation sphere                          
   RDEP   =    1.501    radius for radial grids                                 
   RDEPT  =    1.300    core radius for aug-charge                              
                                                                                
   Atomic configuration                                                         
    4 entries                                                                   
     n  l   j            E        occ.                                          
     1  0  0.50      -273.3789   2.0000                                         
     2  0  0.50       -13.7508   2.0000                                         
     2  1  0.50        -5.2854   2.0000                                         
     3  2  1.50        -5.4423   0.0000                                         
   Description                                                                  
     l       E           TYP  RCUT    TYP  RCUT                                 
     0    -13.7508458     23  1.200                                             
     0     -8.2022199     23  1.200                                             
     1     -5.2854383     23  1.500                                             
     1     34.0145650     23  1.500                                             
     2     -5.4423304      7  1.500                                             
  local pseudopotential read in
  partial core-charges read in
  partial kinetic energy density read in
  atomic valenz-charges read in
  non local Contribution for L=           0  read in
    real space projection operators read in
  non local Contribution for L=           0  read in
    real space projection operators read in
  non local Contribution for L=           1  read in
    real space projection operators read in
  non local Contribution for L=           1  read in
    real space projection operators read in
    PAW grid and wavefunctions read in
 
   number of l-projection  operators is LMAX  =           4
   number of lm-projection operators is LMMAX =           8
 
 POTCAR:    PAW_PBE Cr_pv 02Aug2007               
   SHA256 =  c9a7df34d3cdbacf1090e328ef39c0b420964e11c23f63548d1ac9dd218cdba0 Cr
   COPYR  = (c) Copyright 02Aug2007 Georg Kresse                                
   COPYR  = This file is part of the software VASP. Any use, copying, and all ot
   COPYR  = If you do not have a valid VASP license, you may not use, copy or di
   VRHFIN =Cr : p6d5s1                                                          
   LEXCH  = PE                                                                  
   EATOM  =  1647.9177 eV,  121.1185 Ry                                         
                                                                                
   TITEL  = PAW_PBE Cr_pv 02Aug2007                                             
   LULTRA =        F    use ultrasoft PP ?                                      
   IUNSCR =        1    unscreen: 0-lin 1-nonlin 2-no                           
   RPACOR =    2.080    partial core radius                                     
   POMASS =   51.996; ZVAL   =   12.000    mass and valenz                      
   RCORE  =    2.300    outmost cutoff radius                                   
   RWIGS  =    2.500; RWIGS  =    1.323    wigner-seitz radius (au A)           
   ENMAX  =  265.681; ENMIN  =  199.261 eV                                      
   ICORE  =        3    local potential                                         
   LCOR   =        T    correct aug charges                                     
   LPAW   =        T    paw PP                                                  
   EAUG   =  519.424                                                            
   DEXC   =    0.000                                                            
   RMAX   =    2.356    core radius for proj-oper                               
   RAUG   =    1.300    factor for augmentation sphere                          
   RDEP   =    2.447    radius for radial grids                                 
   RDEPT  =    1.882    core radius for aug-charge                              
                                                                                
   Atomic configuration                                                         
    8 entries                                                                   
     n  l   j            E        occ.                                          
     1  0  0.50     -5880.4963   2.0000                                         
     2  0  0.50      -667.0865   2.0000                                         
     2  1  1.50      -560.6250   6.0000                                         
     3  0  0.50       -73.9860   2.0000                                         
     3  1  1.50       -45.4378   6.0000                                         
     3  2  2.50        -2.9137   5.0000                                         
     4  0  0.50        -4.0071   1.0000                                         
     4  3  2.50        -1.3606   0.0000                                         
   Description                                                                  
     l       E           TYP  RCUT    TYP  RCUT                                 
     1    -45.4377911     23  2.000                                             
     1      1.3605826     23  2.000                                             
     2     -2.9136672     23  2.300                                             
     2     -4.2742498     23  2.300                                             
     0     -4.0071320     23  2.300                                             
     0      9.4498803     23  2.300                                             
     3      2.7211652     23  2.300                                             
  local pseudopotential read in
  partial core-charges read in
  partial kinetic energy density read in
  atomic valenz-charges read in
  non local Contribution for L=           1  read in
    real space projection operators read in
  non local Contribution for L=           1  read in
    real space projection operators read in
  non local Contribution for L=           2  read in
    real space projection operators read in
  non local Contribution for L=           2  read in
    real space projection operators read in
  non local Contribution for L=           0  read in
    real space projection operators read in
  non local Contribution for L=           0  read in
    real space projection operators read in
    PAW grid and wavefunctions read in
 
   number of l-projection  operators is LMAX  =           6
   number of lm-projection operators is LMMAX =          18
 
 POTCAR:    PAW_PBE C 08Apr2002                   
   SHA256 =  253f7b50bb8d59471dbedb8285d89021f4a42ed1a2c5d38a03a736e69125dd95 C/
   COPYR  = (c) Copyright 08Apr2002 Georg Kresse                                
   COPYR  = This file is part of the software VASP. Any use, copying, and all ot
   COPYR  = If you do not have a valid VASP license, you may not use, copy or di
   VRHFIN =C: s2p2                                                              
   LEXCH  = PE                                                                  
   EATOM  =   147.1560 eV,   10.8157 Ry                                         
                                                                                
   TITEL  = PAW_PBE C 08Apr2002                                                 
   LULTRA =        F    use ultrasoft PP ?                                      
   IUNSCR =        1    unscreen: 0-lin 1-nonlin 2-no                           
   RPACOR =    1.200    partial core radius                                     
   POMASS =   12.011; ZVAL   =    4.000    mass and valenz                      
   RCORE  =    1.500    outmost cutoff radius                                   
   RWIGS  =    1.630; RWIGS  =    0.863    wigner-seitz radius (au A)           
   ENMAX  =  400.000; ENMIN  =  300.000 eV                                      
   ICORE  =        2    local potential                                         
   LCOR   =        T    correct aug charges                                     
   LPAW   =        T    paw PP                                                  
   EAUG   =  644.873                                                            
   DEXC   =    0.000                                                            
   RMAX   =    1.529    core radius for proj-oper                               
   RAUG   =    1.300    factor for augmentation sphere                          
   RDEP   =    1.501    radius for radial grids                                 
   RDEPT  =    1.300    core radius for aug-charge                              
                                                                                
   Atomic configuration                                                         
    4 entries                                                                   
     n  l   j            E        occ.                                          
     1  0  0.50      -273.3789   2.0000                                         
     2  0  0.50       -13.7508   2.0000                                         
     2  1  0.50        -5.2854   2.0000                                         
     3  2  1.50        -5.4423   0.0000                                         
   Description                                                                  
     l       E           TYP  RCUT    TYP  RCUT                                 
     0    -13.7508458     23  1.200                                             
     0     -8.2022199     23  1.200                                             
     1     -5.2854383     23  1.500                                             
     1     34.0145650     23  1.500                                             
     2     -5.4423304      7  1.500                                             
  local pseudopotential read in
  partial core-charges read in
  partial kinetic energy density read in
  atomic valenz-charges read in
  non local Contribution for L=           0  read in
    real space projection operators read in
  non local Contribution for L=           0  read in
    real space projection operators read in
  non local Contribution for L=           1  read in
    real space projection operators read in
  non local Contribution for L=           1  read in
    real space projection operators read in
    PAW grid and wavefunctions read in
 
   number of l-projection  operators is LMAX  =           4
   number of lm-projection operators is LMMAX =           8
 
 POTCAR:    PAW_PBE O 08Apr2002                   
   SHA256 =  818f92134a0a090dccd8ba1447fa70422a3b330e708bb4f08108d8ae51209ddf O/
   COPYR  = (c) Copyright 08Apr2002 Georg Kresse                                
   COPYR  = This file is part of the software VASP. Any use, copying, and all ot
   COPYR  = If you do not have a valid VASP license, you may not use, copy or di
   VRHFIN =O: s2p4                                                              
   LEXCH  = PE                                                                  
   EATOM  =   432.3788 eV,   31.7789 Ry                                         
                                                                                
   TITEL  = PAW_PBE O 08Apr2002                                                 
   LULTRA =        F    use ultrasoft PP ?                                      
   IUNSCR =        1    unscreen: 0-lin 1-nonlin 2-no                           
   RPACOR =    1.200    partial core radius                                     
   POMASS =   16.000; ZVAL   =    6.000    mass and valenz                      
   RCORE  =    1.520    outmost cutoff radius                                   
   RWIGS  =    1.550; RWIGS  =    0.820    wigner-seitz radius (au A)           
   ENMAX  =  400.000; ENMIN  =  300.000 eV                                      
   ICORE  =        2    local potential                                         
   LCOR   =        T    correct aug charges                                     
   LPAW   =        T    paw PP                                                  
   EAUG   =  605.392                                                            
   DEXC   =    0.000                                                            
   RMAX   =    1.553    core radius for proj-oper                               
   RAUG   =    1.300    factor for augmentation sphere                          
   RDEP   =    1.550    radius for radial grids                                 
   RDEPT  =    1.329    core radius for aug-charge                              
                                                                                
   Atomic configuration                                                         
    4 entries                                                                   
     n  l   j            E        occ.                                          
     1  0  0.50      -514.6923   2.0000                                         
     2  0  0.50       -23.9615   2.0000                                         
     2  1  0.50        -9.0305   4.0000                                         
     3  2  1.50        -9.5241   0.0000                                         
   Description                                                                  
     l       E           TYP  RCUT    TYP  RCUT                                 
     0    -23.9615318     23  1.200                                             
     0     -9.5240782     23  1.200                                             
     1     -9.0304911     23  1.520                                             
     1      8.1634956     23  1.520                                             
     2     -9.5240782      7  1.500                                             
  local pseudopotential read in
  partial core-charges read in
  partial kinetic energy density read in
  kinetic energy density of atom read in
  atomic valenz-charges read in
  non local Contribution for L=           0  read in
    real space projection operators read in
  non local Contribution for L=           0  read in
    real space projection operators read in
  non local Contribution for L=           1  read in
    real space projection operators read in
  non local Contribution for L=           1  read in
    real space projection operators read in
    PAW grid and wavefunctions read in
 
   number of l-projection  operators is LMAX  =           4
   number of lm-projection operators is LMMAX =           8
 

 ----------------------------------------------------------------------------- 
|                                                                             |
|  ADVICE TO THIS USER RUNNING 'VASP/VAMP'   (HEAR YOUR MASTER'S VOICE ...):  |
|                                                                             |
|      You have a (more or less) 'large supercell' and for larger cells       |
|      it might be more efficient to use real space projection opertators     |
|      So try LREAL= Auto  in the INCAR   file.                               |
|      Mind:          For very  accurate calculation you might also keep the  |
|      reciprocal projection scheme          (i.e. LREAL=.FALSE.)             |
|                                                                             |
 ----------------------------------------------------------------------------- 

  PAW_PBE C 08Apr2002                   :
 energy of atom  1       EATOM= -147.1560
 kinetic energy error for atom=    0.0132 (will be added to EATOM!!)
  PAW_PBE N 08Apr2002                   :
 energy of atom  2       EATOM= -264.5486
 kinetic energy error for atom=    0.0298 (will be added to EATOM!!)
  PAW_PBE C 08Apr2002                   :
 energy of atom  3       EATOM= -147.1560
 kinetic energy error for atom=    0.0132 (will be added to EATOM!!)
  PAW_PBE Cr_pv 02Aug2007               :
 energy of atom  4       EATOM=-1647.9177
 kinetic energy error for atom=    0.0134 (will be added to EATOM!!)
  PAW_PBE C 08Apr2002                   :
 energy of atom  5       EATOM= -147.1560
 kinetic energy error for atom=    0.0132 (will be added to EATOM!!)
  PAW_PBE O 08Apr2002                   :
 energy of atom  6       EATOM= -432.3788
 kinetic energy error for atom=    0.0458 (will be added to EATOM!!)
 
 
 POSCAR: POSCAR-clean                            
  positions in cartesian coordinates
  No initial velocities read in
 exchange correlation table for  LEXCH =        8
   RHO(1)=    0.500       N(1)  =     2000
   RHO(2)=  100.500       N(2)  =     4000

 VTST: version 3.2, (02/03/18)

 CHAIN: initializing optimizer
 
 OPT: Using VASP Dynamics algorithm
 CHAIN: Read ICHAIN            0
 
 POSCAR: POSCAR-clean                            
  positions in cartesian coordinates
  No initial velocities read in
 


--------------------------------------------------------------------------------------------------------


 ion  position               nearest neighbor table
   1  0.000  0.000  0.484-   2 1.42  60 1.42  70 1.43
   2  0.055  0.111  0.484-   1 1.42  13 1.43  15 1.44
   3  0.168  0.002  0.483-   4 1.42  62 1.43  60 1.43
   4  0.224  0.113  0.484-   3 1.42  15 1.43  17 1.44
   5  0.334  0.002  0.484-   6 1.42  62 1.43  64 1.43
   6  0.391  0.113  0.484-   5 1.42  19 1.43  17 1.44
   7  0.500  1.000  0.484-  64 1.42   8 1.42  66 1.43
   8  0.557  0.111  0.484-   7 1.42  21 1.42  19 1.44
   9  0.666  0.999  0.484-  10 1.41  66 1.42  68 1.43
  10  0.722  0.109  0.484-   9 1.41  23 1.41  21 1.41
  11  0.832  0.998  0.484-  12 1.42  70 1.42  68 1.43
  12  0.887  0.109  0.484-  11 1.42  23 1.42  13 1.43
  13  0.998  0.166  0.484-  14 1.42   2 1.43  12 1.43
  14  0.054  0.277  0.484-  13 1.42  25 1.42  27 1.43
  15  0.167  0.168  0.484-  16 1.42   4 1.43   2 1.44
  16  0.223  0.280  0.486-  15 1.42  27 1.42  29 1.44
  17  0.335  0.170  0.485-  18 1.42   4 1.44   6 1.44
  18  0.391  0.281  0.488-  17 1.42  29 1.44  31 1.44
  19  0.502  0.168  0.484-  20 1.42   6 1.43   8 1.44
  20  0.557  0.280  0.486-  33 1.42  19 1.42  31 1.45
  21  0.667  0.165  0.484-  10 1.41  22 1.42   8 1.42
  22  0.723  0.276  0.484-  21 1.42  35 1.42  33 1.43
  23  0.831  0.164  0.484-  10 1.41  24 1.42  12 1.42
  24  0.887  0.276  0.484-  35 1.42  23 1.42  25 1.43
  25  0.999  0.332  0.484-  14 1.42  26 1.43  24 1.43
  26  0.054  0.443  0.485-  39 1.42  37 1.42  25 1.43
  27  0.165  0.333  0.486-  28 1.42  16 1.42  14 1.43
  28  0.219  0.444  0.488-  41 1.41  27 1.42  39 1.42
  29  0.335  0.338  0.489-  30 1.42  18 1.44  16 1.44
  30  0.388  0.449  0.495-  41 1.41  29 1.42  71 2.00
  31  0.503  0.338  0.490-  32 1.42  18 1.44  20 1.45
  32  0.561  0.449  0.496-  43 1.41  31 1.42  71 2.00
  33  0.668  0.332  0.486-  20 1.42  34 1.42  22 1.43
  34  0.725  0.443  0.487-  43 1.41  45 1.42  33 1.42
  35  0.833  0.332  0.484-  24 1.42  22 1.42  36 1.42
  36  0.890  0.444  0.484-  45 1.41  37 1.42  35 1.42
  37  0.000  0.500  0.484-  26 1.42  36 1.42  38 1.42
  38  0.056  0.611  0.484-  47 1.42  49 1.42  37 1.42
  39  0.164  0.500  0.486-  26 1.42  28 1.42  40 1.43
  40  0.220  0.611  0.486-  49 1.41  51 1.42  39 1.43
  41  0.329  0.499  0.491-  30 1.41  28 1.41  42 1.44
  42  0.385  0.612  0.491-  53 1.41  51 1.41  41 1.44
  43  0.671  0.499  0.491-  32 1.41  34 1.41  44 1.44
  44  0.727  0.612  0.491-  57 1.41  55 1.41  43 1.44
  45  0.835  0.500  0.485-  36 1.41  34 1.42  46 1.42
  46  0.891  0.611  0.485-  47 1.41  57 1.42  45 1.42
  47  0.001  0.667  0.484-  46 1.41  38 1.42  48 1.43
  48  0.057  0.779  0.484-  59 1.42  61 1.42  47 1.43
  49  0.166  0.667  0.485-  40 1.41  38 1.42  50 1.42
  50  0.223  0.779  0.484-  63 1.42  49 1.42  61 1.42
  51  0.331  0.667  0.488-  42 1.41  52 1.42  40 1.42
  52  0.389  0.779  0.486-  51 1.42  63 1.42  65 1.43
  53  0.495  0.663  0.495-  42 1.41  54 1.42  71 1.99
  54  0.553  0.774  0.489-  53 1.42  67 1.43  65 1.44
  55  0.668  0.663  0.496-  44 1.41  56 1.42  71 2.00
  56  0.720  0.774  0.490-  55 1.42  69 1.44  67 1.44
  57  0.836  0.667  0.487-  44 1.41  58 1.42  46 1.42
  58  0.890  0.778  0.486-  57 1.42  69 1.42  59 1.43
  59  0.001  0.835  0.484-  60 1.42  48 1.42  58 1.43
  60  0.057  0.946  0.483-  59 1.42   1 1.42   3 1.43
  61  0.168  0.835  0.484-  62 1.42  48 1.42  50 1.42
  62  0.223  0.946  0.484-  61 1.42   3 1.43   5 1.43
  63  0.333  0.834  0.484-  64 1.42  50 1.42  52 1.42
  64  0.389  0.946  0.484-   7 1.42  63 1.42   5 1.43
  65  0.500  0.832  0.486-  52 1.43  66 1.43  54 1.44
  66  0.556  0.944  0.484-   9 1.42  65 1.43   7 1.43
  67  0.665  0.830  0.488-  68 1.42  54 1.43  56 1.44
  68  0.721  0.942  0.485-  67 1.42  11 1.43   9 1.43
  69  0.833  0.831  0.486-  58 1.42  70 1.43  56 1.44
  70  0.888  0.943  0.484-  11 1.42  69 1.43   1 1.43
  71  0.528  0.556  0.541-  53 1.99  55 2.00  30 2.00  32 2.00
  72  0.528  0.556  0.939-  73 1.16
  73  0.478  0.499  0.996-  72 1.16
 

IMPORTANT INFORMATION: All symmetrisations will be switched off!
NOSYMM: (Re-)initialisation of all symmetry stuff for point group C_1.

 
 
 KPOINTS: K-Points                                

Automatic generation of k-mesh.
Space group operators:
 irot       det(A)        alpha          n_x          n_y          n_z        tau_x        tau_y        tau_z
    1     1.000000     0.000000     1.000000     0.000000     0.000000     0.000000     0.000000     0.000000
 
 Subroutine IBZKPT returns following result:
 ===========================================
 
 Found      5 irreducible k-points:
 
 Following reciprocal coordinates:
            Coordinates               Weight
  0.000000  0.000000  0.000000      1.000000
  0.333333 -0.000000  0.000000      2.000000
  0.000000  0.333333  0.000000      2.000000
  0.333333  0.333333  0.000000      2.000000
 -0.333333  0.333333  0.000000      2.000000
 
 Following cartesian coordinates:
            Coordinates               Weight
  0.000000  0.000000  0.000000      1.000000
  0.022435  0.013066  0.000000      2.000000
  0.000000  0.026132  0.000000      2.000000
  0.022435  0.039198  0.000000      2.000000
 -0.022435  0.013066  0.000000      2.000000
 
 TETIRR: Found     24 inequivalent tetrahedra from       54


--------------------------------------------------------------------------------------------------------




 Dimension of arrays:
   k-points           NKPTS =      5   k-points in BZ     NKDIM =      5   number of bands    NBANDS=    192
   number of dos      NEDOS =   4000   number of ions     NIONS =     73
   non local maximal  LDIM  =      6   non local SUM 2l+1 LMDIM =     18
   total plane-waves  NPLWV = 512000
   max r-space proj   IRMAX =      1   max aug-charges    IRDMAX=   6466
   dimension x,y,z NGX =    80 NGY =   80 NGZ =   80
   dimension x,y,z NGXF=   160 NGYF=  160 NGZF=  160
   support grid    NGXF=   160 NGYF=  160 NGZF=  160
   ions per type =               9   1  60   1   1   1
   NGX,Y,Z   is equivalent  to a cutoff of   8.95,  9.01,  8.87 a.u.
   NGXF,Y,Z  is equivalent  to a cutoff of  17.90, 18.02, 17.73 a.u.

 SYSTEM =  unknown system                          
 POSCAR =  POSCAR-clean                            

 Startparameter for this run:
   NWRITE =      2    write-flag & timer
   PREC   = normal    normal or accurate (medium, high low for compatibility)
   ISTART =      0    job   : 0-new  1-cont  2-samecut
   ICHARG =      2    charge: 1-file 2-atom 10-const
   ISPIN  =      2    spin polarized calculation?
   LNONCOLLINEAR =      F non collinear calculations
   LSORBIT =      F    spin-orbit coupling
   INIWAV =      1    electr: 0-lowe 1-rand  2-diag
   LASPH  =      F    aspherical Exc in radial PAW
   METAGGA=      F    non-selfconsistent MetaGGA calc.

 Electronic Relaxation 1
   ENCUT  =  440.0 eV  32.34 Ry    5.69 a.u.  25.41 25.25 25.66*2*pi/ulx,y,z
   ENINI  =  440.0     initial cutoff
   ENAUG  =  644.9 eV  augmentation charge cutoff
   NELM   =    100;   NELMIN=  2; NELMDL= -5     # of ELM steps 
   EDIFF  = 0.1E-03   stopping-criterion for ELM
   LREAL  =      F    real-space projection
   NLSPLINE    = F    spline interpolate recip. space projectors
   LCOMPAT=      F    compatible to vasp.4.4
   GGA_COMPAT  = T    GGA compatible to vasp.4.4-vasp.4.6
   LMAXPAW     = -100 max onsite density
   LMAXMIX     =    2 max onsite mixed and CHGCAR
   VOSKOWN=      0    Vosko Wilk Nusair interpolation
   ROPT   =    0.00000   0.00000   0.00000   0.00000
   ROPT   =    0.00000   0.00000
 Ionic relaxation
   EDIFFG = -.1E-01   stopping-criterion for IOM
   NSW    =      0    number of steps for IOM
   NBLOCK =      1;   KBLOCK =      1    inner block; outer block 
   IBRION =     -1    ionic relax: 0-MD 1-quasi-New 2-CG
   NFREE  =      0    steps in history (QN), initial steepest desc. (CG)
   ISIF   =      2    stress and relaxation
   IWAVPR =     10    prediction:  0-non 1-charg 2-wave 3-comb
   ISYM   =      0    0-nonsym 1-usesym 2-fastsym
   LCORR  =      T    Harris-Foulkes like correction to forces

   POTIM  = 0.5000    time-step for ionic-motion
   TEIN   =    0.0    initial temperature
   TEBEG  =    0.0;   TEEND  =   0.0 temperature during run
   SMASS  =  -3.00    Nose mass-parameter (am)
   estimated Nose-frequenzy (Omega)   =  0.10E-29 period in steps =****** mass=  -0.504E-26a.u.
   SCALEE = 1.0000    scale energy and forces
   NPACO  =    256;   APACO  = 16.0  distance and # of slots for P.C.
   PSTRESS=    0.0 pullay stress

  Mass of Ions in am
   POMASS =  12.01 14.00 12.01 52.00 12.01 16.00
  Ionic Valenz
   ZVAL   =   4.00  5.00  4.00 12.00  4.00  6.00
  Atomic Wigner-Seitz radii
   RWIGS  =  -1.00 -1.00 -1.00 -1.00 -1.00 -1.00
  virtual crystal weights 
   VCA    =   1.00  1.00  1.00  1.00  1.00  1.00
   NELECT =     303.0000    total number of electrons
   NUPDOWN=      -1.0000    fix difference up-down

 DOS related values:
   EMIN   = -14.00;   EMAX   =  6.00  energy-range for DOS
   EFERMI =   0.00
   ISMEAR =    -5;   SIGMA  =   0.20  broadening in eV -4-tet -1-fermi 0-gaus

 Electronic relaxation 2 (details)
   IALGO  =     38    algorithm
   LDIAG  =      T    sub-space diagonalisation (order eigenvalues)
   LSUBROT=      F    optimize rotation matrix (better conditioning)
   TURBO    =      0    0=normal 1=particle mesh
   IRESTART =      0    0=no restart 2=restart with 2 vectors
   NREBOOT  =      0    no. of reboots
   NMIN     =      0    reboot dimension
   EREF     =   0.00    reference energy to select bands
   IMIX   =      4    mixing-type and parameters
     AMIX     =   0.25;   BMIX     =  0.00
     AMIX_MAG =   1.00;   BMIX_MAG =  0.00
     AMIN     =   0.10
     WC   =   100.;   INIMIX=   1;  MIXPRE=   1;  MAXMIX= -45

 Intra band minimization:
   WEIMIN = 0.0000     energy-eigenvalue tresh-hold
   EBREAK =  0.13E-06  absolut break condition
   DEPER  =   0.30     relativ break condition  

   TIME   =   0.40     timestep for ELM

  volume/ion in A,a.u.               =      38.94       262.80
  Fermi-wavevector in a.u.,A,eV,Ry     =   0.776192  1.466790  8.197156  0.602474
  Thomas-Fermi vector in A             =   1.878618
 
 Write flags
   LWAVE        =      F    write WAVECAR
   LDOWNSAMPLE  =      F    k-point downsampling of WAVECAR
   LCHARG       =      F    write CHGCAR
   LVTOT        =      F    write LOCPOT, total local potential
   LVHAR        =      F    write LOCPOT, Hartree potential only
   LELF         =      F    write electronic localiz. function (ELF)
   LORBIT       =     11    0 simple, 1 ext, 2 COOP (PROOUT), +10 PAW based schemes


 Dipole corrections
   LMONO  =      F    monopole corrections only (constant potential shift)
   LDIPOL =      F    correct potential (dipole corrections)
   IDIPOL =      0    1-x, 2-y, 3-z, 4-all directions 
   EPSILON=  1.0000000 bulk dielectric constant

 Exchange correlation treatment:
   GGA     =    --    GGA type
   LEXCH   =     8    internal setting for exchange type
   VOSKOWN=      0    Vosko Wilk Nusair interpolation
   LHFCALC =     F    Hartree Fock is set to
   LHFONE  =     F    Hartree Fock one center treatment
   AEXX    =    0.0000 exact exchange contribution

 Linear response parameters
   LEPSILON=     F    determine dielectric tensor
   LRPA    =     F    only Hartree local field effects (RPA)
   LNABLA  =     F    use nabla operator in PAW spheres
   LVEL    =     F    velocity operator in full k-point grid
   LINTERFAST=   F  fast interpolation
   KINTER  =     0    interpolate to denser k-point grid
   CSHIFT  =0.1000    complex shift for real part using Kramers Kronig
   OMEGAMAX=  -1.0    maximum frequency
   DEG_THRESHOLD= 0.2000000E-02 threshold for treating states as degnerate
   RTIME   =   -0.100 relaxation time in fs
  (WPLASMAI=    0.000 imaginary part of plasma frequency in eV, 0.658/RTIME)
   DFIELD  = 0.0000000 0.0000000 0.0000000 field for delta impulse in time
 
 Orbital magnetization related:
   ORBITALMAG=     F  switch on orbital magnetization
   LCHIMAG   =     F  perturbation theory with respect to B field
   DQ        =  0.001000  dq finite difference perturbation B field
   LLRAUG    =     F  two centre corrections for induced B field



--------------------------------------------------------------------------------------------------------


 Static calculation
 charge density and potential will be updated during run
 spin polarized calculation
 Variant of blocked Davidson
 Davidson routine will perform the subspace rotation
 perform sub-space diagonalisation
    after iterative eigenvector-optimisation
 modified Broyden-mixing scheme, WC =      100.0
 initial mixing is a Kerker type mixing with AMIX =  0.2500 and BMIX =      0.0001
 Hartree-type preconditioning will be used
 using additional bands           40
 reciprocal scheme for non local part
 use partial core corrections
 calculate Harris-corrections to forces 
   (improved forces if not selfconsistent)
 use gradient corrections 
 use of overlap-Matrix (Vanderbilt PP)
 Fermi weights with tetrahedron method with Bloechl corrections


--------------------------------------------------------------------------------------------------------


  energy-cutoff  :      440.00
  volume of cell :     2842.89
      direct lattice vectors                 reciprocal lattice vectors
    14.857880698 -0.000173602  0.000000000     0.067304808  0.039197510  0.000000000
    -7.428940349 12.755999191  0.000000000     0.000000916  0.078395019  0.000000000
     0.000000000  0.000000000 15.000000000     0.000000000  0.000000000  0.066666667

  length of vectors
    14.857880699 14.761594428 15.000000000     0.077886982  0.078395019  0.066666667


 
 k-points in units of 2pi/SCALE and weight: K-Points                                
   0.00000000  0.00000000  0.00000000       0.111
   0.02243494  0.01306584  0.00000000       0.222
   0.00000031  0.02613167  0.00000000       0.222
   0.02243524  0.03919751  0.00000000       0.222
  -0.02243463  0.01306584  0.00000000       0.222
 
 k-points in reciprocal lattice and weights: K-Points                                
   0.00000000  0.00000000  0.00000000       0.111
   0.33333333 -0.00000000  0.00000000       0.222
   0.00000000  0.33333333  0.00000000       0.222
   0.33333333  0.33333333  0.00000000       0.222
  -0.33333333  0.33333333  0.00000000       0.222
 
 position of ions in fractional coordinates (direct lattice) 
   0.00006045  0.00000299  0.48357984
   0.05537440  0.11140933  0.48367219
   0.16801355  0.00209113  0.48348802
   0.22357739  0.11345304  0.48419362
   0.33443976  0.00217744  0.48368993
   0.39051592  0.11342835  0.48432620
   0.49984802  0.99976215  0.48365315
   0.55650571  0.11103628  0.48359413
   0.66624121  0.99884893  0.48426036
   0.72160990  0.10924346  0.48351785
   0.83229926  0.99768782  0.48431394
   0.88680769  0.10892219  0.48367272
   0.99848270  0.16561509  0.48377053
   0.05410245  0.27660251  0.48444291
   0.16723039  0.16812031  0.48430777
   0.22297321  0.27968878  0.48601239
   0.33544609  0.17026789  0.48534915
   0.39090608  0.28144613  0.48849571
   0.50166073  0.16815137  0.48434006
   0.55707202  0.27958443  0.48600044
   0.66726117  0.16502502  0.48353208
   0.72286815  0.27598005  0.48401038
   0.83146339  0.16434016  0.48357532
   0.88728060  0.27563985  0.48371430
   0.99851628  0.33151925  0.48427752
   0.05417396  0.44343800  0.48472703
   0.16533043  0.33285716  0.48594643
   0.21911267  0.44383300  0.48766385
   0.33537459  0.33786694  0.48935010
   0.38751789  0.44859608  0.49533997
   0.50289145  0.33786561  0.48955117
   0.56135334  0.44855848  0.49571112
   0.66759181  0.33218728  0.48558757
   0.72487261  0.44346800  0.48713150
   0.83346262  0.33237936  0.48386212
   0.88952882  0.44370822  0.48420046
   0.00006407  0.49973827  0.48422400
   0.05576410  0.61121730  0.48422667
   0.16438425  0.49962037  0.48625337
   0.22038253  0.61135159  0.48624762
   0.32901625  0.49929936  0.49121196
   0.38542204  0.61197897  0.49116785
   0.67060258  0.49909269  0.49111013
   0.72684476  0.61184872  0.49110871
   0.83537090  0.49973210  0.48549736
   0.89111722  0.61118668  0.48549496
   0.00125624  0.66722195  0.48420355
   0.05672478  0.77897465  0.48385552
   0.16633160  0.66729370  0.48472753
   0.22261379  0.77896365  0.48426528
   0.33111247  0.66748330  0.48760822
   0.38853540  0.77867041  0.48593476
   0.49466316  0.66269797  0.49540133
   0.55321607  0.77361369  0.48934169
   0.66822120  0.66275044  0.49579245
   0.72043566  0.77358151  0.48951864
   0.83647960  0.66721554  0.48712291
   0.89030198  0.77828545  0.48557936
   0.00138803  0.83450144  0.48397676
   0.05670871  0.94579400  0.48347704
   0.16761514  0.83491734  0.48369348
   0.22333585  0.94640066  0.48356457
   0.33337243  0.83439517  0.48443083
   0.38939740  0.94580772  0.48376478
   0.49972251  0.83210394  0.48602015
   0.55567470  0.94408815  0.48431858
   0.66484306  0.83035058  0.48845695
   0.72087201  0.94193158  0.48539583
   0.83260204  0.83143163  0.48598635
   0.88830307  0.94316658  0.48433697
   0.52775790  0.55571070  0.54071096
   0.52775790  0.55571070  0.93937763
   0.47770086  0.49880788  0.99573344
 
 position of ions in cartesian coordinates  (Angst):
   0.00087587  0.00003817  7.25369755
  -0.00490703  1.42112768  7.25508291
   2.48079033  0.02664532  7.25232030
   2.47905035  1.44716801  7.26290426
   4.95289003  0.02771738  7.25534891
   4.95958657  1.44682416  7.26489307
  -0.00049120 12.75287846  7.25479721
   7.44361359  1.41628210  7.25391189
   2.47854326 12.74120048  7.26390545
   9.91003075  1.39338416  7.25276770
   4.95443975 12.72636056  7.26470914
  12.36690635  1.38925746  7.25509082
  13.60499214  2.11241262  7.25655802
  -1.25101576  3.52833203  7.26664361
   1.23573337  2.14451352  7.26461653
   1.23511800  3.56767116  7.29018590
   3.71910790  2.17187888  7.28023720
   3.71718933  3.59005874  7.32743572
   6.20442877  2.14485160  7.26510088
   6.19989351  3.56628208  7.29000654
   8.68812587  2.10494323  7.25298113
   8.69004945  3.52027576  7.26015575
  11.13291056  2.09617857  7.25362983
  11.13539727  3.51590766  7.25571457
  12.37299900  4.22868594  7.26416273
  -2.48936414  5.65648532  7.27090541
  -0.01631623  4.24589694  7.28919641
  -0.04165902  5.66149537  7.31495768
   2.47296228  4.30977223  7.34025152
   2.42510103  5.72222395  7.43009961
   4.96191780  4.30972610  7.34326750
   5.00820679  5.72171413  7.43566678
   7.45119998  4.23726480  7.28381351
   7.47557349  5.65675158  7.30697243
   9.91426170  4.23968621  7.25793176
   9.92023110  5.65978730  7.26300684
  -3.71157388  6.37466102  7.26336006
  -3.71216054  7.79667772  7.26340001
  -1.26924832  6.37312850  7.29380048
  -1.26727711  7.79836212  7.29371424
   1.17921902  6.36900507  7.36817945
   1.18019949  7.80633632  7.36751768
   6.25600326  6.36630955  7.36665193
   6.25398502  7.80461560  7.36663067
   8.69936118  6.37443729  7.28246043
   8.69964393  7.79614210  7.28242434
  -4.93808697  8.51108241  7.26305328
  -4.94414624  9.93659013  7.25783283
  -2.48595005  8.51196906  7.27091300
  -2.47930537  9.93642103  7.26397913
  -0.03906406  8.51435892  7.31412336
  -0.01188339  9.93265162  7.28902144
   2.42650252  8.45328893  7.43101988
   2.47248834  9.86811957  7.34012531
   5.00481736  8.45392813  7.43688673
   4.95725622  9.86768010  7.34277967
   7.47160959  8.51085571  7.30684367
   7.44616439  9.92765397  7.28369047
  -6.17883816 10.64489940  7.25965143
  -6.18367594 12.06453766  7.25215554
  -3.71214542 10.65017585  7.25540218
  -3.71245666 12.07224725  7.25346858
  -1.24546412 10.64348622  7.26646249
  -1.24072902 12.06465492  7.25647163
   1.24316681 10.61423050  7.29030226
   1.24257385 12.04269121  7.26477864
   3.70953396 10.59183593  7.32685423
   3.71307677 12.01515329  7.28093744
   6.19404577 10.60559668  7.28979531
   6.19157280 12.03087792  7.26505459
   3.71302229  7.08855366  8.11066445
   3.71302229  7.08855366 14.09066445
   3.39200835  6.36270997 14.93600164
 


--------------------------------------------------------------------------------------------------------


 k-point  1 :   0.0000 0.0000 0.0000  plane waves:   59581
 k-point  2 :   0.3333-0.0000 0.0000  plane waves:   59554
 k-point  3 :   0.0000 0.3333 0.0000  plane waves:   59614
 k-point  4 :   0.3333 0.3333 0.0000  plane waves:   59624
 k-point  5 :  -0.3333 0.3333 0.0000  plane waves:   59552

 maximum and minimum number of plane-waves per node :      5004     4936

 maximum number of plane-waves:     59624
 maximum index in each direction: 
   IXMAX=   25   IYMAX=   25   IZMAX=   25
   IXMIN=  -25   IYMIN=  -25   IZMIN=  -25


 parallel 3D FFT for wavefunctions:
    minimum data exchange during FFTs selected (reduces bandwidth)
 parallel 3D FFT for charge:
    minimum data exchange during FFTs selected (reduces bandwidth)


 total amount of memory used by VASP MPI-rank0   116094. kBytes
=======================================================================

   base      :      30000. kBytes
   nonl-proj :      27308. kBytes
   fftplans  :       4700. kBytes
   grid      :      15193. kBytes
   one-center:        217. kBytes
   wavefun   :      38676. kBytes
 
     INWAV:  cpu time    0.0000: real time    0.0000
 Broyden mixing: mesh for mixing (old mesh)
   NGX = 51   NGY = 51   NGZ = 51
  (NGX  =160   NGY  =160   NGZ  =160)
  gives a total of 132651 points

 initial charge density was supplied:
 charge density of overlapping atoms calculated
 number of electron     303.0000000 magnetization       2.0000000
 keeping initial charge density in first step


--------------------------------------------------------------------------------------------------------


 Maximum index for augmentation-charges          177 (set IRDMAX)


--------------------------------------------------------------------------------------------------------


 First call to EWALD:  gamma=   0.125
 Maximum number of real-space cells 3x 3x 3
 Maximum number of reciprocal cells 3x 3x 3

    FEWALD:  cpu time    0.0030: real time    0.0031


--------------------------------------- Iteration      1(   1)  ---------------------------------------


    POTLOK:  cpu time    0.2017: real time    0.2255
    SETDIJ:  cpu time    0.0083: real time    0.0097
     EDDAV:  cpu time   11.4715: real time   11.5785
 BZINTS: Fermi energy:  7.921962;303.000000 electrons
         Band energy:***********;  BLOECHL correction: -0.016127
       DOS:  cpu time    0.1060: real time    0.1064
    --------------------------------------------
      LOOP:  cpu time   11.7875: real time   11.9201

 eigenvalue-minimisations  :  4344
 total energy-change (2. order) : 0.2536398E+04  (-0.1116128E+05)
 number of electron     303.0000000 magnetization       2.0000000
 augmentation part      303.0000000 magnetization       2.0000000

 Free energy of the ion-electron system (eV)
  ---------------------------------------------------
  alpha Z        PSCENC =       167.26811561
  Ewald energy   TEWEN  =     28891.79666841
  -Hartree energ DENC   =    -38569.91123126
  -exchange      EXHF   =         0.00000000
  -V(xc)+E(xc)   XCENC  =      1022.19718145
  PAW double counting   =      9455.23336183    -9546.47664214
  entropy T*S    EENTRO =         0.00000000
  eigenvalues    EBANDS =     -1528.46296810
  atomic energy  EATOM  =     12644.75315347
  Solvation  Ediel_sol  =         0.00000000
  ---------------------------------------------------
  free energy    TOTEN  =      2536.39763928 eV

  energy without entropy =     2536.39763928  energy(sigma->0) =     2536.39763928


--------------------------------------------------------------------------------------------------------




--------------------------------------- Iteration      1(   2)  ---------------------------------------


     EDDAV:  cpu time   15.2398: real time   15.3579
 BZINTS: Fermi energy: -1.355313;303.000000 electrons
         Band energy:***********;  BLOECHL correction: -0.057232
       DOS:  cpu time    0.0109: real time    0.0110
    --------------------------------------------
      LOOP:  cpu time   15.2507: real time   15.3689

 eigenvalue-minimisations  :  5512
 total energy-change (2. order) :-0.2774073E+04  (-0.2647237E+04)
 number of electron     303.0000000 magnetization       2.0000000
 augmentation part      303.0000000 magnetization       2.0000000

 Free energy of the ion-electron system (eV)
  ---------------------------------------------------
  alpha Z        PSCENC =       167.26811561
  Ewald energy   TEWEN  =     28891.79666841
  -Hartree energ DENC   =    -38569.91123126
  -exchange      EXHF   =         0.00000000
  -V(xc)+E(xc)   XCENC  =      1022.19718145
  PAW double counting   =      9455.23336183    -9546.47664214
  entropy T*S    EENTRO =         0.00000000
  eigenvalues    EBANDS =     -4302.53568600
  atomic energy  EATOM  =     12644.75315347
  Solvation  Ediel_sol  =         0.00000000
  ---------------------------------------------------
  free energy    TOTEN  =      -237.67507862 eV

  energy without entropy =     -237.67507862  energy(sigma->0) =     -237.67507862


--------------------------------------------------------------------------------------------------------




--------------------------------------- Iteration      1(   3)  ---------------------------------------


     EDDAV:  cpu time   12.8272: real time   12.9306
 BZINTS: Fermi energy: -4.548160;303.000000 electrons
         Band energy:***********;  BLOECHL correction: -0.047798
       DOS:  cpu time    0.0116: real time    0.0117
    --------------------------------------------
      LOOP:  cpu time   12.8389: real time   12.9423

 eigenvalue-minimisations  :  4584
 total energy-change (2. order) :-0.4647177E+03  (-0.4613035E+03)
 number of electron     303.0000000 magnetization       2.0000000
 augmentation part      303.0000000 magnetization       2.0000000

 Free energy of the ion-electron system (eV)
  ---------------------------------------------------
  alpha Z        PSCENC =       167.26811561
  Ewald energy   TEWEN  =     28891.79666841
  -Hartree energ DENC   =    -38569.91123126
  -exchange      EXHF   =         0.00000000
  -V(xc)+E(xc)   XCENC  =      1022.19718145
  PAW double counting   =      9455.23336183    -9546.47664214
  entropy T*S    EENTRO =         0.00000000
  eigenvalues    EBANDS =     -4767.25335864
  atomic energy  EATOM  =     12644.75315347
  Solvation  Ediel_sol  =         0.00000000
  ---------------------------------------------------
  free energy    TOTEN  =      -702.39275126 eV

  energy without entropy =     -702.39275126  energy(sigma->0) =     -702.39275126


--------------------------------------------------------------------------------------------------------




--------------------------------------- Iteration      1(   4)  ---------------------------------------


     EDDAV:  cpu time   12.9041: real time   13.0184
 BZINTS: Fermi energy: -4.714449;303.000000 electrons
         Band energy:***********;  BLOECHL correction: -0.044429
       DOS:  cpu time    0.0285: real time    0.0286
    --------------------------------------------
      LOOP:  cpu time   12.9326: real time   13.0470

 eigenvalue-minimisations  :  4616
 total energy-change (2. order) :-0.1681230E+02  (-0.1666615E+02)
 number of electron     303.0000000 magnetization       2.0000000
 augmentation part      303.0000000 magnetization       2.0000000

 Free energy of the ion-electron system (eV)
  ---------------------------------------------------
  alpha Z        PSCENC =       167.26811561
  Ewald energy   TEWEN  =     28891.79666841
  -Hartree energ DENC   =    -38569.91123126
  -exchange      EXHF   =         0.00000000
  -V(xc)+E(xc)   XCENC  =      1022.19718145
  PAW double counting   =      9455.23336183    -9546.47664214
  entropy T*S    EENTRO =         0.00000000
  eigenvalues    EBANDS =     -4784.06565953
  atomic energy  EATOM  =     12644.75315347
  Solvation  Ediel_sol  =         0.00000000
  ---------------------------------------------------
  free energy    TOTEN  =      -719.20505215 eV

  energy without entropy =     -719.20505215  energy(sigma->0) =     -719.20505215


--------------------------------------------------------------------------------------------------------




--------------------------------------- Iteration      1(   5)  ---------------------------------------


     EDDAV:  cpu time   13.9839: real time   14.0520
 BZINTS: Fermi energy: -4.723429;303.000000 electrons
         Band energy:***********;  BLOECHL correction: -0.044104
       DOS:  cpu time    0.0110: real time    0.0110
    CHARGE:  cpu time    0.1972: real time    0.2014
    MIXING:  cpu time    0.0048: real time    0.0050
    --------------------------------------------
      LOOP:  cpu time   14.1969: real time   14.2695

 eigenvalue-minimisations  :  5224
 total energy-change (2. order) :-0.5458722E+00  (-0.5441033E+00)
 number of electron     302.9999969 magnetization       0.0180476
 augmentation part       12.3763909 magnetization       0.0678005

 Broyden mixing:
  rms(total) = 0.47658E+01    rms(broyden)= 0.47652E+01
  rms(prec ) = 0.55230E+01
  weight for this iteration     100.00

 Free energy of the ion-electron system (eV)
  ---------------------------------------------------
  alpha Z        PSCENC =       167.26811561
  Ewald energy   TEWEN  =     28891.79666841
  -Hartree energ DENC   =    -38569.91123126
  -exchange      EXHF   =         0.00000000
  -V(xc)+E(xc)   XCENC  =      1022.19718145
  PAW double counting   =      9455.23336183    -9546.47664214
  entropy T*S    EENTRO =         0.00000000
  eigenvalues    EBANDS =     -4784.61153175
  atomic energy  EATOM  =     12644.75315347
  Solvation  Ediel_sol  =         0.00000000
  ---------------------------------------------------
  free energy    TOTEN  =      -719.75092437 eV

  energy without entropy =     -719.75092437  energy(sigma->0) =     -719.75092437


--------------------------------------------------------------------------------------------------------




--------------------------------------- Iteration      1(   6)  ---------------------------------------


    POTLOK:  cpu time    0.1137: real time    0.1164
    SETDIJ:  cpu time    0.0103: real time    0.0104
     EDDAV:  cpu time   13.0076: real time   13.0883
 BZINTS: Fermi energy: -5.521769;303.000000 electrons
         Band energy:***********;  BLOECHL correction: -0.022523
       DOS:  cpu time    0.0117: real time    0.0120
    CHARGE:  cpu time    0.2098: real time    0.2161
    MIXING:  cpu time    0.0038: real time    0.0067
    --------------------------------------------
      LOOP:  cpu time   13.3570: real time   13.4498

 eigenvalue-minimisations  :  4888
 total energy-change (2. order) : 0.1393188E+00  (-0.8962313E+01)
 number of electron     303.0000016 magnetization       0.0130360
 augmentation part       18.0181375 magnetization       0.0331742

 Broyden mixing:
  rms(total) = 0.74534E+01    rms(broyden)= 0.74531E+01
  rms(prec ) = 0.85258E+01
  weight for this iteration     100.00

 eigenvalues of (default mixing * dielectric matrix)
  average eigenvalue GAMMA=   0.2839
  0.2839

 Free energy of the ion-electron system (eV)
  ---------------------------------------------------
  alpha Z        PSCENC =       167.26811561
  Ewald energy   TEWEN  =     28891.79666841
  -Hartree energ DENC   =    -38945.95197065
  -exchange      EXHF   =         0.00000000
  -V(xc)+E(xc)   XCENC  =      1034.98750853
  PAW double counting   =     13242.51900223   -13333.73052608
  entropy T*S    EENTRO =         0.00000000
  eigenvalues    EBANDS =     -4421.25355709
  atomic energy  EATOM  =     12644.75315347
  Solvation  Ediel_sol  =         0.00000000
  ---------------------------------------------------
  free energy    TOTEN  =      -719.61160558 eV

  energy without entropy =     -719.61160558  energy(sigma->0) =     -719.61160558


--------------------------------------------------------------------------------------------------------




--------------------------------------- Iteration      1(   7)  ---------------------------------------


    POTLOK:  cpu time    0.1391: real time    0.1464
    SETDIJ:  cpu time    0.0099: real time    0.0102
     EDDAV:  cpu time   12.9543: real time   13.0339
 BZINTS: Fermi energy: -4.085351;303.000000 electrons
         Band energy:***********;  BLOECHL correction: -0.009313
       DOS:  cpu time    0.0118: real time    0.0118
    CHARGE:  cpu time    0.1714: real time    0.1753
    MIXING:  cpu time    0.0037: real time    0.0046
    --------------------------------------------
      LOOP:  cpu time   13.2903: real time   13.3822

 eigenvalue-minimisations  :  4944
 total energy-change (2. order) : 0.4633275E+02  (-0.6405512E+01)
 number of electron     303.0000006 magnetization       0.6452089
 augmentation part       14.5203464 magnetization       0.3846119

 Broyden mixing:
  rms(total) = 0.26710E+01    rms(broyden)= 0.26703E+01
  rms(prec ) = 0.29448E+01
  weight for this iteration     100.00

 eigenvalues of (default mixing * dielectric matrix)
  average eigenvalue GAMMA=   0.6282
  0.9364  0.3200

 Free energy of the ion-electron system (eV)
  ---------------------------------------------------
  alpha Z        PSCENC =       167.26811561
  Ewald energy   TEWEN  =     28891.79666841
  -Hartree energ DENC   =    -39087.36248927
  -exchange      EXHF   =         0.00000000
  -V(xc)+E(xc)   XCENC  =      1039.47653349
  PAW double counting   =     14474.49872919   -14570.26753355
  entropy T*S    EENTRO =         0.00000000
  eigenvalues    EBANDS =     -4233.44203641
  atomic energy  EATOM  =     12644.75315347
  Solvation  Ediel_sol  =         0.00000000
  ---------------------------------------------------
  free energy    TOTEN  =      -673.27885905 eV

  energy without entropy =     -673.27885905  energy(sigma->0) =     -673.27885905


--------------------------------------------------------------------------------------------------------




--------------------------------------- Iteration      1(   8)  ---------------------------------------


    POTLOK:  cpu time    0.1652: real time    0.1677
    SETDIJ:  cpu time    0.0086: real time    0.0086
     EDDAV:  cpu time   12.8700: real time   12.9392
 BZINTS: Fermi energy: -2.516638;303.000000 electrons
         Band energy:***********;  BLOECHL correction: -0.035719
       DOS:  cpu time    0.0116: real time    0.0117
    CHARGE:  cpu time    0.1682: real time    0.1699
    MIXING:  cpu time    0.0037: real time    0.0043
    --------------------------------------------
      LOOP:  cpu time   13.2274: real time   13.3014

 eigenvalue-minimisations  :  4864
 total energy-change (2. order) : 0.3341281E+01  (-0.3832343E+01)
 number of electron     302.9999979 magnetization       0.1902080
 augmentation part       12.2269945 magnetization       0.1775557

 Broyden mixing:
  rms(total) = 0.26464E+01    rms(broyden)= 0.26457E+01
  rms(prec ) = 0.31225E+01
  weight for this iteration     100.00

 eigenvalues of (default mixing * dielectric matrix)
  average eigenvalue GAMMA=   1.1183
  2.5664  0.3942  0.3942

 Free energy of the ion-electron system (eV)
  ---------------------------------------------------
  alpha Z        PSCENC =       167.26811561
  Ewald energy   TEWEN  =     28891.79666841
  -Hartree energ DENC   =    -39374.11980551
  -exchange      EXHF   =         0.00000000
  -V(xc)+E(xc)   XCENC  =      1049.21433282
  PAW double counting   =     18127.09650099   -18226.09186203
  entropy T*S    EENTRO =         0.00000000
  eigenvalues    EBANDS =     -3949.85468153
  atomic energy  EATOM  =     12644.75315347
  Solvation  Ediel_sol  =         0.00000000
  ---------------------------------------------------
  free energy    TOTEN  =      -669.93757776 eV

  energy without entropy =     -669.93757776  energy(sigma->0) =     -669.93757776


--------------------------------------------------------------------------------------------------------




--------------------------------------- Iteration      1(   9)  ---------------------------------------


    POTLOK:  cpu time    0.1451: real time    0.1473
    SETDIJ:  cpu time    0.0101: real time    0.0101
     EDDAV:  cpu time   12.2728: real time   12.3343
 BZINTS: Fermi energy: -2.813108;303.000000 electrons
         Band energy:***********;  BLOECHL correction: -0.084943
       DOS:  cpu time    0.0106: real time    0.0107
    CHARGE:  cpu time    0.1698: real time    0.1708
    MIXING:  cpu time    0.0037: real time    0.0037
    --------------------------------------------
      LOOP:  cpu time   12.6121: real time   12.6769

 eigenvalue-minimisations  :  4600
 total energy-change (2. order) : 0.5240467E+01  (-0.2577376E+01)
 number of electron     303.0000012 magnetization      -0.1279654
 augmentation part       15.0387024 magnetization      -0.1436745

 Broyden mixing:
  rms(total) = 0.21162E+01    rms(broyden)= 0.21147E+01
  rms(prec ) = 0.27248E+01
  weight for this iteration     100.00

 eigenvalues of (default mixing * dielectric matrix)
  average eigenvalue GAMMA=   1.0570
  2.7325  0.7914  0.3521  0.3521

 Free energy of the ion-electron system (eV)
  ---------------------------------------------------
  alpha Z        PSCENC =       167.26811561
  Ewald energy   TEWEN  =     28891.79666841
  -Hartree energ DENC   =    -39794.71278194
  -exchange      EXHF   =         0.00000000
  -V(xc)+E(xc)   XCENC  =      1064.50426209
  PAW double counting   =     25933.22018995   -26035.62772678
  entropy T*S    EENTRO =         0.00000000
  eigenvalues    EBANDS =     -3535.89899158
  atomic energy  EATOM  =     12644.75315347
  Solvation  Ediel_sol  =         0.00000000
  ---------------------------------------------------
  free energy    TOTEN  =      -664.69711076 eV

  energy without entropy =     -664.69711076  energy(sigma->0) =     -664.69711076


--------------------------------------------------------------------------------------------------------




--------------------------------------- Iteration      1(  10)  ---------------------------------------


    POTLOK:  cpu time    0.1449: real time    0.1476
    SETDIJ:  cpu time    0.0101: real time    0.0102
     EDDAV:  cpu time   13.4473: real time   13.6105
 BZINTS: Fermi energy: -1.266620;303.000000 electrons
         Band energy:***********;  BLOECHL correction: -0.053578
       DOS:  cpu time    0.0118: real time    0.0119
    CHARGE:  cpu time    0.1674: real time    0.1682
    MIXING:  cpu time    0.0038: real time    0.0038
    --------------------------------------------
      LOOP:  cpu time   13.7852: real time   13.9521

 eigenvalue-minimisations  :  5192
 total energy-change (2. order) : 0.2671392E+01  (-0.2039098E+01)
 number of electron     303.0000002 magnetization      -0.1182622
 augmentation part       12.6666009 magnetization      -0.0875349

 Broyden mixing:
  rms(total) = 0.11153E+01    rms(broyden)= 0.11133E+01
  rms(prec ) = 0.13033E+01
  weight for this iteration     100.00

 eigenvalues of (default mixing * dielectric matrix)
  average eigenvalue GAMMA=   1.1743
  3.3977  1.1783  0.6353  0.3301  0.3301

 Free energy of the ion-electron system (eV)
  ---------------------------------------------------
  alpha Z        PSCENC =       167.26811561
  Ewald energy   TEWEN  =     28891.79666841
  -Hartree energ DENC   =    -39826.08177413
  -exchange      EXHF   =         0.00000000
  -V(xc)+E(xc)   XCENC  =      1065.71319340
  PAW double counting   =     27802.68504862   -27905.55852663
  entropy T*S    EENTRO =         0.00000000
  eigenvalues    EBANDS =     -3502.60159751
  atomic energy  EATOM  =     12644.75315347
  Solvation  Ediel_sol  =         0.00000000
  ---------------------------------------------------
  free energy    TOTEN  =      -662.02571876 eV

  energy without entropy =     -662.02571876  energy(sigma->0) =     -662.02571876


--------------------------------------------------------------------------------------------------------




--------------------------------------- Iteration      1(  11)  ---------------------------------------


    POTLOK:  cpu time    0.1431: real time    0.1452
    SETDIJ:  cpu time    0.0099: real time    0.0100
     EDDAV:  cpu time   13.7092: real time   13.7902
 BZINTS: Fermi energy: -1.717722;303.000000 electrons
         Band energy:***********;  BLOECHL correction: -0.013996
       DOS:  cpu time    0.0123: real time    0.0125
    CHARGE:  cpu time    0.1670: real time    0.1679
    MIXING:  cpu time    0.0036: real time    0.0036
    --------------------------------------------
      LOOP:  cpu time   14.0452: real time   14.1295

 eigenvalue-minimisations  :  5320
 total energy-change (2. order) : 0.5458850E+00  (-0.1245566E+00)
 number of electron     303.0000007 magnetization      -0.7232640
 augmentation part       13.4285162 magnetization      -0.3501016

 Broyden mixing:
  rms(total) = 0.71120E+00    rms(broyden)= 0.71015E+00
  rms(prec ) = 0.72931E+00
  weight for this iteration     100.00

 eigenvalues of (default mixing * dielectric matrix)
  average eigenvalue GAMMA=   1.1381
  3.4234  1.4151  0.9645  0.3409  0.3409  0.3442

 Free energy of the ion-electron system (eV)
  ---------------------------------------------------
  alpha Z        PSCENC =       167.26811561
  Ewald energy   TEWEN  =     28891.79666841
  -Hartree energ DENC   =    -39812.01282968
  -exchange      EXHF   =         0.00000000
  -V(xc)+E(xc)   XCENC  =      1065.52475385
  PAW double counting   =     29559.19402782   -29661.57873852
  entropy T*S    EENTRO =         0.00000000
  eigenvalues    EBANDS =     -3516.42498469
  atomic energy  EATOM  =     12644.75315347
  Solvation  Ediel_sol  =         0.00000000
  ---------------------------------------------------
  free energy    TOTEN  =      -661.47983373 eV

  energy without entropy =     -661.47983373  energy(sigma->0) =     -661.47983373


--------------------------------------------------------------------------------------------------------




--------------------------------------- Iteration      1(  12)  ---------------------------------------


    POTLOK:  cpu time    0.1582: real time    0.1606
    SETDIJ:  cpu time    0.0108: real time    0.0114
     EDDAV:  cpu time   12.1638: real time   12.2343
 BZINTS: Fermi energy: -1.995345;303.000000 electrons
         Band energy:***********;  BLOECHL correction: -0.000107
       DOS:  cpu time    0.0113: real time    0.0114
    CHARGE:  cpu time    0.2090: real time    0.2105
    MIXING:  cpu time    0.0041: real time    0.0041
    --------------------------------------------
      LOOP:  cpu time   12.5572: real time   12.6322

 eigenvalue-minimisations  :  4560
 total energy-change (2. order) :-0.3248382E+00  (-0.6552401E-01)
 number of electron     303.0000006 magnetization      -0.8854961
 augmentation part       13.6796468 magnetization      -0.5969559

 Broyden mixing:
  rms(total) = 0.65155E+00    rms(broyden)= 0.65113E+00
  rms(prec ) = 0.72118E+00
  weight for this iteration     100.00

 eigenvalues of (default mixing * dielectric matrix)
  average eigenvalue GAMMA=   1.1874
  3.5448  1.4128  1.4128  0.6396  0.6396  0.3310  0.3310

 Free energy of the ion-electron system (eV)
  ---------------------------------------------------
  alpha Z        PSCENC =       167.26811561
  Ewald energy   TEWEN  =     28891.79666841
  -Hartree energ DENC   =    -39768.35668555
  -exchange      EXHF   =         0.00000000
  -V(xc)+E(xc)   XCENC  =      1064.28977273
  PAW double counting   =     30614.34745734   -30715.99207629
  entropy T*S    EENTRO =         0.00000000
  eigenvalues    EBANDS =     -3559.91107763
  atomic energy  EATOM  =     12644.75315347
  Solvation  Ediel_sol  =         0.00000000
  ---------------------------------------------------
  free energy    TOTEN  =      -661.80467190 eV

  energy without entropy =     -661.80467190  energy(sigma->0) =     -661.80467190


--------------------------------------------------------------------------------------------------------




--------------------------------------- Iteration      1(  13)  ---------------------------------------


    POTLOK:  cpu time    0.1447: real time    0.1470
    SETDIJ:  cpu time    0.0105: real time    0.0105
     EDDAV:  cpu time   13.4664: real time   13.5428
 BZINTS: Fermi energy: -2.071940;303.000000 electrons
         Band energy:***********;  BLOECHL correction:  0.000000
       DOS:  cpu time    0.0054: real time    0.0054
    CHARGE:  cpu time    0.1663: real time    0.1674
    MIXING:  cpu time    0.0040: real time    0.0040
    --------------------------------------------
      LOOP:  cpu time   13.7974: real time   13.8770

 eigenvalue-minimisations  :  5056
 total energy-change (2. order) :-0.1322218E+00  (-0.3400021E-01)
 number of electron     303.0000003 magnetization      -0.9015885
 augmentation part       13.6474432 magnetization      -0.8445435

 Broyden mixing:
  rms(total) = 0.44407E+00    rms(broyden)= 0.44397E+00
  rms(prec ) = 0.51217E+00
  weight for this iteration     100.00

 eigenvalues of (default mixing * dielectric matrix)
  average eigenvalue GAMMA=   1.3338
  3.6806  1.9769  1.9769  0.9053  0.9053  0.3315  0.3315  0.5623

 Free energy of the ion-electron system (eV)
  ---------------------------------------------------
  alpha Z        PSCENC =       167.26811561
  Ewald energy   TEWEN  =     28891.79666841
  -Hartree energ DENC   =    -39746.73183830
  -exchange      EXHF   =         0.00000000
  -V(xc)+E(xc)   XCENC  =      1063.87019273
  PAW double counting   =     31572.00081274   -31673.20288698
  entropy T*S    EENTRO =         0.00000000
  eigenvalues    EBANDS =     -3581.69111141
  atomic energy  EATOM  =     12644.75315347
  Solvation  Ediel_sol  =         0.00000000
  ---------------------------------------------------
  free energy    TOTEN  =      -661.93689373 eV

  energy without entropy =     -661.93689373  energy(sigma->0) =     -661.93689373


--------------------------------------------------------------------------------------------------------




--------------------------------------- Iteration      1(  14)  ---------------------------------------


    POTLOK:  cpu time    0.1435: real time    0.1461
    SETDIJ:  cpu time    0.0098: real time    0.0099
     EDDAV:  cpu time   12.6280: real time   12.6978
 BZINTS: Fermi energy: -2.089054;303.000000 electrons
         Band energy:***********;  BLOECHL correction:  0.000000
       DOS:  cpu time    0.0058: real time    0.0059
    CHARGE:  cpu time    0.1632: real time    0.1640
    MIXING:  cpu time    0.0043: real time    0.0044
    --------------------------------------------
      LOOP:  cpu time   12.9546: real time   13.0282

 eigenvalue-minimisations  :  4664
 total energy-change (2. order) :-0.4122142E-01  (-0.1341318E-01)
 number of electron     303.0000001 magnetization      -0.8961699
 augmentation part       13.6242737 magnetization      -0.9890926

 Broyden mixing:
  rms(total) = 0.35421E+00    rms(broyden)= 0.35415E+00
  rms(prec ) = 0.42124E+00
  weight for this iteration     100.00

 eigenvalues of (default mixing * dielectric matrix)
  average eigenvalue GAMMA=   1.3825
  3.5445  2.4062  2.4062  1.0503  1.0503  0.3314  0.3314  0.6958  0.6265

 Free energy of the ion-electron system (eV)
  ---------------------------------------------------
  alpha Z        PSCENC =       167.26811561
  Ewald energy   TEWEN  =     28891.79666841
  -Hartree energ DENC   =    -39743.62369851
  -exchange      EXHF   =         0.00000000
  -V(xc)+E(xc)   XCENC  =      1063.90106266
  PAW double counting   =     31823.65259127   -31924.71846809
  entropy T*S    EENTRO =         0.00000000
  eigenvalues    EBANDS =     -3585.00753998
  atomic energy  EATOM  =     12644.75315347
  Solvation  Ediel_sol  =         0.00000000
  ---------------------------------------------------
  free energy    TOTEN  =      -661.97811514 eV

  energy without entropy =     -661.97811514  energy(sigma->0) =     -661.97811514


--------------------------------------------------------------------------------------------------------




--------------------------------------- Iteration      1(  15)  ---------------------------------------


    POTLOK:  cpu time    0.1641: real time    0.1666
    SETDIJ:  cpu time    0.0101: real time    0.0102
     EDDAV:  cpu time   12.6215: real time   12.6980
 BZINTS: Fermi energy: -2.080668;303.000000 electrons
         Band energy:***********;  BLOECHL correction: -0.001185
       DOS:  cpu time    0.0104: real time    0.0104
    CHARGE:  cpu time    0.1624: real time    0.1629
    MIXING:  cpu time    0.0044: real time    0.0044
    --------------------------------------------
      LOOP:  cpu time   12.9729: real time   13.0525

 eigenvalue-minimisations  :  4840
 total energy-change (2. order) : 0.2305582E-01  (-0.6456153E-02)
 number of electron     303.0000000 magnetization      -0.9304135
 augmentation part       13.5682657 magnetization      -1.1031761

 Broyden mixing:
  rms(total) = 0.25165E+00    rms(broyden)= 0.25161E+00
  rms(prec ) = 0.30560E+00
  weight for this iteration     100.00

 eigenvalues of (default mixing * dielectric matrix)
  average eigenvalue GAMMA=   1.3358
  3.5316  2.4195  2.4195  1.2011  1.2011  0.3315  0.3315  0.6908  0.6908  0.5405

 Free energy of the ion-electron system (eV)
  ---------------------------------------------------
  alpha Z        PSCENC =       167.26811561
  Ewald energy   TEWEN  =     28891.79666841
  -Hartree energ DENC   =    -39742.31158935
  -exchange      EXHF   =         0.00000000
  -V(xc)+E(xc)   XCENC  =      1063.94522980
  PAW double counting   =     31808.09461870   -31909.10611674
  entropy T*S    EENTRO =         0.00000000
  eigenvalues    EBANDS =     -3586.39513923
  atomic energy  EATOM  =     12644.75315347
  Solvation  Ediel_sol  =         0.00000000
  ---------------------------------------------------
  free energy    TOTEN  =      -661.95505932 eV

  energy without entropy =     -661.95505932  energy(sigma->0) =     -661.95505932


--------------------------------------------------------------------------------------------------------




--------------------------------------- Iteration      1(  16)  ---------------------------------------


    POTLOK:  cpu time    0.1469: real time    0.1495
    SETDIJ:  cpu time    0.0102: real time    0.0102
     EDDAV:  cpu time   12.5531: real time   12.6386
 BZINTS: Fermi energy: -2.064449;303.000000 electrons
         Band energy:***********;  BLOECHL correction: -0.001872
       DOS:  cpu time    0.0095: real time    0.0095
    CHARGE:  cpu time    0.1643: real time    0.1679
    MIXING:  cpu time    0.0045: real time    0.0053
    --------------------------------------------
      LOOP:  cpu time   12.8883: real time   12.9808

 eigenvalue-minimisations  :  4664
 total energy-change (2. order) : 0.1057913E-01  (-0.8956932E-03)
 number of electron     303.0000000 magnetization      -0.9491156
 augmentation part       13.5438622 magnetization      -1.1287526

 Broyden mixing:
  rms(total) = 0.21272E+00    rms(broyden)= 0.21272E+00
  rms(prec ) = 0.25868E+00
  weight for this iteration     100.00

 eigenvalues of (default mixing * dielectric matrix)
  average eigenvalue GAMMA=   1.3519
  3.5544  2.6307  2.6307  1.0716  1.0716  0.9464  0.9464  0.3315  0.3315  0.7622
  0.5937

 Free energy of the ion-electron system (eV)
  ---------------------------------------------------
  alpha Z        PSCENC =       167.26811561
  Ewald energy   TEWEN  =     28891.79666841
  -Hartree energ DENC   =    -39741.90476278
  -exchange      EXHF   =         0.00000000
  -V(xc)+E(xc)   XCENC  =      1063.94848308
  PAW double counting   =     31822.55019871   -31923.53963772
  entropy T*S    EENTRO =         0.00000000
  eigenvalues    EBANDS =     -3586.81669898
  atomic energy  EATOM  =     12644.75315347
  Solvation  Ediel_sol  =         0.00000000
  ---------------------------------------------------
  free energy    TOTEN  =      -661.94448019 eV

  energy without entropy =     -661.94448019  energy(sigma->0) =     -661.94448019


[...]
   0.724E+01 -.639E+00 0.443E+01   -.711E+01 0.588E+00 -.439E+01   -.101E+00 -.288E-01 -.510E-01   -.113E-01 0.338E-03 -.167E-02
   0.287E+02 0.878E+01 0.148E+02   -.278E+02 -.905E+01 -.153E+02   -.994E+00 0.503E+00 0.619E+00   -.611E-01 -.212E-01 -.219E-01
   0.287E+02 -.897E+01 0.152E+02   -.278E+02 0.919E+01 -.157E+02   -.953E+00 -.428E+00 0.618E+00   -.622E-01 0.204E-01 -.219E-01
   -.280E+02 0.783E+01 0.145E+02   0.270E+02 -.800E+01 -.151E+02   0.105E+01 0.396E+00 0.570E+00   0.611E-01 -.216E-01 -.221E-01
   -.272E+02 -.930E+01 0.146E+02   0.262E+02 0.958E+01 -.152E+02   0.962E+00 -.486E+00 0.575E+00   0.606E-01 0.182E-01 -.217E-01
   -.726E+01 -.138E+01 0.708E+01   0.704E+01 0.160E+01 -.703E+01   0.212E+00 -.155E+00 -.494E-01   0.783E-02 -.308E-02 -.141E-02
   -.742E+01 -.218E+01 0.708E+01   0.725E+01 0.223E+01 -.704E+01   0.158E+00 -.115E+00 -.392E-01   0.988E-02 -.244E-02 -.146E-02
   -.454E+01 -.574E+01 0.768E+01   0.448E+01 0.583E+01 -.772E+01   0.772E-01 -.271E-01 0.390E-01   0.452E-02 0.253E-03 -.106E-02
   -.245E+01 -.338E+01 0.685E+01   0.242E+01 0.337E+01 -.683E+01   0.591E-01 -.537E-01 -.184E-01   0.332E-02 0.198E-02 -.847E-03
   0.557E+01 -.521E+01 0.574E+01   -.550E+01 0.523E+01 -.577E+01   -.964E-01 0.133E-01 0.270E-01   -.455E-02 0.121E-02 -.119E-02
   0.379E+01 -.330E+01 0.542E+01   -.384E+01 0.323E+01 -.540E+01   0.200E-01 0.300E-01 -.237E-01   -.285E-02 0.371E-02 -.948E-03
   0.155E+02 -.755E+01 0.695E+01   -.151E+02 0.727E+01 -.703E+01   -.275E+00 0.236E+00 0.112E+00   -.176E-01 0.747E-02 -.340E-02
   0.644E+01 -.995E+01 0.749E+01   -.636E+01 0.977E+01 -.747E+01   -.116E+00 0.174E+00 -.286E-01   -.108E-01 0.847E-02 -.185E-02
   -.608E+01 -.366E+02 0.272E+02   0.126E+02 0.326E+02 -.264E+02   -.617E+01 0.376E+01 -.885E+00   -.807E-01 0.925E-01 -.561E-01
   -.531E-01 -.167E+02 0.131E+02   0.410E+00 0.154E+02 -.134E+02   -.327E+00 0.135E+01 0.221E+00   -.157E-01 0.420E-01 -.125E-01
   0.448E+01 -.363E+02 0.244E+02   -.109E+02 0.324E+02 -.235E+02   0.612E+01 0.369E+01 -.955E+00   0.826E-01 0.899E-01 -.558E-01
   -.114E+00 -.194E+02 0.121E+02   -.101E+00 0.181E+02 -.124E+02   0.177E+00 0.124E+01 0.244E+00   0.159E-01 0.374E-01 -.121E-01
   -.153E+02 -.819E+01 0.843E+01   0.148E+02 0.801E+01 -.852E+01   0.344E+00 0.146E+00 0.117E+00   0.158E-01 0.439E-02 -.311E-02
   -.727E+01 -.112E+02 0.843E+01   0.714E+01 0.112E+02 -.840E+01   0.186E+00 0.771E-01 -.347E-01   0.101E-01 0.731E-02 -.171E-02
   -.349E+01 -.358E+01 0.822E+01   0.339E+01 0.357E+01 -.825E+01   0.228E-01 0.373E-02 0.310E-01   0.503E-02 0.338E-02 -.860E-03
   -.289E+01 -.339E+01 0.796E+01   0.301E+01 0.341E+01 -.796E+01   -.117E+00 -.295E-01 0.575E-02   0.156E-02 0.119E-03 -.652E-03
   0.470E+00 -.201E+01 0.628E+01   -.503E+00 0.202E+01 -.630E+01   0.370E-01 -.234E-01 0.249E-01   0.149E-02 0.245E-02 -.785E-03
   0.540E+00 -.962E+00 0.617E+01   -.634E+00 0.980E+00 -.616E+01   0.118E+00 -.354E-01 -.160E-01   0.215E-02 -.936E-03 -.702E-03
   0.492E+01 -.310E+01 0.673E+01   -.490E+01 0.295E+01 -.676E+01   0.521E-01 0.169E+00 0.207E-01   -.584E-02 0.352E-02 -.964E-03
   0.590E+01 -.175E+01 0.704E+01   -.637E+01 0.153E+01 -.705E+01   0.458E+00 0.186E+00 0.579E-02   -.964E-03 0.226E-02 -.741E-03
   0.259E+01 -.689E+01 0.106E+02   -.206E+01 0.592E+01 -.107E+02   -.522E+00 0.950E+00 0.817E-01   -.684E-02 0.153E-01 -.242E-02
   0.734E+01 0.361E+01 0.901E+01   -.833E+01 -.475E+01 -.905E+01   0.957E+00 0.114E+01 0.411E-01   -.259E-02 0.837E-02 -.836E-03
   -.300E+01 -.739E+01 0.672E+01   0.304E+01 0.598E+01 -.636E+01   -.139E-01 0.137E+01 -.365E+00   -.188E-02 0.322E-01 -.789E-02
   -.407E+01 0.945E+00 0.733E+01   0.511E+01 -.241E+01 -.732E+01   -.105E+01 0.149E+01 0.176E-02   -.608E-03 0.944E-02 -.159E-02
   -.174E+01 -.839E+01 0.104E+02   0.126E+01 0.793E+01 -.105E+02   0.426E+00 0.467E+00 0.815E-01   0.838E-02 0.119E-01 -.232E-02
   -.632E+01 -.423E+01 0.880E+01   0.672E+01 0.381E+01 -.883E+01   -.352E+00 0.411E+00 0.300E-01   0.229E-03 0.935E-02 -.825E-03
   -.214E+01 -.110E+00 -.609E+03   0.229E+01 0.173E+00 0.590E+03   -.182E+00 -.801E-01 0.191E+02   0.511E-02 0.119E-01 -.118E+00
   -.637E+02 -.144E+03 0.107E+03   0.710E+02 0.160E+03 -.126E+03   -.774E+01 -.175E+02 0.204E+02   -.216E-03 -.345E-03 0.102E-01
   0.557E+02 0.126E+03 -.140E+03   -.714E+02 -.162E+03 0.181E+03   0.162E+02 0.365E+02 -.426E+02   0.486E-03 0.127E-02 0.493E-02
 -----------------------------------------------------------------------------------------------
   -.845E+01 -.187E+02 0.367E+01   0.142E-13 0.483E-12 0.142E-12   0.845E+01 0.187E+02 -.311E+01   -.123E-02 0.134E-01 -.557E+00
 
 
 POSITION                                       TOTAL-FORCE (eV/Angst)
 -----------------------------------------------------------------------------------
      0.00088      0.00004      7.25370        -0.043661      0.014352      0.002869
     -0.00491      1.42113      7.25508         0.020990     -0.034061      0.002796
      2.48079      0.02665      7.25232        -0.013823      0.018577     -0.001570
      2.47905      1.44717      7.26290         0.046880     -0.010929     -0.000555
      4.95289      0.02772      7.25535        -0.002494      0.004277     -0.005985
      4.95959      1.44682      7.26489        -0.041125     -0.018915     -0.004010
     -0.00049     12.75288      7.25480         0.031407      0.025779      0.003081
      7.44361      1.41628      7.25391         0.022232     -0.017502      0.004140
      2.47854     12.74120      7.26391         0.045700      0.045926      0.005654
      9.91003      1.39338      7.25277         0.034803     -0.031808      0.003779
      4.95444     12.72636      7.26471        -0.048855      0.048536     -0.001842
     12.36691      1.38926      7.25509         0.005942     -0.029560     -0.006033
     13.60499      2.11241      7.25656         0.011267      0.018347     -0.003574
     -1.25102      3.52833      7.26664         0.078840     -0.010157     -0.004515
      1.23573      2.14451      7.26462        -0.020700      0.005391      0.004300
      1.23512      3.56767      7.29019         0.034020     -0.022657     -0.005683
      3.71911      2.17188      7.28024        -0.015655     -0.045731      0.001663
      3.71719      3.59006      7.32744         0.022937     -0.003461     -0.007614
      6.20443      2.14485      7.26510        -0.017035      0.015574      0.001057
      6.19989      3.56628      7.29001        -0.017498     -0.036120     -0.009568
      8.68813      2.10494      7.25298        -0.026587      0.029843      0.003463
      8.69005      3.52028      7.26016        -0.069308     -0.015520      0.002638
     11.13291      2.09618      7.25363        -0.030235      0.015814     -0.001932
     11.13540      3.51591      7.25571         0.013442      0.004187     -0.002346
     12.37300      4.22869      7.26416        -0.045957      0.062326     -0.005089
     -2.48936      5.65649      7.27091        -0.037024     -0.035812     -0.011272
     -0.01632      4.24590      7.28920        -0.085360     -0.019953     -0.001237
     -0.04166      5.66150      7.31496         0.052278      0.016529      0.032635
      2.47296      4.30977      7.34025         0.019468     -0.023024      0.003754
      2.42510      5.72222      7.43010         0.309280      0.112937     -0.072421
      4.96192      4.30973      7.34327        -0.039902     -0.013107      0.005178
      5.00821      5.72171      7.43567        -0.265472      0.102693     -0.085118
      7.45120      4.23726      7.28381         0.066051      0.009448      0.001262
      7.47557      5.65675      7.30697        -0.027849      0.023887      0.031534
      9.91426      4.23969      7.25793         0.035422      0.052479      0.001298
      9.92023      5.65979      7.26301         0.025626     -0.042712     -0.003874
     -3.71157      6.37466      7.26336        -0.005210     -0.011947     -0.004785
     -3.71216      7.79668      7.26340         0.014616     -0.012651     -0.003003
     -1.26925      6.37313      7.29380         0.014034      0.085094     -0.005549
     -1.26728      7.79836      7.29371         0.016742     -0.077768     -0.009049
      1.17922      6.36901      7.36818        -0.155497      0.198347      0.003224
      1.18020      7.80634      7.36752        -0.148824     -0.177414      0.007807
      6.25600      6.36631      7.36665         0.111873      0.198237      0.005436
      6.25399      7.80462      7.36663         0.117284     -0.181659      0.001269
      8.69936      6.37444      7.28246         0.002931      0.054781     -0.002070
      8.69964      7.79614      7.28242        -0.005444     -0.073461     -0.001642
     -4.93809      8.51108      7.26305         0.017852      0.061478     -0.001548
     -4.94415      9.93659      7.25783         0.035124     -0.061350     -0.001432
     -2.48595      8.51197      7.27091        -0.026183      0.039252     -0.010263
     -2.47931      9.93642      7.26398        -0.026169     -0.034305     -0.006339
     -0.03906      8.51436      7.31412         0.057007     -0.036986      0.029392
     -0.01188      9.93265      7.28902        -0.046708      0.010744     -0.004187
      2.42650      8.45329      7.43102         0.296250     -0.090996     -0.083312
      2.47249      9.86812      7.34013         0.027747      0.020228      0.008122
      5.00482      8.45393      7.43689        -0.274519     -0.138876     -0.092641
      4.95726      9.86768      7.34278        -0.034776      0.023713      0.004941
      7.47161      8.51086      7.30684        -0.053125     -0.028088      0.026732
      7.44616      9.92765      7.28369         0.063048      0.015582     -0.002110
     -6.17884     10.64490      7.25965        -0.080311     -0.002736      0.000414
     -6.18368     12.06454      7.25216         0.002495     -0.013726     -0.000841
     -3.71215     10.65018      7.25540         0.005898     -0.001286     -0.001882
     -3.71246     12.07225      7.25347         0.026131     -0.017210     -0.003343
     -1.24546     10.64349      7.26646         0.063889      0.024753     -0.005674
     -1.24073     12.06465      7.25647        -0.008946     -0.031459     -0.005294
      1.24317     10.61423      7.29030         0.006139     -0.006746     -0.004303
      1.24257     12.04269      7.26478        -0.031818      0.009618      0.003866
      3.70953     10.59184      7.32685         0.030270     -0.007626     -0.008286
      3.71308     12.01515      7.28094        -0.017094      0.036630      0.005800
      6.19405     10.60560      7.28980        -0.049313      0.021252     -0.003980
      6.19157     12.03088      7.26505         0.042197     -0.003255     -0.002192
      3.71302      7.08855      8.11066        -0.015018     -0.004707      0.296922
      3.71302      7.08855     14.09066        -0.489656     -1.106308      1.270765
      3.39201      6.36271     14.93600         0.489037      1.104978     -1.277827
 -----------------------------------------------------------------------------------
    total drift:                               -0.001978     -0.005042      0.003606


--------------------------------------------------------------------------------------------------------



  FREE ENERGIE OF THE ION-ELECTRON SYSTEM (eV)
  ---------------------------------------------------
  free  energy   TOTEN  =      -668.33013526 eV

  energy  without entropy=     -668.33013526  energy(sigma->0) =     -668.33013526
 


--------------------------------------------------------------------------------------------------------


    POTLOK:  cpu time    0.1493: real time    0.1502


--------------------------------------------------------------------------------------------------------


 stress matrix after NEB project (eV)
     -1.68762     -0.56424      0.38758
     -0.56424     -3.71416      0.90349
      0.38758      0.90349     -4.27073
  FORCES: max atom, RMS     1.758686    0.310628
  FORCE total and by dimension    2.654003    1.277827
  Stress total and by dimension    6.119800    4.270729
     LOOP+:  cpu time  302.2878: real time  304.3331
    4ORBIT:  cpu time    0.0000: real time    0.0000
 


 total charge     
 
# of ion       s       p       d       tot
------------------------------------------
    1        0.864   1.780   0.000   2.644
    2        0.863   1.779   0.000   2.642
    3        0.865   1.784   0.000   2.649
    4        0.863   1.782   0.000   2.645
    5        0.865   1.783   0.000   2.648
    6        0.863   1.781   0.000   2.644
    7        0.865   1.785   0.000   2.650
    8        0.861   1.787   0.000   2.648
    9        0.852   1.748   0.000   2.600
   10        1.210   2.697   0.000   3.906
   11        0.865   1.787   0.000   2.652
   12        0.862   1.790   0.000   2.652
   13        0.863   1.786   0.000   2.649
   14        0.866   1.793   0.000   2.660
   15        0.863   1.778   0.000   2.641
   16        0.864   1.772   0.000   2.636
   17        0.862   1.771   0.000   2.634
   18        0.864   1.771   0.000   2.635
   19        0.862   1.778   0.000   2.640
   20        0.864   1.775   0.000   2.639
   21        0.853   1.754   0.000   2.607
   22        0.863   1.796   0.000   2.659
   23        0.852   1.754   0.000   2.607
   24        0.863   1.794   0.000   2.658
   25        0.863   1.788   0.000   2.651
   26        0.867   1.795   0.000   2.662
   27        0.866   1.790   0.000   2.656
   28        0.871   1.803   0.000   2.674
   29        0.862   1.759   0.000   2.621
   30        0.875   1.690   0.000   2.565
   31        0.862   1.759   0.000   2.620
   32        0.875   1.689   0.000   2.563
   33        0.865   1.788   0.000   2.653
   34        0.870   1.802   0.000   2.672
   35        0.866   1.794   0.000   2.661
   36        0.867   1.801   0.000   2.669
   37        0.868   1.796   0.000   2.663
   38        0.867   1.797   0.000   2.663
   39        0.867   1.796   0.000   2.663
   40        0.867   1.797   0.000   2.664
   41        0.876   1.787   0.000   2.664
   42        0.877   1.786   0.000   2.663
   43        0.876   1.785   0.000   2.661
   44        0.876   1.786   0.000   2.662
   45        0.868   1.798   0.000   2.666
   46        0.868   1.799   0.000   2.666
   47        0.868   1.793   0.000   2.662
   48        0.864   1.790   0.000   2.655
   49        0.868   1.796   0.000   2.665
   50        0.865   1.791   0.000   2.655
   51        0.870   1.801   0.000   2.671
   52        0.866   1.788   0.000   2.653
   53        0.874   1.689   0.000   2.563
   54        0.862   1.763   0.000   2.626
   55        0.874   1.686   0.000   2.560
   56        0.861   1.757   0.000   2.617
   57        0.871   1.804   0.000   2.675
   58        0.866   1.791   0.000   2.657
   59        0.866   1.786   0.000   2.652
   60        0.865   1.789   0.000   2.653
   61        0.866   1.785   0.000   2.651
   62        0.864   1.788   0.000   2.652
   63        0.866   1.789   0.000   2.655
   64        0.864   1.793   0.000   2.657
   65        0.862   1.769   0.000   2.631
   66        0.861   1.788   0.000   2.649
   67        0.861   1.769   0.000   2.630
   68        0.860   1.780   0.000   2.640
   69        0.864   1.771   0.000   2.635
   70        0.863   1.785   0.000   2.648
   71        0.390   6.285   4.280  10.954
   72        1.036   1.403   0.000   2.439
   73        1.637   3.515   0.000   5.151
--------------------------------------------------
tot         63.990 136.631   4.280 204.901
 


 magnetization (x)
 
# of ion       s       p       d       tot
------------------------------------------
    1        0.000   0.002   0.000   0.002
    2        0.000   0.001   0.000   0.001
    3        0.000   0.003   0.000   0.003
    4        0.000   0.007   0.000   0.007
    5        0.000   0.003   0.000   0.003
    6        0.000   0.007   0.000   0.007
    7        0.000   0.004   0.000   0.004
    8        0.000   0.001   0.000   0.002
    9        0.001   0.013   0.000   0.014
   10        0.000   0.005   0.000   0.005
   11        0.001   0.009   0.000   0.010
   12       -0.000  -0.001   0.000  -0.001
   13        0.000   0.003   0.000   0.003
   14        0.000   0.004   0.000   0.004
   15        0.000   0.003   0.000   0.003
   16        0.001   0.004   0.000   0.005
   17       -0.001  -0.005   0.000  -0.006
   18        0.002   0.025   0.000   0.027
   19        0.000   0.003   0.000   0.003
   20        0.001   0.004   0.000   0.005
   21        0.000   0.006   0.000   0.006
   22        0.000   0.003   0.000   0.004
   23        0.000   0.008   0.000   0.008
   24       -0.000  -0.000   0.000  -0.001
   25        0.000   0.009   0.000   0.009
   26       -0.000  -0.000   0.000  -0.000
   27       -0.000  -0.001   0.000  -0.001
   28        0.000   0.003   0.000   0.004
   29       -0.001  -0.005   0.000  -0.006
   30        0.015   0.085   0.000   0.100
   31       -0.001  -0.005   0.000  -0.006
   32        0.015   0.083   0.000   0.098
   33       -0.000  -0.001   0.000  -0.001
   34        0.000   0.003   0.000   0.004
   35        0.001   0.015   0.000   0.015
   36       -0.000  -0.000   0.000  -0.001
   37        0.000   0.002   0.000   0.002
   38       -0.000   0.001   0.000   0.001
   39        0.001   0.010   0.000   0.010
   40        0.000   0.005   0.000   0.005
   41       -0.000   0.011   0.000   0.010
   42       -0.001   0.009   0.000   0.008
   43       -0.000   0.011   0.000   0.010
   44       -0.001   0.008   0.000   0.007
   45        0.001   0.010   0.000   0.011
   46        0.000   0.005   0.000   0.005
   47        0.000   0.005   0.000   0.005
   48        0.000   0.006   0.000   0.007
   49        0.000   0.003   0.000   0.003
   50        0.000   0.007   0.000   0.007
   51        0.000   0.004   0.000   0.005
   52       -0.000  -0.000   0.000  -0.001
   53        0.015   0.087   0.000   0.102
   54       -0.001  -0.008   0.000  -0.009
   55        0.015   0.086   0.000   0.101
   56       -0.001  -0.008   0.000  -0.009
   57        0.000   0.004   0.000   0.005
   58       -0.000  -0.001   0.000  -0.001
   59        0.000   0.006   0.000   0.006
   60       -0.000  -0.000   0.000  -0.000
   61       -0.000   0.001   0.000   0.000
   62        0.000   0.007   0.000   0.007
   63        0.000   0.006   0.000   0.007
   64       -0.000  -0.001   0.000  -0.001
   65        0.001   0.007   0.000   0.008
   66        0.000   0.002   0.000   0.002
   67        0.002   0.028   0.000   0.029
   68       -0.001  -0.007   0.000  -0.007
   69        0.001   0.007   0.000   0.008
   70        0.000   0.001   0.000   0.001
   71       -0.035   0.014  -1.963  -1.984
   72        0.000   0.000   0.000   0.000
   73       -0.000  -0.000   0.000  -0.000
--------------------------------------------------
tot          0.033   0.623  -1.963  -1.307
 
 BZINTS: Fermi energy: -1.986610;303.000000 electrons
         Band energy:***********;  BLOECHL correction: -0.005774

 total amount of memory used by VASP MPI-rank0   116094. kBytes
=======================================================================

   base      :      30000. kBytes
   nonl-proj :      27308. kBytes
   fftplans  :       4700. kBytes
   grid      :      15193. kBytes
   one-center:        217. kBytes
   wavefun   :      38676. kBytes
 
  
  
 General timing and accounting informations for this job:
 ========================================================
  
                  Total CPU time used (sec):      319.963
                            User time (sec):      315.045
                          System time (sec):        4.919
                         Elapsed time (sec):      330.206
  
                   Maximum memory used (kb):      475092.
                   Average memory used (kb):           0.
  
                          Minor page faults:       379163
                          Major page faults:            0
                 Voluntary context switches:         7991
