       N       E                     dE             d eps       ncg     rms          rms(c)
DAV:   1     0.261886514395E+04    0.26189E+04   -0.10556E+05  3984   0.116E+03
DAV:   2     0.908123362040E+01   -0.26098E+04   -0.25149E+04  4760   0.297E+02
DAV:   3    -0.504489107285E+03   -0.51357E+03   -0.50968E+03  4044   0.147E+02
DAV:   4    -0.525604717224E+03   -0.21116E+02   -0.20603E+02  4320   0.414E+01
DAV:   5    -0.526483058713E+03   -0.87834E+00   -0.86753E+00  4944   0.675E+00    0.414E+01
DAV:   6    -0.500007937386E+03    0.26475E+02   -0.54430E+01  4424   0.253E+01    0.257E+01
DAV:   7    -0.494901802977E+03    0.51061E+01   -0.44722E+01  4208   0.174E+01    0.165E+01
DAV:   8    -0.493010811083E+03    0.18910E+01   -0.15695E+01  4008   0.121E+01    0.114E+01
DAV:   9    -0.493201461291E+03   -0.19065E+00   -0.15090E+01  4880   0.955E+00    0.634E+00
DAV:  10    -0.492496506830E+03    0.70495E+00   -0.67242E+00  4672   0.831E+00    0.321E+00
DAV:  11    -0.492447971559E+03    0.48535E-01   -0.26290E+00  4552   0.395E+00    0.219E+00
DAV:  12    -0.492373608829E+03    0.74363E-01   -0.14159E+00  4776   0.263E+00    0.136E+00
DAV:  13    -0.492333462216E+03    0.40147E-01   -0.24931E-01  4056   0.138E+00    0.584E-01
DAV:  14    -0.492332421137E+03    0.10411E-02   -0.51962E-02  3904   0.606E-01    0.299E-01
DAV:  15    -0.492332295124E+03    0.12601E-03   -0.14181E-02  4160   0.323E-01    0.247E-01
DAV:  16    -0.492332124502E+03    0.17062E-03   -0.12777E-02  4472   0.240E-01    0.168E-01
DAV:  17    -0.492332396026E+03   -0.27152E-03   -0.12899E-02  4176   0.200E-01    0.163E-01
DAV:  18    -0.492331921652E+03    0.47437E-03   -0.60169E-03  3096   0.137E-01    0.522E-02
DAV:  19    -0.492331978442E+03   -0.56790E-04   -0.22392E-04  2400   0.396E-02
   1 F= -.49642342E+03 E0= -.49642342E+03  d E =0.000000E+00  mag=     0.0000
