 vasp.5.4.4.18Apr17-6-g9f103f2a35 (build Nov  8 2022 18:58:45) complex           
 executed on             LinuxGNU date 2023.04.13  15:54:03
 running on   48 total cores
 distrk:  each k-point on   48 cores,    1 groups
 distr:  one band on NCORES_PER_BAND=  12 cores,    4 groups


--------------------------------------------------------------------------------------------------------


 INCAR:
 POTCAR:    PAW_PBE C 08Apr2002                   
 POTCAR:    PAW_PBE N 08Apr2002                   
 POTCAR:    PAW_PBE Ge_d 03Jul2007                
 POTCAR:    PAW_PBE C 08Apr2002                   
 POTCAR:    PAW_PBE O 08Apr2002                   
 POTCAR:    PAW_PBE C 08Apr2002                   
   SHA256 =  253f7b50bb8d59471dbedb8285d89021f4a42ed1a2c5d38a03a736e69125dd95 C/
   COPYR  = (c) Copyright 08Apr2002 Georg Kresse                                
   COPYR  = This file is part of the software VASP. Any use, copying, and all ot
   COPYR  = If you do not have a valid VASP license, you may not use, copy or di
   VRHFIN =C: s2p2                                                              
   LEXCH  = PE                                                                  
   EATOM  =   147.1560 eV,   10.8157 Ry                                         
                                                                                
   TITEL  = PAW_PBE C 08Apr2002                                                 
   LULTRA =        F    use ultrasoft PP ?                                      
   IUNSCR =        1    unscreen: 0-lin 1-nonlin 2-no                           
   RPACOR =    1.200    partial core radius                                     
   POMASS =   12.011; ZVAL   =    4.000    mass and valenz                      
   RCORE  =    1.500    outmost cutoff radius                                   
   RWIGS  =    1.630; RWIGS  =    0.863    wigner-seitz radius (au A)           
   ENMAX  =  400.000; ENMIN  =  300.000 eV                                      
   ICORE  =        2    local potential                                         
   LCOR   =        T    correct aug charges                                     
   LPAW   =        T    paw PP                                                  
   EAUG   =  644.873                                                            
   DEXC   =    0.000                                                            
   RMAX   =    1.529    core radius for proj-oper                               
   RAUG   =    1.300    factor for augmentation sphere                          
   RDEP   =    1.501    radius for radial grids                                 
   RDEPT  =    1.300    core radius for aug-charge                              
                                                                                
   Atomic configuration                                                         
    4 entries                                                                   
     n  l   j            E        occ.                                          
     1  0  0.50      -273.3789   2.0000                                         
     2  0  0.50       -13.7508   2.0000                                         
     2  1  0.50        -5.2854   2.0000                                         
     3  2  1.50        -5.4423   0.0000                                         
   Description                                                                  
     l       E           TYP  RCUT    TYP  RCUT                                 
     0    -13.7508458     23  1.200                                             
     0     -8.2022199     23  1.200                                             
     1     -5.2854383     23  1.500                                             
     1     34.0145650     23  1.500                                             
     2     -5.4423304      7  1.500                                             
  local pseudopotential read in
  partial core-charges read in
  partial kinetic energy density read in
  atomic valenz-charges read in
  non local Contribution for L=           0  read in
    real space projection operators read in
  non local Contribution for L=           0  read in
    real space projection operators read in
  non local Contribution for L=           1  read in
    real space projection operators read in
  non local Contribution for L=           1  read in
    real space projection operators read in
    PAW grid and wavefunctions read in

   number of l-projection  operators is LMAX  =           4
   number of lm-projection operators is LMMAX =           8

 POTCAR:    PAW_PBE N 08Apr2002                   
   SHA256 =  e053789ff3a61a86a1b75d8a110fcc91f86041011e7b0817c7c99e4e8a6349d7 N/
   COPYR  = (c) Copyright 08Apr2002 Georg Kresse                                
   COPYR  = This file is part of the software VASP. Any use, copying, and all ot
   COPYR  = If you do not have a valid VASP license, you may not use, copy or di
   VRHFIN =N: s2p3                                                              
   LEXCH  = PE                                                                  
   EATOM  =   264.5486 eV,   19.4438 Ry                                         
                                                                                
   TITEL  = PAW_PBE N 08Apr2002                                                 
   LULTRA =        F    use ultrasoft PP ?                                      
   IUNSCR =        1    unscreen: 0-lin 1-nonlin 2-no                           
   RPACOR =    1.200    partial core radius                                     
   POMASS =   14.001; ZVAL   =    5.000    mass and valenz                      
   RCORE  =    1.500    outmost cutoff radius                                   
   RWIGS  =    1.400; RWIGS  =    0.741    wigner-seitz radius (au A)           
   ENMAX  =  400.000; ENMIN  =  300.000 eV                                      
   ICORE  =        2    local potential                                         
   LCOR   =        T    correct aug charges                                     
   LPAW   =        T    paw PP                                                  
   EAUG   =  627.112                                                            
   DEXC   =    0.000                                                            
   RMAX   =    1.529    core radius for proj-oper                               
   RAUG   =    1.300    factor for augmentation sphere                          
   RDEP   =    1.514    radius for radial grids                                 
   RDEPT  =    1.338    core radius for aug-charge                              
                                                                                
   Atomic configuration                                                         
    4 entries                                                                   
     n  l   j            E        occ.                                          
     1  0  0.50      -384.7179   2.0000                                         
     2  0  0.50       -18.5828   2.0000                                         
     2  1  0.50        -7.0898   3.0000                                         
     3  2  1.50        -6.8029   0.0000                                         
   Description                                                                  
     l       E           TYP  RCUT    TYP  RCUT                                 
     0    -18.5828119     23  1.200                                             
     0    -13.5018863     23  1.200                                             
     1     -7.0897853     23  1.500                                             
     1      9.5240782     23  1.500                                             
     2     -6.8029130      7  1.500                                             
  local pseudopotential read in
  partial core-charges read in
  partial kinetic energy density read in
  atomic valenz-charges read in
  non local Contribution for L=           0  read in
    real space projection operators read in
  non local Contribution for L=           0  read in
    real space projection operators read in
  non local Contribution for L=           1  read in
    real space projection operators read in
  non local Contribution for L=           1  read in
    real space projection operators read in
    PAW grid and wavefunctions read in

   number of l-projection  operators is LMAX  =           4
   number of lm-projection operators is LMMAX =           8

 POTCAR:    PAW_PBE Ge_d 03Jul2007                
   SHA256 =  944b26c40d2d7c4f4eb1ff3a2e8dbfdd7129146276cd341854bfd5c0e57780ed Ge
   COPYR  = (c) Copyright 03Jul2007 Georg Kresse                                
   COPYR  = This file is part of the software VASP. Any use, copying, and all ot
   COPYR  = If you do not have a valid VASP license, you may not use, copy or di
   VRHFIN =Ge: 3d4s4p                                                           
   LEXCH  = PE                                                                  
   EATOM  =  2596.2402 eV,  190.8183 Ry                                         
                                                                                
   TITEL  = PAW_PBE Ge_d 03Jul2007                                              
   LULTRA =        F    use ultrasoft PP ?                                      
   IUNSCR =        1    unscreen: 0-lin 1-nonlin 2-no                           
   RPACOR =    2.000    partial core radius                                     
   POMASS =   72.610; ZVAL   =   14.000    mass and valenz                      
   RCORE  =    2.300    outmost cutoff radius                                   
   RWIGS  =    2.300; RWIGS  =    1.217    wigner-seitz radius (au A)           
   ENMAX  =  310.294; ENMIN  =  232.720 eV                                      
   ICORE  =        3    local potential                                         
   LCOR   =        T    correct aug charges                                     
   LPAW   =        T    paw PP                                                  
   EAUG   =  531.356                                                            
   DEXC   =    0.000                                                            
   RMAX   =    2.342    core radius for proj-oper                               
   RAUG   =    1.300    factor for augmentation sphere                          
   RDEP   =    2.318    radius for radial grids                                 
   RDEPT  =    1.783    core radius for aug-charge                              
                                                                                
   Atomic configuration                                                         
    9 entries                                                                   
     n  l   j            E        occ.                                          
     1  0  0.50    -10959.8463   2.0000                                         
     2  0  0.50     -1371.6056   2.0000                                         
     2  1  1.50     -1198.4791   6.0000                                         
     3  0  0.50      -168.4733   2.0000                                         
     3  1  1.50      -115.6019   6.0000                                         
     3  2  2.50       -29.3106  10.0000                                         
     4  0  0.50       -11.7309   2.0000                                         
     4  1  0.50        -3.8952   2.0000                                         
     4  3  2.50        -4.0817   0.0000                                         
   Description                                                                  
     l       E           TYP  RCUT    TYP  RCUT                                 
     2    -29.3105938     23  2.200                                             
     2    -13.6058260     23  2.200                                             
     0    -11.7309493     23  2.300                                             
     0     -7.4578696     23  2.300                                             
     1     -3.8952261     23  2.300                                             
     1      6.1178114     23  2.300                                             
     3     -1.3605826     23  2.300                                             
  local pseudopotential read in
  partial core-charges read in
  partial kinetic energy density read in
  atomic valenz-charges read in
  non local Contribution for L=           2  read in
    real space projection operators read in
  non local Contribution for L=           2  read in
    real space projection operators read in
  non local Contribution for L=           0  read in
    real space projection operators read in
  non local Contribution for L=           0  read in
    real space projection operators read in
  non local Contribution for L=           1  read in
    real space projection operators read in
  non local Contribution for L=           1  read in
    real space projection operators read in
    PAW grid and wavefunctions read in

   number of l-projection  operators is LMAX  =           6
   number of lm-projection operators is LMMAX =          18

 POTCAR:    PAW_PBE C 08Apr2002                   
   SHA256 =  253f7b50bb8d59471dbedb8285d89021f4a42ed1a2c5d38a03a736e69125dd95 C/
   COPYR  = (c) Copyright 08Apr2002 Georg Kresse                                
   COPYR  = This file is part of the software VASP. Any use, copying, and all ot
   COPYR  = If you do not have a valid VASP license, you may not use, copy or di
   VRHFIN =C: s2p2                                                              
   LEXCH  = PE                                                                  
   EATOM  =   147.1560 eV,   10.8157 Ry                                         
                                                                                
   TITEL  = PAW_PBE C 08Apr2002                                                 
   LULTRA =        F    use ultrasoft PP ?                                      
   IUNSCR =        1    unscreen: 0-lin 1-nonlin 2-no                           
   RPACOR =    1.200    partial core radius                                     
   POMASS =   12.011; ZVAL   =    4.000    mass and valenz                      
   RCORE  =    1.500    outmost cutoff radius                                   
   RWIGS  =    1.630; RWIGS  =    0.863    wigner-seitz radius (au A)           
   ENMAX  =  400.000; ENMIN  =  300.000 eV                                      
   ICORE  =        2    local potential                                         
   LCOR   =        T    correct aug charges                                     
   LPAW   =        T    paw PP                                                  
   EAUG   =  644.873                                                            
   DEXC   =    0.000                                                            
   RMAX   =    1.529    core radius for proj-oper                               
   RAUG   =    1.300    factor for augmentation sphere                          
   RDEP   =    1.501    radius for radial grids                                 
   RDEPT  =    1.300    core radius for aug-charge                              
                                                                                
   Atomic configuration                                                         
    4 entries                                                                   
     n  l   j            E        occ.                                          
     1  0  0.50      -273.3789   2.0000                                         
     2  0  0.50       -13.7508   2.0000                                         
     2  1  0.50        -5.2854   2.0000                                         
     3  2  1.50        -5.4423   0.0000                                         
   Description                                                                  
     l       E           TYP  RCUT    TYP  RCUT                                 
     0    -13.7508458     23  1.200                                             
     0     -8.2022199     23  1.200                                             
     1     -5.2854383     23  1.500                                             
     1     34.0145650     23  1.500                                             
     2     -5.4423304      7  1.500                                             
  local pseudopotential read in
  partial core-charges read in
  partial kinetic energy density read in
  atomic valenz-charges read in
  non local Contribution for L=           0  read in
    real space projection operators read in
  non local Contribution for L=           0  read in
    real space projection operators read in
  non local Contribution for L=           1  read in
    real space projection operators read in
  non local Contribution for L=           1  read in
    real space projection operators read in
    PAW grid and wavefunctions read in

   number of l-projection  operators is LMAX  =           4
   number of lm-projection operators is LMMAX =           8

 POTCAR:    PAW_PBE O 08Apr2002                   
   SHA256 =  818f92134a0a090dccd8ba1447fa70422a3b330e708bb4f08108d8ae51209ddf O/
   COPYR  = (c) Copyright 08Apr2002 Georg Kresse                                
   COPYR  = This file is part of the software VASP. Any use, copying, and all ot
   COPYR  = If you do not have a valid VASP license, you may not use, copy or di
   VRHFIN =O: s2p4                                                              
   LEXCH  = PE                                                                  
   EATOM  =   432.3788 eV,   31.7789 Ry                                         
                                                                                
   TITEL  = PAW_PBE O 08Apr2002                                                 
   LULTRA =        F    use ultrasoft PP ?                                      
   IUNSCR =        1    unscreen: 0-lin 1-nonlin 2-no                           
   RPACOR =    1.200    partial core radius                                     
   POMASS =   16.000; ZVAL   =    6.000    mass and valenz                      
   RCORE  =    1.520    outmost cutoff radius                                   
   RWIGS  =    1.550; RWIGS  =    0.820    wigner-seitz radius (au A)           
   ENMAX  =  400.000; ENMIN  =  300.000 eV                                      
   ICORE  =        2    local potential                                         
   LCOR   =        T    correct aug charges                                     
   LPAW   =        T    paw PP                                                  
   EAUG   =  605.392                                                            
   DEXC   =    0.000                                                            
   RMAX   =    1.553    core radius for proj-oper                               
   RAUG   =    1.300    factor for augmentation sphere                          
   RDEP   =    1.550    radius for radial grids                                 
   RDEPT  =    1.329    core radius for aug-charge                              
                                                                                
   Atomic configuration                                                         
    4 entries                                                                   
     n  l   j            E        occ.                                          
     1  0  0.50      -514.6923   2.0000                                         
     2  0  0.50       -23.9615   2.0000                                         
     2  1  0.50        -9.0305   4.0000                                         
     3  2  1.50        -9.5241   0.0000                                         
   Description                                                                  
     l       E           TYP  RCUT    TYP  RCUT                                 
     0    -23.9615318     23  1.200                                             
     0     -9.5240782     23  1.200                                             
     1     -9.0304911     23  1.520                                             
     1      8.1634956     23  1.520                                             
     2     -9.5240782      7  1.500                                             
  local pseudopotential read in
  partial core-charges read in
  partial kinetic energy density read in
  kinetic energy density of atom read in
  atomic valenz-charges read in
  non local Contribution for L=           0  read in
    real space projection operators read in
  non local Contribution for L=           0  read in
    real space projection operators read in
  non local Contribution for L=           1  read in
    real space projection operators read in
  non local Contribution for L=           1  read in
    real space projection operators read in
    PAW grid and wavefunctions read in

   number of l-projection  operators is LMAX  =           4
   number of lm-projection operators is LMMAX =           8


 ----------------------------------------------------------------------------- 
|                                                                             |
|  ADVICE TO THIS USER RUNNING 'VASP/VAMP'   (HEAR YOUR MASTER'S VOICE ...):  |
|                                                                             |
|      You have a (more or less) 'large supercell' and for larger cells       |
|      it might be more efficient to use real space projection opertators     |
|      So try LREAL= Auto  in the INCAR   file.                               |
|      Mind:          For very  accurate calculation you might also keep the  |
|      reciprocal projection scheme          (i.e. LREAL=.FALSE.)             |
|                                                                             |
 ----------------------------------------------------------------------------- 

  PAW_PBE C 08Apr2002                   :
 energy of atom  1       EATOM= -147.1560
 kinetic energy error for atom=    0.0132 (will be added to EATOM!!)
  PAW_PBE N 08Apr2002                   :
 energy of atom  2       EATOM= -264.5486
 kinetic energy error for atom=    0.0298 (will be added to EATOM!!)
  PAW_PBE Ge_d 03Jul2007                :
 energy of atom  3       EATOM=-2596.2402
 kinetic energy error for atom=    0.0090 (will be added to EATOM!!)
  PAW_PBE C 08Apr2002                   :
 energy of atom  4       EATOM= -147.1560
 kinetic energy error for atom=    0.0132 (will be added to EATOM!!)
  PAW_PBE O 08Apr2002                   :
 energy of atom  5       EATOM= -432.3788
 kinetic energy error for atom=    0.0458 (will be added to EATOM!!)


 POSCAR: POSCAR-c3n4                             
  positions in cartesian coordinates
  No initial velocities read in
 exchange correlation table for  LEXCH =        8
   RHO(1)=    0.500       N(1)  =     2000
   RHO(2)=  100.500       N(2)  =     4000



--------------------------------------------------------------------------------------------------------


 ion  position               nearest neighbor table
   1  0.106  0.214  0.436-  26 1.34  46 1.34  25 1.41
   2  0.288  0.399  0.443-  29 1.32  35 1.39  25 1.43
   3  0.104  0.392  0.437-  44 1.32  39 1.38  25 1.43
   4  0.447  0.064  0.516-  30 1.32  27 1.34  48 1.41
   5  0.453  0.401  0.422-  28 1.33  29 1.34  56 1.43
   6  0.112  0.053  0.459-  26 1.32  31 1.33  32 1.40
   7  0.096  0.712  0.494-  54 1.33  34 1.36  33 1.40
   8  0.284  0.890  0.511-  27 1.34  37 1.35  33 1.42
   9  0.109  0.895  0.508-  31 1.33  52 1.34  33 1.43
  10  0.448  0.548  0.512-  38 1.32  56 1.35  35 1.36
  11  0.445  0.885  0.499-  37 1.34  36 1.34  48 1.38
  12  0.087  0.542  0.491-  34 1.32  40 1.35  39 1.36
  13  0.616  0.223  0.483-  42 1.35  30 1.35  41 1.40
  14  0.780  0.390  0.410-  45 1.35  51 1.36  41 1.40
  15  0.610  0.394  0.445-  28 1.34  55 1.34  41 1.45
  16  0.940  0.052  0.471-  46 1.32  43 1.33  32 1.40
  17  0.941  0.387  0.404-  45 1.32  44 1.34  40 1.42
  18  0.623  0.066  0.522-  42 1.33  47 1.34  48 1.41
  19  0.613  0.711  0.541-  50 1.33  38 1.37  49 1.41
  20  0.790  0.897  0.533-  43 1.33  53 1.34  49 1.45
  21  0.609  0.892  0.531-  47 1.34  36 1.35  49 1.44
  22  0.938  0.563  0.430-  51 1.31  54 1.35  40 1.42
  23  0.954  0.902  0.545-  52 1.34  53 1.34  32 1.40
  24  0.621  0.555  0.500-  55 1.32  50 1.33  56 1.41
  25  0.167  0.335  0.435-   1 1.41   3 1.43   2 1.43
  26  0.165  0.161  0.431-   6 1.32   1 1.34
  27  0.336  0.002  0.532-   8 1.34   4 1.34
  28  0.512  0.352  0.402-   5 1.33  15 1.34
  29  0.345  0.361  0.400-   2 1.32   5 1.34
  30  0.506  0.177  0.503-   4 1.32  13 1.35
  31  0.159  0.988  0.457-   9 1.33   6 1.33
  32  0.002  0.002  0.493-  16 1.40  23 1.40   6 1.40
  33  0.165  0.831  0.510-   7 1.40   8 1.42   9 1.43
  34  0.134  0.645  0.528-  12 1.32   7 1.36
  35  0.334  0.491  0.501-  10 1.36   2 1.39  57 2.06
  36  0.503  0.831  0.500-  11 1.34  21 1.35
  37  0.333  0.829  0.489-  11 1.34   8 1.35
  38  0.499  0.648  0.555-  10 1.32  19 1.37
  39  0.142  0.484  0.495-  12 1.36   3 1.38  57 2.08
  40  0.988  0.496  0.446-  12 1.35  22 1.42  17 1.42
  41  0.667  0.330  0.439-  13 1.40  14 1.40  15 1.45
  42  0.680  0.178  0.505-  18 1.33  13 1.35
  43  0.827  0.986  0.478-  20 1.33  16 1.33
  44  0.011  0.348  0.389-   3 1.32  17 1.34
  45  0.830  0.330  0.389-  17 1.32  14 1.35
  46  0.993  0.161  0.445-  16 1.32   1 1.34
  47  0.669  0.005  0.549-  21 1.34  18 1.34
  48  0.505  0.004  0.508-  11 1.38  18 1.41   4 1.41
  49  0.668  0.832  0.544-  19 1.41  21 1.44  20 1.45
  50  0.675  0.666  0.522-  19 1.33  24 1.33
  51  0.832  0.507  0.406-  22 1.31  14 1.36
  52  0.016  0.853  0.559-  23 1.34   9 1.34
  53  0.849  0.860  0.576-  20 1.34  23 1.34
  54  0.004  0.677  0.444-   7 1.33  22 1.35
  55  0.668  0.491  0.494-  24 1.32  15 1.34
  56  0.506  0.502  0.477-  10 1.35  24 1.41   5 1.43
  57  0.287  0.593  0.568-  35 2.06  39 2.08
  58  0.287  0.593  0.966-  59 1.16
  59  0.232  0.530  0.023-  58 1.16


IMPORTANT INFORMATION: All symmetrisations will be switched off!
NOSYMM: (Re-)initialisation of all symmetry stuff for point group C_1.



 KPOINTS: K-Points                                

Automatic generation of k-mesh.
Space group operators:
 irot       det(A)        alpha          n_x          n_y          n_z        tau_x        tau_y        tau_z
    1     1.000000     0.000000     1.000000     0.000000     0.000000     0.000000     0.000000     0.000000
 
 Subroutine IBZKPT returns following result:
 ===========================================
 
 Found      5 irreducible k-points:
 
 Following reciprocal coordinates:
            Coordinates               Weight
  0.000000  0.000000  0.000000      1.000000
  0.333333  0.000000  0.000000      2.000000
  0.000000  0.333333  0.000000      2.000000
  0.333333  0.333333  0.000000      2.000000
 -0.333333  0.333333  0.000000      2.000000
 
 Following cartesian coordinates:
            Coordinates               Weight
  0.000000  0.000000  0.000000      1.000000
  0.024277  0.014368  0.000000      2.000000
  0.000396  0.028736  0.000000      2.000000
  0.024673  0.043104  0.000000      2.000000
 -0.023881  0.014368  0.000000      2.000000
 
 TETIRR: Found     24 inequivalent tetrahedra from       54


--------------------------------------------------------------------------------------------------------




 Dimension of arrays:
   k-points           NKPTS =      5   k-points in BZ     NKDIM =      5   number of bands    NBANDS=    172
   number of dos      NEDOS =   4000   number of ions     NIONS =     59
   non local maximal  LDIM  =      6   non local SUM 2l+1 LMDIM =     18
   total plane-waves  NPLWV = 403200
   max r-space proj   IRMAX =      1   max aug-charges    IRDMAX=   5828
   dimension x,y,z NGX =    72 NGY =   70 NGZ =   80
   dimension x,y,z NGXF=   144 NGYF=  140 NGZF=  160
   support grid    NGXF=   144 NGYF=  140 NGZF=  160
   ions per type =              24  32   1   1   1
   NGX,Y,Z   is equivalent  to a cutoff of   8.65,  8.56,  8.87 a.u.
   NGXF,Y,Z  is equivalent  to a cutoff of  17.29, 17.13, 17.73 a.u.

 SYSTEM =  unknown system                          
 POSCAR =  POSCAR-c3n4                             

 Startparameter for this run:
   NWRITE =      2    write-flag & timer
   PREC   = normal    normal or accurate (medium, high low for compatibility)
   ISTART =      0    job   : 0-new  1-cont  2-samecut
   ICHARG =      2    charge: 1-file 2-atom 10-const
   ISPIN  =      2    spin polarized calculation?
   LNONCOLLINEAR =      F non collinear calculations
   LSORBIT =      F    spin-orbit coupling
   INIWAV =      1    electr: 0-lowe 1-rand  2-diag
   LASPH  =      F    aspherical Exc in radial PAW
   METAGGA=      F    non-selfconsistent MetaGGA calc.

 Electronic Relaxation 1
   ENCUT  =  440.0 eV  32.34 Ry    5.69 a.u.  23.68 23.24 25.66*2*pi/ulx,y,z
   ENINI  =  440.0     initial cutoff
   ENAUG  =  644.9 eV  augmentation charge cutoff
   NELM   =    100;   NELMIN=  2; NELMDL= -5     # of ELM steps 
   EDIFF  = 0.1E-03   stopping-criterion for ELM
   LREAL  =      F    real-space projection
   NLSPLINE    = F    spline interpolate recip. space projectors
   LCOMPAT=      F    compatible to vasp.4.4
   GGA_COMPAT  = T    GGA compatible to vasp.4.4-vasp.4.6
   LMAXPAW     = -100 max onsite density
   LMAXMIX     =    2 max onsite mixed and CHGCAR
   VOSKOWN=      0    Vosko Wilk Nusair interpolation
   ROPT   =    0.00000   0.00000   0.00000   0.00000
   ROPT   =    0.00000
 Ionic relaxation
   EDIFFG = -.1E-01   stopping-criterion for IOM
   NSW    =      0    number of steps for IOM
   NBLOCK =      1;   KBLOCK =      1    inner block; outer block 
   IBRION =     -1    ionic relax: 0-MD 1-quasi-New 2-CG
   NFREE  =      0    steps in history (QN), initial steepest desc. (CG)
   ISIF   =      2    stress and relaxation
   IWAVPR =     10    prediction:  0-non 1-charg 2-wave 3-comb
   ISYM   =      0    0-nonsym 1-usesym 2-fastsym
   LCORR  =      T    Harris-Foulkes like correction to forces

   POTIM  = 0.5000    time-step for ionic-motion
   TEIN   =    0.0    initial temperature
   TEBEG  =    0.0;   TEEND  =   0.0 temperature during run
   SMASS  =  -3.00    Nose mass-parameter (am)
   estimated Nose-frequenzy (Omega)   =  0.10E-29 period in steps =****** mass=  -0.438E-26a.u.
   SCALEE = 1.0000    scale energy and forces
   NPACO  =    256;   APACO  = 16.0  distance and # of slots for P.C.
   PSTRESS=    0.0 pullay stress

  Mass of Ions in am
   POMASS =  12.01 14.00 72.61 12.01 16.00
  Ionic Valenz
   ZVAL   =   4.00  5.00 14.00  4.00  6.00
  Atomic Wigner-Seitz radii
   RWIGS  =  -1.00 -1.00 -1.00 -1.00 -1.00
  virtual crystal weights 
   VCA    =   1.00  1.00  1.00  1.00  1.00
   NELECT =     280.0000    total number of electrons
   NUPDOWN=      -1.0000    fix difference up-down

 DOS related values:
   EMIN   = -14.00;   EMAX   =  6.00  energy-range for DOS
   EFERMI =   0.00
   ISMEAR =    -5;   SIGMA  =   0.20  broadening in eV -4-tet -1-fermi 0-gaus

 Electronic relaxation 2 (details)
   IALGO  =     38    algorithm
   LDIAG  =      T    sub-space diagonalisation (order eigenvalues)
   LSUBROT=      F    optimize rotation matrix (better conditioning)
   TURBO    =      0    0=normal 1=particle mesh
   IRESTART =      0    0=no restart 2=restart with 2 vectors
   NREBOOT  =      0    no. of reboots
   NMIN     =      0    reboot dimension
   EREF     =   0.00    reference energy to select bands
   IMIX   =      4    mixing-type and parameters
     AMIX     =   0.25;   BMIX     =  0.00
     AMIX_MAG =   1.00;   BMIX_MAG =  0.00
     AMIN     =   0.10
     WC   =   100.;   INIMIX=   1;  MIXPRE=   1;  MAXMIX= -45

 Intra band minimization:
   WEIMIN = 0.0000     energy-eigenvalue tresh-hold
   EBREAK =  0.15E-06  absolut break condition
   DEPER  =   0.30     relativ break condition  

   TIME   =   0.40     timestep for ELM

  volume/ion in A,a.u.               =      40.83       275.51
  Fermi-wavevector in a.u.,A,eV,Ry     =   0.798973  1.509840  8.685388  0.638358
  Thomas-Fermi vector in A             =   1.905987

 Write flags
   LWAVE        =      F    write WAVECAR
   LDOWNSAMPLE  =      F    k-point downsampling of WAVECAR
   LCHARG       =      F    write CHGCAR
   LVTOT        =      F    write LOCPOT, total local potential
   LVHAR        =      F    write LOCPOT, Hartree potential only
   LELF         =      F    write electronic localiz. function (ELF)
   LORBIT       =     11    0 simple, 1 ext, 2 COOP (PROOUT), +10 PAW based schemes


 Dipole corrections
   LMONO  =      F    monopole corrections only (constant potential shift)
   LDIPOL =      F    correct potential (dipole corrections)
   IDIPOL =      0    1-x, 2-y, 3-z, 4-all directions 
   EPSILON=  1.0000000 bulk dielectric constant

 Exchange correlation treatment:
   GGA     =    --    GGA type
   LEXCH   =     8    internal setting for exchange type
   VOSKOWN=      0    Vosko Wilk Nusair interpolation
   LHFCALC =     F    Hartree Fock is set to
   LHFONE  =     F    Hartree Fock one center treatment
   AEXX    =    0.0000 exact exchange contribution

 Linear response parameters
   LEPSILON=     F    determine dielectric tensor
   LRPA    =     F    only Hartree local field effects (RPA)
   LNABLA  =     F    use nabla operator in PAW spheres
   LVEL    =     F    velocity operator in full k-point grid
   LINTERFAST=   F  fast interpolation
   KINTER  =     0    interpolate to denser k-point grid
   CSHIFT  =0.1000    complex shift for real part using Kramers Kronig
   OMEGAMAX=  -1.0    maximum frequency
   DEG_THRESHOLD= 0.2000000E-02 threshold for treating states as degnerate
   RTIME   =   -0.100 relaxation time in fs
  (WPLASMAI=    0.000 imaginary part of plasma frequency in eV, 0.658/RTIME)
   DFIELD  = 0.0000000 0.0000000 0.0000000 field for delta impulse in time

 Orbital magnetization related:
   ORBITALMAG=     F  switch on orbital magnetization
   LCHIMAG   =     F  perturbation theory with respect to B field
   DQ        =  0.001000  dq finite difference perturbation B field
   LLRAUG    =     F  two centre corrections for induced B field



--------------------------------------------------------------------------------------------------------


 Static calculation
 charge density and potential will be updated during run
 spin polarized calculation
 Variant of blocked Davidson
 Davidson routine will perform the subspace rotation
 perform sub-space diagonalisation
    after iterative eigenvector-optimisation
 modified Broyden-mixing scheme, WC =      100.0
 initial mixing is a Kerker type mixing with AMIX =  0.2500 and BMIX =      0.0001
 Hartree-type preconditioning will be used
 using additional bands           32
 reciprocal scheme for non local part
 use partial core corrections
 calculate Harris-corrections to forces   (improved forces if not selfconsistent)
 use gradient corrections 
 use of overlap-Matrix (Vanderbilt PP)
 Fermi weights with tetrahedron method with Bloechl corrections


--------------------------------------------------------------------------------------------------------


  energy-cutoff  :      440.00
  volume of cell :     2408.72
      direct lattice vectors                 reciprocal lattice vectors
    13.843424235 -0.190740474  0.000000000     0.072830369  0.043104114 -0.000000000
    -6.921712117 11.695190994  0.000000000     0.001187813  0.086208229 -0.000000000
     0.000000000  0.000000000 15.000000000    -0.000000000 -0.000000000  0.066666667

  length of vectors
    13.844738223 13.589981274 15.000000000     0.084629944  0.086216411  0.066666667



 k-points in units of 2pi/SCALE and weight: K-Points                                
   0.00000000  0.00000000  0.00000000       0.111
   0.02427679  0.01436804  0.00000000       0.222
   0.00039594  0.02873608  0.00000000       0.222
   0.02467273  0.04310411  0.00000000       0.222
  -0.02388085  0.01436804  0.00000000       0.222

 k-points in reciprocal lattice and weights: K-Points                                
   0.00000000  0.00000000  0.00000000       0.111
   0.33333333  0.00000000  0.00000000       0.222
   0.00000000  0.33333333  0.00000000       0.222
   0.33333333  0.33333333  0.00000000       0.222
  -0.33333333  0.33333333  0.00000000       0.222

 position of ions in fractional coordinates (direct lattice) 
   0.10567936  0.21351909  0.43638452
   0.28750403  0.39866334  0.44307848
   0.10379301  0.39177313  0.43720774
   0.44732828  0.06383887  0.51561413
   0.45258916  0.40124889  0.42244582
   0.11203481  0.05273921  0.45860169
   0.09638015  0.71191070  0.49382164
   0.28433946  0.89006364  0.51112159
   0.10941441  0.89537413  0.50804572
   0.44792521  0.54827090  0.51182417
   0.44544784  0.88520183  0.49889037
   0.08690842  0.54210436  0.49059155
   0.61614813  0.22292684  0.48262487
   0.78023735  0.38968276  0.40980308
   0.61037743  0.39432339  0.44538198
   0.93951642  0.05229783  0.47062057
   0.94071854  0.38652888  0.40380040
   0.62278394  0.06558106  0.52195204
   0.61322902  0.71118454  0.54116914
   0.78984871  0.89727295  0.53280047
   0.60944297  0.89248269  0.53124739
   0.93832005  0.56283419  0.43042990
   0.95436023  0.90171878  0.54458488
   0.62130548  0.55465507  0.49978063
   0.16668926  0.33545237  0.43494871
   0.16473950  0.16097029  0.43087242
   0.33626584  0.00180669  0.53207802
   0.51175722  0.35246859  0.40230650
   0.34471728  0.36074551  0.39967324
   0.50565751  0.17673507  0.50307206
   0.15873210  0.98821904  0.45657691
   0.00214731  0.00186372  0.49276218
   0.16462634  0.83083069  0.51017993
   0.13400723  0.64526801  0.52770834
   0.33371346  0.49116238  0.50147098
   0.50288345  0.83078126  0.49964378
   0.33307237  0.82932770  0.48929409
   0.49902190  0.64803204  0.55475412
   0.14173676  0.48364631  0.49503647
   0.98839512  0.49595573  0.44590834
   0.66736443  0.33015381  0.43923807
   0.67970142  0.17802103  0.50515807
   0.82720183  0.98622484  0.47776955
   0.01097216  0.34809993  0.38872280
   0.83047981  0.33016544  0.38944898
   0.99296173  0.16101876  0.44505124
   0.66886761  0.00524437  0.54940128
   0.50484899  0.00388347  0.50822952
   0.66830364  0.83227641  0.54411956
   0.67536455  0.66551462  0.52238502
   0.83211404  0.50666912  0.40566699
   0.01584380  0.85299492  0.55859758
   0.84924332  0.85956436  0.57597004
   0.00424175  0.67726383  0.44447513
   0.66753141  0.49127771  0.49374111
   0.50565566  0.50179634  0.47708161
   0.28676550  0.59288202  0.56771515
   0.28676550  0.59288202  0.96638181
   0.23209909  0.52992702  0.02273763

 position of ions in cartesian coordinates  (Angst):
  -0.01495341  2.47698916  6.54576774
   1.22060735  4.60760523  6.64617716
  -1.27489022  4.56206407  6.55811603
   5.75068089  0.66128413  7.73421195
   3.48805436  4.60635537  6.33668737
   1.18589979  0.59542560  6.87902529
  -3.59340964  8.30754803  7.40732454
  -2.22453254 10.35522920  7.66682381
  -4.68285195 10.45070172  7.62068584
   2.40584542  6.32669544  7.67736258
   0.03941122 10.26763956  7.48335555
  -2.54918027  6.32343713  7.35887327
   6.98656454  2.48964760  7.23937307
   8.10388471  4.40859150  6.14704625
   5.72032065  4.49526372  6.68072966
  12.64413391  0.43242927  7.05930850
  10.34732423  4.34109601  6.05700594
   8.16752907  0.64819286  7.82928062
   3.56657488  8.20047146  8.11753713
   4.72354569 10.34312244  7.99200705
   2.25926930 10.32151003  7.96871080
   9.09378627  6.40347778  6.45644857
   6.97017567 10.36373826  8.16877317
   4.76183266  6.36828891  7.49670946
  -0.01435459  3.89138517  6.52423069
   1.16636883  1.85115575  6.46308635
   4.64256524 -0.04300995  7.98117032
   4.64478625  4.02457463  6.03459749
   2.27509095  4.15323612  5.99509857
   5.77672210  1.97050110  7.54608093
  -4.64277198 11.52713380  6.84865361
   0.01682601  0.02138698  7.39143266
  -3.47177850  9.68532266  7.65269891
  -2.61124046  7.52097199  7.91562512
   1.22005246  5.68058514  7.52206476
   1.21120026  9.62022522  7.49465669
  -1.12950549  9.63561545  7.33941131
   2.42268065  7.48367481  8.32131175
  -1.38553843  5.62930098  7.42554699
  10.24991020  5.61177007  6.68862512
   6.95337930  3.73391849  6.58857099
   8.17718484  1.95234336  7.57737111
   4.62494149 11.37630698  7.16654328
  -2.25755524  4.06900228  5.83084207
   9.21137417  3.70294177  5.84173463
  12.63146492  1.69374715  6.67576860
   9.22311816 -0.06624626  8.24101921
   6.96195851 -0.05087721  7.62344286
   3.49083317  9.60615900  8.16179337
   4.74285732  7.65450125  7.83577534
   8.01228982  5.76687433  6.08500491
  -5.68485288  9.97291647  8.37896365
   5.80677850  9.89078434  8.63955065
  -4.62910497  7.91992080  6.66712702
   5.84043755  5.61826141  7.40611667
   3.52671598  5.77215508  7.15622417
  -0.13394222  6.87917073  8.51572721
  -0.13394222  6.87917073 14.49572721
  -0.45495616  6.15332704  0.34106440



--------------------------------------------------------------------------------------------------------


 k-point  1 :   0.0000 0.0000 0.0000  plane waves:   50507
 k-point  2 :   0.3333 0.0000 0.0000  plane waves:   50502
 k-point  3 :   0.0000 0.3333 0.0000  plane waves:   50488
 k-point  4 :   0.3333 0.3333 0.0000  plane waves:   50491
 k-point  5 :  -0.3333 0.3333 0.0000  plane waves:   50463

 maximum and minimum number of plane-waves per node :      4234     4191

 maximum number of plane-waves:     50507
 maximum index in each direction: 
   IXMAX=   24   IYMAX=   23   IZMAX=   25
   IXMIN=  -24   IYMIN=  -23   IZMIN=  -25


 parallel 3D FFT for wavefunctions:
    minimum data exchange during FFTs selected (reduces bandwidth)
 parallel 3D FFT for charge:
    minimum data exchange during FFTs selected (reduces bandwidth)


 total amount of memory used by VASP MPI-rank0    91807. kBytes
=======================================================================

   base      :      30000. kBytes
   nonl-proj :      19157. kBytes
   fftplans  :       3349. kBytes
   grid      :       9783. kBytes
   one-center:        155. kBytes
   wavefun   :      29363. kBytes

     INWAV:  cpu time    0.0001: real time    0.0001
 Broyden mixing: mesh for mixing (old mesh)
   NGX = 47   NGY = 47   NGZ = 51
  (NGX  =144   NGY  =140   NGZ  =160)
  gives a total of 112659 points

 initial charge density was supplied:
 charge density of overlapping atoms calculated
 number of electron     280.0000000 magnetization       2.0000000
 keeping initial charge density in first step


--------------------------------------------------------------------------------------------------------


 Maximum index for augmentation-charges          230 (set IRDMAX)


--------------------------------------------------------------------------------------------------------


 First call to EWALD:  gamma=   0.132
 Maximum number of real-space cells 3x 3x 3
 Maximum number of reciprocal cells 3x 3x 3

    FEWALD:  cpu time    0.0035: real time    0.0035


--------------------------------------- Iteration      1(   1)  ---------------------------------------


    POTLOK:  cpu time    0.1313: real time    0.1497
    SETDIJ:  cpu time    0.0103: real time    0.0103
     EDDAV:  cpu time   12.4486: real time   12.5027
 BZINTS: Fermi energy:  9.146222;280.000000 electrons
         Band energy:***********;  BLOECHL correction: -0.014059
       DOS:  cpu time    0.2012: real time    0.2013
    --------------------------------------------
      LOOP:  cpu time   12.7914: real time   12.8639

 eigenvalue-minimisations  :  3984
 total energy-change (2. order) : 0.2618865E+04  (-0.1055554E+05)
 number of electron     280.0000000 magnetization       2.0000000
 augmentation part      280.0000000 magnetization       2.0000000

 Free energy of the ion-electron system (eV)
  ---------------------------------------------------
  alpha Z        PSCENC =       154.69642529
  Ewald energy   TEWEN  =     25746.04154919
  -Hartree energ DENC   =    -37666.89939316
  -exchange      EXHF   =         0.00000000
  -V(xc)+E(xc)   XCENC  =      1067.49741208
  PAW double counting   =     11453.83848114   -11942.90478952
  entropy T*S    EENTRO =         0.00000000
  eigenvalues    EBANDS =     -1365.14069324
  atomic energy  EATOM  =     15171.73615219
  Solvation  Ediel_sol  =         0.00000000
  ---------------------------------------------------
  free energy    TOTEN  =      2618.86514395 eV

  energy without entropy =     2618.86514395  energy(sigma->0) =     2618.86514395


--------------------------------------------------------------------------------------------------------




--------------------------------------- Iteration      1(   2)  ---------------------------------------


     EDDAV:  cpu time   14.2769: real time   14.3325
 BZINTS: Fermi energy: -0.126527;280.000000 electrons
         Band energy:***********;  BLOECHL correction:  0.000000
       DOS:  cpu time    0.0214: real time    0.0214
    --------------------------------------------
      LOOP:  cpu time   14.2983: real time   14.3539

 eigenvalue-minimisations  :  4760
 total energy-change (2. order) :-0.2609784E+04  (-0.2514933E+04)
 number of electron     280.0000000 magnetization       2.0000000
 augmentation part      280.0000000 magnetization       2.0000000

 Free energy of the ion-electron system (eV)
  ---------------------------------------------------
  alpha Z        PSCENC =       154.69642529
  Ewald energy   TEWEN  =     25746.04154919
  -Hartree energ DENC   =    -37666.89939316
  -exchange      EXHF   =         0.00000000
  -V(xc)+E(xc)   XCENC  =      1067.49741208
  PAW double counting   =     11453.83848114   -11942.90478952
  entropy T*S    EENTRO =         0.00000000
  eigenvalues    EBANDS =     -3974.92460357
  atomic energy  EATOM  =     15171.73615219
  Solvation  Ediel_sol  =         0.00000000
  ---------------------------------------------------
  free energy    TOTEN  =         9.08123362 eV

  energy without entropy =        9.08123362  energy(sigma->0) =        9.08123362


--------------------------------------------------------------------------------------------------------




--------------------------------------- Iteration      1(   3)  ---------------------------------------


     EDDAV:  cpu time   12.4843: real time   12.5318
 BZINTS: Fermi energy: -3.365891;280.000000 electrons
         Band energy:***********;  BLOECHL correction: -0.025458
       DOS:  cpu time    0.0288: real time    0.0288
    --------------------------------------------
      LOOP:  cpu time   12.5132: real time   12.5606

 eigenvalue-minimisations  :  4044
 total energy-change (2. order) :-0.5135703E+03  (-0.5096809E+03)
 number of electron     280.0000000 magnetization       2.0000000
 augmentation part      280.0000000 magnetization       2.0000000

 Free energy of the ion-electron system (eV)
  ---------------------------------------------------
  alpha Z        PSCENC =       154.69642529
  Ewald energy   TEWEN  =     25746.04154919
  -Hartree energ DENC   =    -37666.89939316
  -exchange      EXHF   =         0.00000000
  -V(xc)+E(xc)   XCENC  =      1067.49741208
  PAW double counting   =     11453.83848114   -11942.90478952
  entropy T*S    EENTRO =         0.00000000
  eigenvalues    EBANDS =     -4488.49494448
  atomic energy  EATOM  =     15171.73615219
  Solvation  Ediel_sol  =         0.00000000
  ---------------------------------------------------
  free energy    TOTEN  =      -504.48910729 eV

  energy without entropy =     -504.48910729  energy(sigma->0) =     -504.48910729


--------------------------------------------------------------------------------------------------------




--------------------------------------- Iteration      1(   4)  ---------------------------------------


     EDDAV:  cpu time   13.2987: real time   13.3532
 BZINTS: Fermi energy: -3.856839;280.000000 electrons
         Band energy:***********;  BLOECHL correction:  0.000000
       DOS:  cpu time    0.0212: real time    0.0212
    --------------------------------------------
      LOOP:  cpu time   13.3199: real time   13.3744

 eigenvalue-minimisations  :  4320
 total energy-change (2. order) :-0.2111561E+02  (-0.2060251E+02)
 number of electron     280.0000000 magnetization       2.0000000
 augmentation part      280.0000000 magnetization       2.0000000

 Free energy of the ion-electron system (eV)
  ---------------------------------------------------
  alpha Z        PSCENC =       154.69642529
  Ewald energy   TEWEN  =     25746.04154919
  -Hartree energ DENC   =    -37666.89939316
  -exchange      EXHF   =         0.00000000
  -V(xc)+E(xc)   XCENC  =      1067.49741208
  PAW double counting   =     11453.83848114   -11942.90478952
  entropy T*S    EENTRO =         0.00000000
  eigenvalues    EBANDS =     -4509.61055442
  atomic energy  EATOM  =     15171.73615219
  Solvation  Ediel_sol  =         0.00000000
  ---------------------------------------------------
  free energy    TOTEN  =      -525.60471722 eV

  energy without entropy =     -525.60471722  energy(sigma->0) =     -525.60471722


--------------------------------------------------------------------------------------------------------




--------------------------------------- Iteration      1(   5)  ---------------------------------------


     EDDAV:  cpu time   14.6116: real time   14.6769
 BZINTS: Fermi energy: -3.906227;280.000000 electrons
         Band energy:***********;  BLOECHL correction:  0.000000
       DOS:  cpu time    0.0211: real time    0.0211
    CHARGE:  cpu time    0.3109: real time    0.3113
    MIXING:  cpu time    0.0031: real time    0.0032
    --------------------------------------------
      LOOP:  cpu time   14.9468: real time   15.0126

 eigenvalue-minimisations  :  4944
 total energy-change (2. order) :-0.8783415E+00  (-0.8675322E+00)
 number of electron     280.0000013 magnetization       0.0000002
 augmentation part       20.2490936 magnetization       0.0305219

 Broyden mixing:
  rms(total) = 0.41437E+01    rms(broyden)= 0.41407E+01
  rms(prec ) = 0.45800E+01
  weight for this iteration     100.00

 Free energy of the ion-electron system (eV)
  ---------------------------------------------------
  alpha Z        PSCENC =       154.69642529
  Ewald energy   TEWEN  =     25746.04154919
  -Hartree energ DENC   =    -37666.89939316
  -exchange      EXHF   =         0.00000000
  -V(xc)+E(xc)   XCENC  =      1067.49741208
  PAW double counting   =     11453.83848114   -11942.90478952
  entropy T*S    EENTRO =         0.00000000
  eigenvalues    EBANDS =     -4510.48889591
  atomic energy  EATOM  =     15171.73615219
  Solvation  Ediel_sol  =         0.00000000
  ---------------------------------------------------
  free energy    TOTEN  =      -526.48305871 eV

  energy without entropy =     -526.48305871  energy(sigma->0) =     -526.48305871


--------------------------------------------------------------------------------------------------------




--------------------------------------- Iteration      1(   6)  ---------------------------------------


    POTLOK:  cpu time    0.1280: real time    0.1294
    SETDIJ:  cpu time    0.0101: real time    0.0101
     EDDAV:  cpu time   13.3863: real time   13.4287
 BZINTS: Fermi energy: -3.531133;280.000000 electrons
         Band energy:***********;  BLOECHL correction:  0.000000
       DOS:  cpu time    0.0204: real time    0.0203
    CHARGE:  cpu time    0.2916: real time    0.2939
    MIXING:  cpu time    0.0032: real time    0.0069
    --------------------------------------------
      LOOP:  cpu time   13.8396: real time   13.8894

 eigenvalue-minimisations  :  4424
 total energy-change (2. order) : 0.2647512E+02  (-0.5442970E+01)
 number of electron     280.0000013 magnetization      -0.0000000
 augmentation part       19.1363085 magnetization       0.0088011

 Broyden mixing:
  rms(total) = 0.25749E+01    rms(broyden)= 0.25745E+01
  rms(prec ) = 0.27599E+01
  weight for this iteration     100.00

 eigenvalues of (default mixing * dielectric matrix)
  average eigenvalue GAMMA=   1.4187
  1.4187

 Free energy of the ion-electron system (eV)
  ---------------------------------------------------
  alpha Z        PSCENC =       154.69642529
  Ewald energy   TEWEN  =     25746.04154919
  -Hartree energ DENC   =    -37970.85651177
  -exchange      EXHF   =         0.00000000
  -V(xc)+E(xc)   XCENC  =      1082.40144270
  PAW double counting   =     14993.10929329   -15484.42618854
  entropy T*S    EENTRO =         0.00000000
  eigenvalues    EBANDS =     -4192.71009973
  atomic energy  EATOM  =     15171.73615219
  Solvation  Ediel_sol  =         0.00000000
  ---------------------------------------------------
  free energy    TOTEN  =      -500.00793739 eV

  energy without entropy =     -500.00793739  energy(sigma->0) =     -500.00793739


--------------------------------------------------------------------------------------------------------




--------------------------------------- Iteration      1(   7)  ---------------------------------------


    POTLOK:  cpu time    0.1098: real time    0.1144
    SETDIJ:  cpu time    0.0097: real time    0.0097
     EDDAV:  cpu time   12.9151: real time   12.9505
 BZINTS: Fermi energy: -3.029757;280.000000 electrons
         Band energy:***********;  BLOECHL correction:  0.000000
       DOS:  cpu time    0.0196: real time    0.0196
    CHARGE:  cpu time    0.2649: real time    0.2667
    MIXING:  cpu time    0.0022: real time    0.0022
    --------------------------------------------
      LOOP:  cpu time   13.3213: real time   13.3631

 eigenvalue-minimisations  :  4208
 total energy-change (2. order) : 0.5106134E+01  (-0.4472218E+01)
 number of electron     280.0000014 magnetization      -0.0000000
 augmentation part       18.6957782 magnetization      -0.0013493

 Broyden mixing:
  rms(total) = 0.16508E+01    rms(broyden)= 0.16504E+01
  rms(prec ) = 0.17811E+01
  weight for this iteration     100.00

 eigenvalues of (default mixing * dielectric matrix)
  average eigenvalue GAMMA=   1.5231
  0.9532  2.0931

 Free energy of the ion-electron system (eV)
  ---------------------------------------------------
  alpha Z        PSCENC =       154.69642529
  Ewald energy   TEWEN  =     25746.04154919
  -Hartree energ DENC   =    -38242.35850240
  -exchange      EXHF   =         0.00000000
  -V(xc)+E(xc)   XCENC  =      1093.87075994
  PAW double counting   =     19740.64622802   -20235.15545858
  entropy T*S    EENTRO =         0.00000000
  eigenvalues    EBANDS =     -3924.37895662
  atomic energy  EATOM  =     15171.73615219
  Solvation  Ediel_sol  =         0.00000000
  ---------------------------------------------------
  free energy    TOTEN  =      -494.90180298 eV

  energy without entropy =     -494.90180298  energy(sigma->0) =     -494.90180298


--------------------------------------------------------------------------------------------------------




--------------------------------------- Iteration      1(   8)  ---------------------------------------


    POTLOK:  cpu time    0.1146: real time    0.1233
    SETDIJ:  cpu time    0.0094: real time    0.0095
     EDDAV:  cpu time   12.5029: real time   12.5351
 BZINTS: Fermi energy: -2.514629;280.000000 electrons
         Band energy:***********;  BLOECHL correction:  0.000000
       DOS:  cpu time    0.0191: real time    0.0191
    CHARGE:  cpu time    0.2956: real time    0.2958
    MIXING:  cpu time    0.0023: real time    0.0023
    --------------------------------------------
      LOOP:  cpu time   12.9441: real time   12.9852

 eigenvalue-minimisations  :  4008
 total energy-change (2. order) : 0.1890992E+01  (-0.1569465E+01)
 number of electron     280.0000014 magnetization       0.0000000
 augmentation part       18.4713118 magnetization      -0.0025314

 Broyden mixing:
  rms(total) = 0.11416E+01    rms(broyden)= 0.11414E+01
  rms(prec ) = 0.12131E+01
  weight for this iteration     100.00

 eigenvalues of (default mixing * dielectric matrix)
  average eigenvalue GAMMA=   1.6711
  3.0862  1.2471  0.6800

 Free energy of the ion-electron system (eV)
  ---------------------------------------------------
  alpha Z        PSCENC =       154.69642529
  Ewald energy   TEWEN  =     25746.04154919
  -Hartree energ DENC   =    -38348.68162752
  -exchange      EXHF   =         0.00000000
  -V(xc)+E(xc)   XCENC  =      1098.48508492
  PAW double counting   =     23046.45068819   -23543.28910727
  entropy T*S    EENTRO =         0.00000000
  eigenvalues    EBANDS =     -3818.44997607
  atomic energy  EATOM  =     15171.73615219
  Solvation  Ediel_sol  =         0.00000000
  ---------------------------------------------------
  free energy    TOTEN  =      -493.01081108 eV

  energy without entropy =     -493.01081108  energy(sigma->0) =     -493.01081108


--------------------------------------------------------------------------------------------------------




--------------------------------------- Iteration      1(   9)  ---------------------------------------


    POTLOK:  cpu time    0.1083: real time    0.1135
    SETDIJ:  cpu time    0.0097: real time    0.0097
     EDDAV:  cpu time   14.5402: real time   14.5816
 BZINTS: Fermi energy: -2.340835;280.000000 electrons
         Band energy:***********;  BLOECHL correction:  0.000000
       DOS:  cpu time    0.0190: real time    0.0190
    CHARGE:  cpu time    0.2771: real time    0.2771
    MIXING:  cpu time    0.0027: real time    0.0027
    --------------------------------------------
      LOOP:  cpu time   14.9569: real time   15.0036

 eigenvalue-minimisations  :  4880
 total energy-change (2. order) :-0.1906502E+00  (-0.1508951E+01)
 number of electron     280.0000012 magnetization       0.0000000
 augmentation part       18.5609169 magnetization      -0.0009620

 Broyden mixing:
  rms(total) = 0.63380E+00    rms(broyden)= 0.63346E+00
  rms(prec ) = 0.80580E+00
  weight for this iteration     100.00

 eigenvalues of (default mixing * dielectric matrix)
  average eigenvalue GAMMA=   1.5866
  3.5994  1.3349  0.7061  0.7061

 Free energy of the ion-electron system (eV)
  ---------------------------------------------------
  alpha Z        PSCENC =       154.69642529
  Ewald energy   TEWEN  =     25746.04154919
  -Hartree energ DENC   =    -38416.47009272
  -exchange      EXHF   =         0.00000000
  -V(xc)+E(xc)   XCENC  =      1101.18223141
  PAW double counting   =     27191.17017140   -27692.61397159
  entropy T*S    EENTRO =         0.00000000
  eigenvalues    EBANDS =     -3748.94392647
  atomic energy  EATOM  =     15171.73615219
  Solvation  Ediel_sol  =         0.00000000
  ---------------------------------------------------
  free energy    TOTEN  =      -493.20146129 eV

  energy without entropy =     -493.20146129  energy(sigma->0) =     -493.20146129


--------------------------------------------------------------------------------------------------------




--------------------------------------- Iteration      1(  10)  ---------------------------------------


    POTLOK:  cpu time    0.1283: real time    0.1300
    SETDIJ:  cpu time    0.0101: real time    0.0101
     EDDAV:  cpu time   13.9902: real time   14.0335
 BZINTS: Fermi energy: -2.000750;280.000000 electrons
         Band energy:***********;  BLOECHL correction:  0.000000
       DOS:  cpu time    0.0186: real time    0.0186
    CHARGE:  cpu time    0.3342: real time    0.3342
    MIXING:  cpu time    0.0029: real time    0.0029
    --------------------------------------------
      LOOP:  cpu time   14.4842: real time   14.5292

 eigenvalue-minimisations  :  4672
 total energy-change (2. order) : 0.7049545E+00  (-0.6724202E+00)
 number of electron     280.0000013 magnetization       0.0000000
 augmentation part       18.5412261 magnetization      -0.0007305

 Broyden mixing:
  rms(total) = 0.32099E+00    rms(broyden)= 0.32025E+00
  rms(prec ) = 0.39093E+00
  weight for this iteration     100.00

 eigenvalues of (default mixing * dielectric matrix)
  average eigenvalue GAMMA=   1.4985
  3.8441  1.5090  1.0014  0.5691  0.5691

 Free energy of the ion-electron system (eV)
  ---------------------------------------------------
  alpha Z        PSCENC =       154.69642529
  Ewald energy   TEWEN  =     25746.04154919
  -Hartree energ DENC   =    -38434.95510970
  -exchange      EXHF   =         0.00000000
  -V(xc)+E(xc)   XCENC  =      1102.31538458
  PAW double counting   =     29066.98427977   -29568.47789361
  entropy T*S    EENTRO =         0.00000000
  eigenvalues    EBANDS =     -3730.83729454
  atomic energy  EATOM  =     15171.73615219
  Solvation  Ediel_sol  =         0.00000000
  ---------------------------------------------------
  free energy    TOTEN  =      -492.49650683 eV

  energy without entropy =     -492.49650683  energy(sigma->0) =     -492.49650683


--------------------------------------------------------------------------------------------------------




--------------------------------------- Iteration      1(  11)  ---------------------------------------


    POTLOK:  cpu time    0.1248: real time    0.1287
    SETDIJ:  cpu time    0.0102: real time    0.0102
     EDDAV:  cpu time   13.3653: real time   13.4051
 BZINTS: Fermi energy: -2.095774;280.000000 electrons
         Band energy:***********;  BLOECHL correction:  0.000000
       DOS:  cpu time    0.0191: real time    0.0191
    CHARGE:  cpu time    0.2819: real time    0.2835
    MIXING:  cpu time    0.0030: real time    0.0030
    --------------------------------------------
      LOOP:  cpu time   13.8042: real time   13.8495

 eigenvalue-minimisations  :  4552
 total energy-change (2. order) : 0.4853527E-01  (-0.2629044E+00)
 number of electron     280.0000013 magnetization      -0.0000000
 augmentation part       18.5310455 magnetization      -0.0003570

 Broyden mixing:
  rms(total) = 0.21933E+00    rms(broyden)= 0.21902E+00
  rms(prec ) = 0.28872E+00
  weight for this iteration     100.00

 eigenvalues of (default mixing * dielectric matrix)
  average eigenvalue GAMMA=   1.4277
  3.8474  1.5890  1.1064  0.9724  0.5256  0.5256

 Free energy of the ion-electron system (eV)
  ---------------------------------------------------
  alpha Z        PSCENC =       154.69642529
  Ewald energy   TEWEN  =     25746.04154919
  -Hartree energ DENC   =    -38422.32910945
  -exchange      EXHF   =         0.00000000
  -V(xc)+E(xc)   XCENC  =      1102.04099512
  PAW double counting   =     29883.02888639   -30384.05156600
  entropy T*S    EENTRO =         0.00000000
  eigenvalues    EBANDS =     -3743.61130429
  atomic energy  EATOM  =     15171.73615219
  Solvation  Ediel_sol  =         0.00000000
  ---------------------------------------------------
  free energy    TOTEN  =      -492.44797156 eV

  energy without entropy =     -492.44797156  energy(sigma->0) =     -492.44797156


--------------------------------------------------------------------------------------------------------




--------------------------------------- Iteration      1(  12)  ---------------------------------------


    POTLOK:  cpu time    0.1201: real time    0.1229
    SETDIJ:  cpu time    0.0100: real time    0.0100
     EDDAV:  cpu time   14.3218: real time   14.3614
 BZINTS: Fermi energy: -2.129532;280.000000 electrons
         Band energy:***********;  BLOECHL correction:  0.000000
       DOS:  cpu time    0.0188: real time    0.0188
    CHARGE:  cpu time    0.2967: real time    0.2967
    MIXING:  cpu time    0.0029: real time    0.0029
    --------------------------------------------
      LOOP:  cpu time   14.7704: real time   14.8128

 eigenvalue-minimisations  :  4776
 total energy-change (2. order) : 0.7436273E-01  (-0.1415895E+00)
 number of electron     280.0000013 magnetization      -0.0000000
 augmentation part       18.5095303 magnetization      -0.0001286

 Broyden mixing:
  rms(total) = 0.13590E+00    rms(broyden)= 0.13557E+00
  rms(prec ) = 0.17455E+00
  weight for this iteration     100.00

 eigenvalues of (default mixing * dielectric matrix)
  average eigenvalue GAMMA=   1.4215
  3.8098  2.0975  1.2561  0.8703  0.8703  0.5233  0.5233

 Free energy of the ion-electron system (eV)
  ---------------------------------------------------
  alpha Z        PSCENC =       154.69642529
  Ewald energy   TEWEN  =     25746.04154919
  -Hartree energ DENC   =    -38404.91802174
  -exchange      EXHF   =         0.00000000
  -V(xc)+E(xc)   XCENC  =      1101.48770096
  PAW double counting   =     30109.46474573   -30609.82957466
  entropy T*S    EENTRO =         0.00000000
  eigenvalues    EBANDS =     -3761.05258578
  atomic energy  EATOM  =     15171.73615219
  Solvation  Ediel_sol  =         0.00000000
  ---------------------------------------------------
  free energy    TOTEN  =      -492.37360883 eV

  energy without entropy =     -492.37360883  energy(sigma->0) =     -492.37360883


--------------------------------------------------------------------------------------------------------




--------------------------------------- Iteration      1(  13)  ---------------------------------------


    POTLOK:  cpu time    0.1092: real time    0.1127
    SETDIJ:  cpu time    0.0096: real time    0.0096
     EDDAV:  cpu time   12.6777: real time   12.7208
 BZINTS: Fermi energy: -2.160790;280.000000 electrons
         Band energy:***********;  BLOECHL correction:  0.000000
       DOS:  cpu time    0.0192: real time    0.0192
    CHARGE:  cpu time    0.3366: real time    0.3366
    MIXING:  cpu time    0.0031: real time    0.0031
    --------------------------------------------
      LOOP:  cpu time   13.1552: real time   13.2020

 eigenvalue-minimisations  :  4056
 total energy-change (2. order) : 0.4014661E-01  (-0.2493103E-01)
 number of electron     280.0000013 magnetization      -0.0000000
 augmentation part       18.5288385 magnetization       0.0000020

 Broyden mixing:
  rms(total) = 0.58381E-01    rms(broyden)= 0.58337E-01
  rms(prec ) = 0.65653E-01
  weight for this iteration     100.00

 eigenvalues of (default mixing * dielectric matrix)
  average eigenvalue GAMMA=   1.4030
  3.8072  2.4404  1.3521  0.8668  0.8668  0.8447  0.5227  0.5227

 Free energy of the ion-electron system (eV)
  ---------------------------------------------------
  alpha Z        PSCENC =       154.69642529
  Ewald energy   TEWEN  =     25746.04154919
  -Hartree energ DENC   =    -38387.55303237
  -exchange      EXHF   =         0.00000000
  -V(xc)+E(xc)   XCENC  =      1100.86135856
  PAW double counting   =     30228.37050978   -30728.63650018
  entropy T*S    EENTRO =         0.00000000
  eigenvalues    EBANDS =     -3777.84992467
  atomic energy  EATOM  =     15171.73615219
  Solvation  Ediel_sol  =         0.00000000
  ---------------------------------------------------
  free energy    TOTEN  =      -492.33346222 eV

  energy without entropy =     -492.33346222  energy(sigma->0) =     -492.33346222


--------------------------------------------------------------------------------------------------------




--------------------------------------- Iteration      1(  14)  ---------------------------------------


    POTLOK:  cpu time    0.1287: real time    0.1294
    SETDIJ:  cpu time    0.0102: real time    0.0102
     EDDAV:  cpu time   12.2442: real time   12.2778
 BZINTS: Fermi energy: -2.190798;280.000000 electrons
         Band energy:***********;  BLOECHL correction:  0.000000
       DOS:  cpu time    0.0191: real time    0.0191
    CHARGE:  cpu time    0.3107: real time    0.3140
    MIXING:  cpu time    0.0035: real time    0.0035
    --------------------------------------------
      LOOP:  cpu time   12.7163: real time   12.7539

 eigenvalue-minimisations  :  3904
 total energy-change (2. order) : 0.1041079E-02  (-0.5196193E-02)
 number of electron     280.0000013 magnetization       0.0000000
 augmentation part       18.5339106 magnetization       0.0000598

 Broyden mixing:
  rms(total) = 0.29930E-01    rms(broyden)= 0.29876E-01
  rms(prec ) = 0.33539E-01
  weight for this iteration     100.00

 eigenvalues of (default mixing * dielectric matrix)
  average eigenvalue GAMMA=   1.3717
  3.7868  2.4961  1.3808  0.9579  0.9579  0.8583  0.8583  0.5245  0.5245

 Free energy of the ion-electron system (eV)
  ---------------------------------------------------
  alpha Z        PSCENC =       154.69642529
  Ewald energy   TEWEN  =     25746.04154919
  -Hartree energ DENC   =    -38381.45047117
  -exchange      EXHF   =         0.00000000
  -V(xc)+E(xc)   XCENC  =      1100.64890179
  PAW double counting   =     30304.68390246   -30804.87238424
  entropy T*S    EENTRO =         0.00000000
  eigenvalues    EBANDS =     -3783.81649665
  atomic energy  EATOM  =     15171.73615219
  Solvation  Ediel_sol  =         0.00000000
  ---------------------------------------------------
  free energy    TOTEN  =      -492.33242114 eV

  energy without entropy =     -492.33242114  energy(sigma->0) =     -492.33242114


--------------------------------------------------------------------------------------------------------




--------------------------------------- Iteration      1(  15)  ---------------------------------------


    POTLOK:  cpu time    0.1074: real time    0.1128
    SETDIJ:  cpu time    0.0097: real time    0.0097
     EDDAV:  cpu time   12.9201: real time   12.9597
 BZINTS: Fermi energy: -2.185796;280.000000 electrons
         Band energy:***********;  BLOECHL correction:  0.000000
       DOS:  cpu time    0.0190: real time    0.0190
    CHARGE:  cpu time    0.3078: real time    0.3093
    MIXING:  cpu time    0.0035: real time    0.0035
    --------------------------------------------
      LOOP:  cpu time   13.3675: real time   13.4139

 eigenvalue-minimisations  :  4160
 total energy-change (2. order) : 0.1260125E-03  (-0.1418145E-02)
 number of electron     280.0000013 magnetization      -0.0000000
 augmentation part       18.5322734 magnetization       0.0000273

 Broyden mixing:
  rms(total) = 0.24712E-01    rms(broyden)= 0.24698E-01
  rms(prec ) = 0.29156E-01
  weight for this iteration     100.00

 eigenvalues of (default mixing * dielectric matrix)
  average eigenvalue GAMMA=   1.3909
  3.7231  2.6984  1.4728  1.2668  1.2668  0.8597  0.8597  0.7163  0.5229  0.5229

 Free energy of the ion-electron system (eV)
  ---------------------------------------------------
  alpha Z        PSCENC =       154.69642529
  Ewald energy   TEWEN  =     25746.04154919
  -Hartree energ DENC   =    -38382.37586439
  -exchange      EXHF   =         0.00000000
  -V(xc)+E(xc)   XCENC  =      1100.66855526
  PAW double counting   =     30320.40452465   -30820.63367376
  entropy T*S    EENTRO =         0.00000000
  eigenvalues    EBANDS =     -3782.86996354
  atomic energy  EATOM  =     15171.73615219
  Solvation  Ediel_sol  =         0.00000000
  ---------------------------------------------------
  free energy    TOTEN  =      -492.33229512 eV

  energy without entropy =     -492.33229512  energy(sigma->0) =     -492.33229512


--------------------------------------------------------------------------------------------------------




--------------------------------------- Iteration      1(  16)  ---------------------------------------


    POTLOK:  cpu time    0.1085: real time    0.1146
    SETDIJ:  cpu time    0.0096: real time    0.0096
     EDDAV:  cpu time   13.6049: real time   13.6462
 BZINTS: Fermi energy: -2.189547;280.000000 electrons
         Band energy:***********;  BLOECHL correction:  0.000000
       DOS:  cpu time    0.0196: real time    0.0196
    CHARGE:  cpu time    0.3338: real time    0.3342
    MIXING:  cpu time    0.0039: real time    0.0039
    --------------------------------------------
      LOOP:  cpu time   14.0804: real time   14.1280

 eigenvalue-minimisations  :  4472
 total energy-change (2. order) : 0.1706223E-03  (-0.1277693E-02)
 number of electron     280.0000013 magnetization       0.0000000
 augmentation part       18.5329934 magnetization       0.0000066

 Broyden mixing:
  rms(total) = 0.16768E-01    rms(broyden)= 0.16731E-01
  rms(prec ) = 0.21108E-01
  weight for this iteration     100.00

 eigenvalues of (default mixing * dielectric matrix)
  average eigenvalue GAMMA=   1.4318
  3.6790  3.0623  1.9830  1.2425  1.2425  1.0903  0.8310  0.8310  0.7455  0.5214
  0.5214

 Free energy of the ion-electron system (eV)
  ---------------------------------------------------
  alpha Z        PSCENC =       154.69642529
  Ewald energy   TEWEN  =     25746.04154919
  -Hartree energ DENC   =    -38382.28867756
  -exchange      EXHF   =         0.00000000
  -V(xc)+E(xc)   XCENC  =      1100.65642376
  PAW double counting   =     30325.87048019   -30826.13663118
  entropy T*S    EENTRO =         0.00000000
  eigenvalues    EBANDS =     -3782.90784638
  atomic energy  EATOM  =     15171.73615219
  Solvation  Ediel_sol  =         0.00000000
  ---------------------------------------------------
  free energy    TOTEN  =      -492.33212450 eV

  energy without entropy =     -492.33212450  energy(sigma->0) =     -492.33212450


--------------------------------------------------------------------------------------------------------




--------------------------------------- Iteration      1(  17)  ---------------------------------------


    POTLOK:  cpu time    0.1214: real time    0.1276
    SETDIJ:  cpu time    0.0102: real time    0.0101
     EDDAV:  cpu time   12.8818: real time   12.9544
 BZINTS: Fermi energy: -2.185796;280.000000 electrons
         Band energy:***********;  BLOECHL correction:  0.000000
       DOS:  cpu time    0.0199: real time    0.0206
    CHARGE:  cpu time    0.2910: real time    0.3002
    MIXING:  cpu time    0.0039: real time    0.0043
    --------------------------------------------
      LOOP:  cpu time   13.3282: real time   13.4172

 eigenvalue-minimisations  :  4176
 total energy-change (2. order) :-0.2715241E-03  (-0.1289924E-02)
 number of electron     280.0000013 magnetization       0.0000000
 augmentation part       18.5325002 magnetization       0.0000013

 Broyden mixing:
  rms(total) = 0.16268E-01    rms(broyden)= 0.16227E-01
  rms(prec ) = 0.23049E-01
  weight for this iteration     100.00

 eigenvalues of (default mixing * dielectric matrix)
  average eigenvalue GAMMA=   1.4351
  3.7575  3.1666  2.1954  1.3339  1.3339  0.8753  0.8753  1.0286  0.9348  0.5193
  0.5193  0.6807

 Free energy of the ion-electron system (eV)
  ---------------------------------------------------
  alpha Z        PSCENC =       154.69642529
  Ewald energy   TEWEN  =     25746.04154919
  -Hartree energ DENC   =    -38382.54145285
  -exchange      EXHF   =         0.00000000
  -V(xc)+E(xc)   XCENC  =      1100.66453018
  PAW double counting   =     30335.21353030   -30835.47694233
  entropy T*S    EENTRO =         0.00000000
  eigenvalues    EBANDS =     -3782.66618798
  atomic energy  EATOM  =     15171.73615219
  Solvation  Ediel_sol  =         0.00000000
  ---------------------------------------------------
  free energy    TOTEN  =      -492.33239603 eV

  energy without entropy =     -492.33239603  energy(sigma->0) =     -492.33239603


--------------------------------------------------------------------------------------------------------




--------------------------------------- Iteration      1(  18)  ---------------------------------------


    POTLOK:  cpu time    0.1189: real time    0.1235
    SETDIJ:  cpu time    0.0091: real time    0.0098
     EDDAV:  cpu time   10.3621: real time   10.4746
 BZINTS: Fermi energy: -2.185796;280.000000 electrons
         Band energy:***********;  BLOECHL correction:  0.000000
       DOS:  cpu time    0.0197: real time    0.0197
    CHARGE:  cpu time    0.2768: real time    0.2769
    MIXING:  cpu time    0.0044: real time    0.0044
    --------------------------------------------
      LOOP:  cpu time   10.7911: real time   10.9089

 eigenvalue-minimisations  :  3096
 total energy-change (2. order) : 0.4743739E-03  (-0.6016896E-03)
 number of electron     280.0000013 magnetization       0.0000000
 augmentation part       18.5320526 magnetization       0.0000027

 Broyden mixing:
  rms(total) = 0.52190E-02    rms(broyden)= 0.51674E-02
  rms(prec ) = 0.64197E-02
  weight for this iteration     100.00

 eigenvalues of (default mixing * dielectric matrix)
  average eigenvalue GAMMA=   1.4717
  3.8096  3.3452  2.7800  1.7327  1.2041  1.2041  1.0043  0.8381  0.8381  0.7382
  0.5189  0.5189  0.5999

 Free energy of the ion-electron system (eV)
  ---------------------------------------------------
  alpha Z        PSCENC =       154.69642529
  Ewald energy   TEWEN  =     25746.04154919
  -Hartree energ DENC   =    -38382.68033580
  -exchange      EXHF   =         0.00000000
  -V(xc)+E(xc)   XCENC  =      1100.67230155
  PAW double counting   =     30343.25009790   -30843.51562691
  entropy T*S    EENTRO =         0.00000000
  eigenvalues    EBANDS =     -3782.53248505
  atomic energy  EATOM  =     15171.73615219
  Solvation  Ediel_sol  =         0.00000000
  ---------------------------------------------------
  free energy    TOTEN  =      -492.33192165 eV

  energy without entropy =     -492.33192165  energy(sigma->0) =     -492.33192165


--------------------------------------------------------------------------------------------------------




--------------------------------------- Iteration      1(  19)  ---------------------------------------


    POTLOK:  cpu time    0.1149: real time    0.1162
    SETDIJ:  cpu time    0.0095: real time    0.0095
     EDDAV:  cpu time    8.7881: real time    8.8264
 BZINTS: Fermi energy: -2.185796;280.000000 electrons
         Band energy:***********;  BLOECHL correction:  0.000000
       DOS:  cpu time    0.0206: real time    0.0206
    --------------------------------------------
      LOOP:  cpu time    8.9331: real time    8.9727

 eigenvalue-minimisations  :  2400
 total energy-change (2. order) :-0.5679001E-04  (-0.2239153E-04)
 number of electron     280.0000013 magnetization       0.0000000
 augmentation part       18.5320526 magnetization       0.0000027

 Free energy of the ion-electron system (eV)
  ---------------------------------------------------
  alpha Z        PSCENC =       154.69642529
  Ewald energy   TEWEN  =     25746.04154919
  -Hartree energ DENC   =    -38382.87025431
  -exchange      EXHF   =         0.00000000
  -V(xc)+E(xc)   XCENC  =      1100.67916226
  PAW double counting   =     30343.80568398   -30844.07236331
  entropy T*S    EENTRO =         0.00000000
  eigenvalues    EBANDS =     -3782.34833373
  atomic energy  EATOM  =     15171.73615219
  Solvation  Ediel_sol  =         0.00000000
  ---------------------------------------------------
  free energy    TOTEN  =      -492.33197844 eV

  energy without entropy =     -492.33197844  energy(sigma->0) =     -492.33197844


--------------------------------------------------------------------------------------------------------




 average (electrostatic) potential at core
  the test charge radii are     0.6991  0.7089  0.9911  0.6991  0.7215
  (the norm of the test charge is              1.0000)
       1 -60.4635       2 -60.8117       3 -60.8050       4 -60.4747       5 -60.4898
       6 -60.4941       7 -60.6575       8 -60.4998       9 -60.4033      10 -61.1537
      11 -60.6248      12 -61.1265      13 -60.4556      14 -60.4219      15 -60.2117
      16 -60.4946      17 -60.4778      18 -60.4551      19 -60.7530      20 -60.4575
      21 -60.4996      22 -60.5679      23 -60.5471      24 -60.5220      25 -74.4291
[...]
   -.160E+02 0.515E+02 0.185E+03   0.165E+02 -.541E+02 -.186E+03   -.453E+00 0.270E+01 0.154E+01   0.111E-02 -.173E-01 -.139E-01
   -.607E+02 -.159E+02 0.891E+02   0.633E+02 0.172E+02 -.900E+02   -.263E+01 -.127E+01 0.963E+00   0.144E-02 -.551E-02 -.216E-02
   0.404E+02 -.289E+02 -.329E+02   -.409E+02 0.264E+02 0.320E+02   0.466E+00 0.249E+01 0.813E+00   0.129E-02 -.190E-01 -.589E-02
   0.265E+02 -.162E+02 -.457E+02   -.236E+02 0.180E+02 0.453E+02   -.280E+01 -.175E+01 0.376E+00   0.507E-02 -.327E-02 -.200E-02
   -.772E+01 -.607E+00 -.562E+02   0.456E+01 0.221E+01 0.559E+02   0.307E+01 -.154E+01 0.243E+00   0.158E-03 -.407E-02 -.214E-02
   -.256E+02 0.173E+02 -.670E+02   0.247E+02 -.155E+02 0.681E+02   0.101E+01 -.172E+01 -.110E+01   -.260E-01 0.222E-01 0.152E-01
   -.346E+01 0.178E+02 0.450E+02   0.342E+01 -.207E+02 -.444E+02   0.591E-01 0.296E+01 -.632E+00   -.814E-02 -.180E-02 0.113E-02
   0.329E+02 0.159E+02 -.622E+02   -.318E+02 -.138E+02 0.629E+02   -.118E+01 -.207E+01 -.793E+00   -.130E-01 -.127E-01 -.123E-01
   -.342E+01 -.172E+02 -.137E+02   0.352E+01 0.137E+02 0.144E+02   -.950E-01 0.335E+01 -.637E+00   0.244E-01 -.126E-01 0.202E-03
   0.393E+02 0.286E+02 0.179E+03   -.365E+02 -.271E+02 -.178E+03   -.282E+01 -.143E+01 -.619E+00   0.498E-01 0.197E-02 -.504E-02
   -.146E+02 0.226E+02 0.805E+02   0.116E+02 -.212E+02 -.799E+02   0.294E+01 -.133E+01 -.527E+00   0.441E-01 -.183E-01 -.459E-02
   0.628E+02 -.145E+02 0.612E+02   -.654E+02 0.158E+02 -.617E+02   0.266E+01 -.133E+01 0.489E+00   -.863E-02 0.106E-01 -.275E-02
   0.566E+01 0.733E+02 0.197E+03   -.574E+01 -.758E+02 -.198E+03   0.309E-01 0.264E+01 0.156E+01   -.666E-02 0.329E-03 0.880E-02
   -.620E+02 -.570E+02 -.922E+02   0.646E+02 0.583E+02 0.927E+02   -.258E+01 -.138E+01 -.407E+00   0.323E-02 0.146E-01 -.596E-02
   -.342E+02 -.279E+02 -.132E+03   0.344E+02 0.254E+02 0.131E+03   -.201E+00 0.246E+01 0.890E+00   -.233E-02 0.199E-01 0.451E-02
   0.111E+02 -.165E+01 -.102E+03   -.790E+01 0.316E+01 0.102E+03   -.310E+01 -.147E+01 0.487E+00   0.103E-01 0.183E-01 -.251E-02
   -.293E+02 -.116E+02 -.830E+02   0.265E+02 0.135E+02 0.821E+02   0.280E+01 -.184E+01 0.826E+00   -.159E-01 0.190E-01 -.286E-02
   0.716E+02 -.672E+02 0.127E+03   -.741E+02 0.690E+02 -.127E+03   0.261E+01 -.182E+01 0.900E-01   0.107E-01 -.251E-01 0.244E-03
   -.100E+02 0.416E+02 -.176E+03   0.100E+02 -.447E+02 0.178E+03   -.335E-01 0.315E+01 -.134E+01   0.686E-02 -.324E-02 0.711E-03
   -.819E+02 -.245E+02 -.570E+02   0.847E+02 0.254E+02 0.580E+02   -.286E+01 -.790E+00 -.102E+01   0.191E-01 0.225E-01 0.103E-01
   -.141E+02 0.387E+02 0.154E+03   0.145E+02 -.398E+02 -.156E+03   -.337E+00 0.959E+00 0.255E+01   -.896E-01 -.843E-02 -.117E-02
   -.189E+03 -.289E+02 0.210E+03   0.220E+03 0.455E+02 -.222E+03   -.306E+02 -.166E+02 0.122E+02   -.212E-01 -.256E-01 0.274E-03
   0.153E+03 -.149E+03 -.225E+03   -.183E+03 0.165E+03 0.236E+03   0.303E+02 -.160E+02 -.110E+02   0.864E-02 -.976E-02 -.558E-02
   0.220E+01 0.167E+03 0.371E+03   0.298E+00 -.195E+03 -.393E+03   -.259E+01 0.286E+02 0.223E+02   0.337E-01 -.450E-01 -.303E-01
   -.386E+02 0.138E+03 0.390E+03   0.361E+02 -.165E+03 -.415E+03   0.248E+01 0.266E+02 0.249E+02   -.309E-01 -.354E-01 -.315E-01
   0.187E+03 -.964E+02 -.107E+03   -.217E+03 0.116E+03 0.107E+03   0.294E+02 -.198E+02 -.124E+00   0.319E-01 -.249E-01 0.612E-03
   -.141E+03 -.778E+02 0.239E+03   0.171E+03 0.871E+02 -.259E+03   -.297E+02 -.925E+01 0.195E+02   -.236E-02 -.110E-01 0.359E-02
   -.437E+01 -.300E+00 -.233E+02   0.457E+01 0.267E+00 0.243E+02   -.186E+00 0.665E-02 -.103E+01   0.144E-02 0.216E-02 -.304E-02
   0.172E+02 -.234E+02 -.914E+02   -.174E+02 0.241E+02 0.955E+02   0.211E+00 -.713E+00 -.407E+01   0.393E-02 -.164E-01 -.640E-02
   -.267E+00 -.606E+02 -.286E+03   0.217E+02 0.738E+02 0.309E+03   -.214E+02 -.131E+02 -.229E+02   -.110E-01 -.129E-01 -.159E-01
   0.742E+01 0.651E+02 -.723E+02   -.266E+02 -.611E+02 0.827E+02   0.192E+02 -.417E+01 -.105E+02   -.500E-01 0.157E-01 0.172E-01
   -.170E+02 0.108E+03 0.118E+03   0.199E+02 -.142E+03 -.128E+03   -.290E+01 0.335E+02 0.991E+01   -.171E-01 0.168E-01 0.238E-02
   0.505E+00 0.105E+03 0.131E+03   -.256E+01 -.138E+03 -.141E+03   0.204E+01 0.333E+02 0.100E+02   -.114E-01 -.181E-02 0.300E-02
   0.374E+02 -.592E+02 -.312E+03   -.632E+02 0.728E+02 0.330E+03   0.257E+02 -.137E+02 -.175E+02   -.152E-01 0.260E-01 0.106E-01
   -.181E+01 0.744E+02 -.103E+03   0.194E+02 -.709E+02 0.117E+03   -.175E+02 -.357E+01 -.142E+02   -.410E-01 -.209E-01 -.235E-01
   0.510E+02 0.180E+02 0.675E+02   -.551E+02 -.209E+02 -.670E+02   0.419E+01 0.292E+01 -.416E+00   -.656E-02 -.320E-01 -.128E-01
   0.143E+02 0.377E+02 0.139E+03   -.163E+02 -.392E+02 -.144E+03   0.192E+01 0.164E+01 0.420E+01   0.919E-01 -.207E-01 -.745E-02
   -.184E+03 -.101E+03 -.116E+03   0.214E+03 0.120E+03 0.117E+03   -.299E+02 -.191E+02 -.807E+00   -.832E-03 0.753E-02 -.123E-01
   0.145E+03 -.658E+02 0.186E+03   -.176E+03 0.747E+02 -.203E+03   0.308E+02 -.890E+01 0.167E+02   0.220E-02 0.194E-01 -.116E-02
   0.133E+02 0.160E+03 0.401E+03   -.837E+01 -.188E+03 -.424E+03   -.481E+01 0.275E+02 0.230E+02   -.275E-01 0.289E-01 0.352E-01
   0.617E+01 0.229E+03 0.336E+03   -.779E+01 -.263E+03 -.346E+03   0.160E+01 0.338E+02 0.108E+02   0.136E-01 0.428E-01 0.215E-01
   0.190E+03 -.302E+02 0.126E+03   -.221E+03 0.478E+02 -.132E+03   0.312E+02 -.177E+02 0.585E+01   -.119E-01 0.150E-01 -.208E-02
   -.139E+03 -.153E+03 -.275E+03   0.168E+03 0.169E+03 0.289E+03   -.289E+02 -.158E+02 -.142E+02   -.983E-02 0.174E-01 -.915E-02
   0.740E+00 -.336E+02 -.116E+02   -.631E+00 0.348E+02 0.927E+01   -.136E+00 -.120E+01 0.229E+01   0.690E-03 0.105E-01 -.107E-02
   -.167E+02 -.259E+02 -.177E+03   0.166E+02 0.278E+02 0.182E+03   0.135E+00 -.197E+01 -.545E+01   -.405E-02 0.221E-01 -.145E-02
   -.219E+03 -.640E+02 -.869E+02   0.250E+03 0.823E+02 0.877E+02   -.303E+02 -.184E+02 -.813E+00   0.119E-01 0.340E-01 0.108E-01
   0.174E+03 -.142E+03 0.286E+03   -.205E+03 0.158E+03 -.293E+03   0.309E+02 -.158E+02 0.687E+01   0.635E-01 -.346E-01 0.155E-02
   0.104E+01 0.143E+03 -.363E+03   0.354E+01 -.172E+03 0.385E+03   -.458E+01 0.282E+02 -.227E+02   0.778E-02 -.247E-03 -.776E-02
   -.343E+02 0.111E+03 -.408E+03   0.327E+02 -.137E+03 0.434E+03   0.155E+01 0.262E+02 -.260E+02   0.136E-01 0.139E-01 -.271E-02
   0.185E+03 -.124E+03 0.221E+03   -.209E+03 0.147E+03 -.234E+03   0.240E+02 -.227E+02 0.125E+02   0.204E-01 -.276E-01 0.484E-02
   -.164E+03 -.706E+02 -.177E+03   0.196E+03 0.793E+02 0.191E+03   -.319E+02 -.885E+01 -.142E+02   0.616E-01 0.197E-02 0.117E-01
   -.476E+02 0.207E+02 0.409E+02   0.505E+02 -.230E+02 -.431E+02   -.295E+01 0.220E+01 0.219E+01   -.234E-02 0.226E-01 0.125E-01
   0.431E+02 -.112E+03 -.922E+03   -.441E+02 0.128E+03 0.941E+03   0.114E+01 -.159E+02 -.189E+02   -.118E+00 -.477E-02 -.802E-02
   -.633E+02 -.144E+03 0.137E+03   0.706E+02 0.161E+03 -.157E+03   -.777E+01 -.176E+02 0.205E+02   -.349E-02 -.688E-03 0.161E-02
   0.533E+02 0.120E+03 -.766E+02   -.690E+02 -.156E+03 0.118E+03   0.161E+02 0.365E+02 -.425E+02   -.528E-02 0.520E-03 0.450E-03
 -----------------------------------------------------------------------------------------------
   -.550E+01 -.234E+02 0.213E+02   0.298E-12 -.341E-12 0.213E-12   0.563E+01 0.234E+02 -.213E+02   -.131E+00 -.438E-01 -.746E-01


 POSITION                                       TOTAL-FORCE (eV/Angst)
 -----------------------------------------------------------------------------------
     -0.01495      2.47699      6.54577        -0.017447      0.033684      0.038262
      1.22061      4.60761      6.64618         0.023127      0.129023      0.058006
     -1.27489      4.56206      6.55812        -0.053760      0.097812      0.037177
      5.75068      0.66128      7.73421        -0.019221     -0.019119      0.007943
      3.48805      4.60636      6.33669         0.039343      0.042150      0.022106
      1.18590      0.59543      6.87903        -0.000959      0.041753     -0.014831
     -3.59341      8.30755      7.40732         0.002435      0.035422      0.004754
     -2.22453     10.35523      7.66682         0.041857     -0.010550      0.004052
     -4.68285     10.45070      7.62069        -0.021269      0.012449     -0.019725
      2.40585      6.32670      7.67736         0.040658      0.059864      0.002373
      0.03941     10.26764      7.48336         0.019223     -0.023729     -0.002134
     -2.54918      6.32344      7.35887        -0.058346      0.022462     -0.030251
      6.98656      2.48965      7.23937         0.035674     -0.079964      0.033268
      8.10388      4.40859      6.14705        -0.037239      0.001833      0.005990
      5.72032      4.49526      6.68073         0.044983      0.071269      0.064831
     12.64413      0.43243      7.05931        -0.009161      0.034391     -0.012588
     10.34732      4.34110      6.05701        -0.036502      0.056808      0.017989
      8.16753      0.64819      7.82928         0.045807     -0.042007      0.036622
      3.56657      8.20047      8.11754         0.000495      0.091939     -0.007976
      4.72355     10.34312      7.99201         0.003661      0.019445     -0.005503
      2.25927     10.32151      7.96871         0.013204     -0.016355      0.004952
      9.09379      6.40348      6.45645         0.024078     -0.014807      0.010770
      6.97018     10.36374      8.16877        -0.009459      0.015185     -0.001453
      4.76183      6.36829      7.49671        -0.043624      0.102830      0.016398
     -0.01435      3.89139      6.52423         0.019187     -0.114660      0.029633
      1.16637      1.85116      6.46309         0.021971     -0.040124      0.001469
      4.64257     -0.04301      7.98117         0.012362      0.030110      0.005282
      4.64479      4.02457      6.03460        -0.059972     -0.000970     -0.003699
      2.27509      4.15324      5.99510        -0.014986      0.004947     -0.031278
      5.77672      1.97050      7.54608        -0.003208      0.004165     -0.011844
     -4.64277     11.52713      6.84865         0.008093     -0.020168      0.000546
      0.01683      0.02139      7.39143         0.009921     -0.024974      0.019916
     -3.47178      9.68532      7.65270        -0.009873     -0.038980     -0.012973
     -2.61124      7.52097      7.91563         0.002340      0.005915      0.006792
      1.22005      5.68059      7.52206        -0.035619     -0.131728     -0.085248
      1.21120      9.62023      7.49466        -0.021350     -0.004411     -0.022523
     -1.12951      9.63562      7.33941        -0.025666      0.009395     -0.008601
      2.42268      7.48367      8.32131        -0.045256     -0.053998      0.013746
     -1.38554      5.62930      7.42555         0.057103     -0.109251     -0.047652
     10.24991      5.61177      6.68863         0.048504     -0.017306     -0.015270
      6.95338      3.73392      6.58857         0.010021      0.060124     -0.027716
      8.17718      1.95234      7.57737        -0.032003      0.060107     -0.028426
      4.62494     11.37631      7.16654        -0.005926     -0.014396      0.008460
     -2.25756      4.06900      5.83084         0.046659      0.003396     -0.028183
      9.21137      3.70294      5.84173        -0.004575      0.024785      0.026221
     12.63146      1.69375      6.67577        -0.010566     -0.029501      0.001709
      9.22312     -0.06625      8.24102        -0.025859      0.045329     -0.012248
      6.96196     -0.05088      7.62344        -0.025729      0.010949     -0.012867
      3.49083      9.60616      8.16179        -0.004425     -0.045125     -0.017383
      4.74286      7.65450      7.83578         0.028017     -0.069719     -0.010363
      8.01229      5.76687      6.08500        -0.009828     -0.049546     -0.005091
     -5.68485      9.97292      8.37896         0.002261     -0.010267      0.003634
      5.80678      9.89078      8.63955         0.016521     -0.007027      0.006430
     -4.62910      7.91992      6.66713         0.009678     -0.004206     -0.003798
      5.84044      5.61826      7.40612         0.029503     -0.116452     -0.049483
      3.52672      5.77216      7.15622        -0.030686     -0.063167     -0.014462
     -0.13394      6.87917      8.51573         0.015897      0.043211      0.061148
     -0.13394      6.87917     14.49573        -0.479249     -1.087046      1.253501
     -0.45496      6.15333      0.34106         0.479179      1.088804     -1.260411
 -----------------------------------------------------------------------------------
    total drift:                                0.000267      0.004380      0.011596


--------------------------------------------------------------------------------------------------------



  FREE ENERGIE OF THE ION-ELECTRON SYSTEM (eV)
  ---------------------------------------------------
  free  energy   TOTEN  =      -496.42342396 eV

  energy  without entropy=     -496.42342396  energy(sigma->0) =     -496.42342396



--------------------------------------------------------------------------------------------------------


    POTLOK:  cpu time    0.1275: real time    0.1291


--------------------------------------------------------------------------------------------------------


     LOOP+:  cpu time  264.4490: real time  265.5348
    4ORBIT:  cpu time    0.0000: real time    0.0000



 total charge     

# of ion       s       p       d       tot
------------------------------------------
    1        0.849   1.729   0.000   2.579
    2        0.836   1.717   0.000   2.553
    3        0.839   1.721   0.000   2.560
    4        0.862   1.738   0.000   2.600
    5        0.852   1.736   0.000   2.588
    6        0.865   1.748   0.000   2.613
    7        0.850   1.723   0.000   2.573
    8        0.849   1.717   0.000   2.566
    9        0.854   1.720   0.000   2.574
   10        0.865   1.768   0.000   2.633
   11        0.862   1.741   0.000   2.604
   12        0.869   1.777   0.000   2.647
   13        0.848   1.717   0.000   2.565
   14        0.844   1.721   0.000   2.565
   15        0.842   1.725   0.000   2.566
   16        0.866   1.753   0.000   2.619
   17        0.854   1.744   0.000   2.598
   18        0.859   1.735   0.000   2.594
   19        0.848   1.721   0.000   2.569
   20        0.851   1.717   0.000   2.568
   21        0.846   1.711   0.000   2.556
   22        0.860   1.738   0.000   2.598
   23        0.860   1.726   0.000   2.586
   24        0.863   1.756   0.000   2.618
   25        1.205   2.723   0.000   3.928
   26        1.271   2.656   0.000   3.928
   27        1.268   2.653   0.000   3.921
   28        1.272   2.625   0.000   3.896
   29        1.269   2.646   0.000   3.915
   30        1.267   2.649   0.000   3.916
   31        1.277   2.650   0.000   3.926
   32        1.232   2.755   0.000   3.986
   33        1.214   2.738   0.000   3.952
   34        1.265   2.663   0.000   3.928
   35        1.242   2.668   0.000   3.910
   36        1.265   2.647   0.000   3.912
   37        1.264   2.647   0.000   3.911
   38        1.262   2.655   0.000   3.917
   39        1.243   2.673   0.000   3.916
   40        1.230   2.771   0.000   4.001
   41        1.212   2.722   0.000   3.934
   42        1.266   2.639   0.000   3.905
   43        1.274   2.656   0.000   3.931
   44        1.269   2.647   0.000   3.916
   45        1.270   2.630   0.000   3.899
   46        1.271   2.662   0.000   3.933
   47        1.268   2.645   0.000   3.913
   48        1.228   2.758   0.000   3.986
   49        1.212   2.706   0.000   3.918
   50        1.270   2.659   0.000   3.929
   51        1.268   2.648   0.000   3.915
   52        1.270   2.631   0.000   3.901
   53        1.270   2.635   0.000   3.905
   54        1.266   2.641   0.000   3.907
   55        1.276   2.643   0.000   3.919
   56        1.229   2.767   0.000   3.995
   57        1.341   0.726  10.048  12.115
   58        1.036   1.402   0.000   2.438
   59        1.637   3.516   0.000   5.153
--------------------------------------------------
tot         64.675 132.749  10.048 207.472



 magnetization (x)

# of ion       s       p       d       tot
------------------------------------------
    1        0.000   0.000   0.000   0.000
    2       -0.000  -0.000   0.000  -0.000
    3        0.000   0.000   0.000   0.000
    4        0.000   0.000   0.000   0.000
    5       -0.000  -0.000   0.000  -0.000
    6        0.000   0.000   0.000   0.000
    7        0.000   0.000   0.000   0.000
    8        0.000   0.000   0.000   0.000
    9        0.000   0.000   0.000   0.000
   10        0.000   0.000   0.000   0.000
   11        0.000  -0.000   0.000  -0.000
   12       -0.000  -0.000   0.000  -0.000
   13        0.000   0.000   0.000   0.000
   14        0.000   0.000   0.000   0.000
   15       -0.000  -0.000   0.000  -0.000
   16        0.000  -0.000   0.000  -0.000
   17        0.000   0.000   0.000   0.000
   18        0.000   0.000   0.000   0.000
   19       -0.000  -0.000   0.000  -0.000
   20       -0.000  -0.000   0.000  -0.000
   21        0.000  -0.000   0.000  -0.000
   22        0.000   0.000   0.000   0.000
   23        0.000   0.000   0.000   0.000
   24       -0.000  -0.000   0.000  -0.000
   25        0.000  -0.000   0.000  -0.000
   26        0.000  -0.000   0.000  -0.000
   27        0.000   0.000   0.000   0.000
   28        0.000   0.000   0.000   0.000
   29        0.000   0.000   0.000   0.000
   30       -0.000   0.000   0.000   0.000
   31        0.000   0.000   0.000   0.000
   32       -0.000  -0.000   0.000  -0.000
   33        0.000   0.000   0.000   0.000
   34        0.000   0.000   0.000   0.000
   35        0.000  -0.000   0.000  -0.000
   36       -0.000   0.000   0.000   0.000
   37        0.000   0.000   0.000   0.000
   38        0.000  -0.000   0.000  -0.000
   39        0.000   0.000   0.000   0.000
   40        0.000   0.000   0.000   0.000
   41        0.000  -0.000   0.000  -0.000
   42       -0.000   0.000   0.000  -0.000
   43        0.000   0.000   0.000   0.000
   44       -0.000  -0.000   0.000  -0.000
   45        0.000  -0.000   0.000  -0.000
   46        0.000   0.000   0.000   0.000
   47       -0.000   0.000   0.000   0.000
   48       -0.000   0.000   0.000   0.000
   49       -0.000  -0.000   0.000  -0.000
   50       -0.000   0.000   0.000   0.000
   51        0.000   0.000   0.000   0.000
   52        0.000   0.000   0.000   0.000
   53        0.000  -0.000   0.000  -0.000
   54        0.000  -0.000   0.000  -0.000
   55       -0.000  -0.000   0.000  -0.000
   56        0.000  -0.000   0.000  -0.000
   57       -0.000  -0.000  -0.000  -0.000
   58        0.000   0.000   0.000   0.000
   59        0.000  -0.000   0.000  -0.000
--------------------------------------------------
tot          0.000   0.000  -0.000   0.000

 BZINTS: Fermi energy: -2.185796;280.000000 electrons
         Band energy:***********;  BLOECHL correction:  0.000000

 total amount of memory used by VASP MPI-rank0    91807. kBytes
=======================================================================

   base      :      30000. kBytes
   nonl-proj :      19157. kBytes
   fftplans  :       3349. kBytes
   grid      :       9783. kBytes
   one-center:        155. kBytes
   wavefun   :      29363. kBytes

  
  
 General timing and accounting informations for this job:
 ========================================================
  
                  Total CPU time used (sec):      278.737
                            User time (sec):      277.568
                          System time (sec):        1.169
                         Elapsed time (sec):      280.224
  
                   Maximum memory used (kb):      171660.
                   Average memory used (kb):           0.
  
                          Minor page faults:        50948
                          Major page faults:            1
                 Voluntary context switches:         1192
