       N       E                     dE             d eps       ncg     rms          ort
DAV:   1     0.253973056534E+04    0.25397E+04   -0.11983E+05   688   0.140E+03
DAV:   2    -0.137132324814E+03   -0.26769E+04   -0.25833E+04   688   0.346E+02
DAV:   3    -0.503446386762E+03   -0.36631E+03   -0.36101E+03   688   0.154E+02
DAV:   4    -0.519602472228E+03   -0.16156E+02   -0.15839E+02   688   0.415E+01
DAV:   5    -0.520181537616E+03   -0.57907E+00   -0.57498E+00   688   0.603E+00
SDA:   6    -0.441904986781E+03    0.78277E+02   -0.57498E+00   688   0.208E+03 0.000E+00
CGA:   7    -0.479627162806E+03   -0.37722E+02   -0.37503E+02   688   0.246E+02-0.414E+01
CGA:   8    -0.484149433111E+03   -0.45223E+01   -0.45322E+01   688   0.622E+01 0.443E+00
CGA:   9    -0.485561542255E+03   -0.14121E+01   -0.14354E+01   688   0.239E+01-0.528E+00
CGA:  10    -0.486088128773E+03   -0.52659E+00   -0.52028E+00   688   0.753E+00 0.107E+00
CGA:  11    -0.486305496636E+03   -0.21737E+00   -0.21909E+00   688   0.303E+00-0.177E-01
CGA:  12    -0.486376797796E+03   -0.71301E-01   -0.71340E-01   688   0.138E+00-0.712E-03
CGA:  13    -0.486407791949E+03   -0.30994E-01   -0.30989E-01   688   0.464E-01 0.158E-03
CGA:  14    -0.486421646538E+03   -0.13855E-01   -0.13808E-01   688   0.185E-01 0.407E-03
CGA:  15    -0.486426810188E+03   -0.51637E-02   -0.51644E-02   688   0.951E-02-0.147E-04
CGA:  16    -0.486429159755E+03   -0.23496E-02   -0.23470E-02   688   0.424E-02 0.401E-04
CGA:  17    -0.486430538463E+03   -0.13787E-02   -0.13772E-02   688   0.179E-02 0.682E-05
CGA:  18    -0.486431121438E+03   -0.58297E-03   -0.58221E-03   688   0.111E-02 0.411E-05
CGA:  19    -0.486431403974E+03   -0.28254E-03   -0.28247E-03   688   0.475E-03 0.123E-05
CGA:  20    -0.486431562566E+03   -0.15859E-03   -0.15859E-03   688   0.211E-03-0.320E-06
CGA:  21    -0.486431625921E+03   -0.63355E-04   -0.63460E-04   688   0.105E-03-0.154E-05
   1 F= -.49133522E+03 E0= -.49132585E+03  d E =-.491335E+03  mag=    -0.0001
       N       E                     dE             d eps       ncg     rms          ort
SDA:   1    -0.486399291530E+03    0.32271E-01    0.00000E+00   688   0.783E-01 0.000E+00
CGA:   2    -0.486424326951E+03   -0.25035E-01   -0.25040E-01   688   0.294E-01-0.394E-04
CGA:   3    -0.486431089999E+03   -0.67630E-02   -0.67631E-02   688   0.636E-02 0.138E-05
CGA:   4    -0.486432342321E+03   -0.12523E-02   -0.12525E-02   688   0.142E-02 0.161E-05
CGA:   5    -0.486432654242E+03   -0.31192E-03   -0.31202E-03   688   0.428E-03 0.529E-05
CGA:   6    -0.486432751027E+03   -0.96785E-04   -0.96801E-04   688   0.146E-03 0.933E-06
   2 F= -.49133605E+03 E0= -.49132675E+03  d E =-.835144E-03  mag=    -0.0001
       N       E                     dE             d eps       ncg     rms          ort
SDA:   1    -0.486429128822E+03    0.35254E-02    0.00000E+00   688   0.910E-02 0.000E+00
CGA:   2    -0.486432063164E+03   -0.29343E-02   -0.29342E-02   688   0.337E-02 0.792E-06
CGA:   3    -0.486432844753E+03   -0.78159E-03   -0.78159E-03   688   0.771E-03 0.247E-06
CGA:   4    -0.486432987408E+03   -0.14265E-03   -0.14267E-03   688   0.131E-03 0.206E-06
CGA:   5    -0.486433018710E+03   -0.31303E-04   -0.31299E-04   688   0.326E-04-0.157E-05
   3 F= -.49133642E+03 E0= -.49132710E+03  d E =-.120257E-02  mag=    -0.0001
       N       E                     dE             d eps       ncg     rms          ort
SDA:   1    -0.486425783013E+03    0.72044E-02    0.00000E+00   688   0.202E-01 0.000E+00
CGA:   2    -0.486432531365E+03   -0.67484E-02   -0.67489E-02   688   0.706E-02-0.706E-05
CGA:   3    -0.486434158427E+03   -0.16271E-02   -0.16271E-02   688   0.132E-02 0.391E-05
CGA:   4    -0.486434427230E+03   -0.26880E-03   -0.26870E-03   688   0.353E-03-0.286E-05
CGA:   5    -0.486434500374E+03   -0.73144E-04   -0.73165E-04   688   0.101E-03 0.647E-06
   4 F= -.49133764E+03 E0= -.49132838E+03  d E =-.121452E-02  mag=    -0.0001
       N       E                     dE             d eps       ncg     rms          ort
SDA:   1    -0.486400977334E+03    0.33450E-01    0.00000E+00   688   0.810E-01 0.000E+00
CGA:   2    -0.486428076437E+03   -0.27099E-01   -0.27099E-01   688   0.281E-01-0.422E-05
CGA:   3    -0.486434543407E+03   -0.64670E-02   -0.64670E-02   688   0.553E-02 0.493E-05
CGA:   4    -0.486435721421E+03   -0.11780E-02   -0.11779E-02   688   0.141E-02-0.543E-05
CGA:   5    -0.486436035347E+03   -0.31393E-03   -0.31396E-03   688   0.441E-03 0.156E-05
CGA:   6    -0.486436144675E+03   -0.10933E-03   -0.10933E-03   688   0.190E-03 0.274E-06
CGA:   7    -0.486436200172E+03   -0.55497E-04   -0.55492E-04   688   0.812E-04 0.935E-07
   5 F= -.49133880E+03 E0= -.49132963E+03  d E =-.237402E-02  mag=    -0.0000
       N       E                     dE             d eps       ncg     rms          ort
SDA:   1    -0.486422016062E+03    0.14129E-01    0.00000E+00   688   0.370E-01 0.000E+00
CGA:   2    -0.486434574124E+03   -0.12558E-01   -0.12558E-01   688   0.119E-01-0.319E-05
CGA:   3    -0.486437317510E+03   -0.27434E-02   -0.27435E-02   688   0.227E-02 0.461E-05
CGA:   4    -0.486437780314E+03   -0.46280E-03   -0.46266E-03   688   0.617E-03-0.292E-05
CGA:   5    -0.486437915730E+03   -0.13542E-03   -0.13546E-03   688   0.173E-03 0.156E-05
CGA:   6    -0.486437961264E+03   -0.45534E-04   -0.45532E-04   688   0.718E-04 0.141E-06
   6 F= -.49134033E+03 E0= -.49133116E+03  d E =-.153043E-02  mag=    -0.0000
