 vasp.5.4.4.18Apr17-6-g9f103f2a35 (build Nov  8 2022 18:58:45) complex           
 executed on             LinuxGNU date 2023.04.13  07:12:11
 running on   48 total cores
 distrk:  each k-point on   48 cores,    1 groups
 distr:  one band on NCORES_PER_BAND=  12 cores,    4 groups


--------------------------------------------------------------------------------------------------------


 INCAR:
 POTCAR:    PAW_PBE C 08Apr2002                   
 POTCAR:    PAW_PBE N 08Apr2002                   
 POTCAR:    PAW_PBE Ge_d 03Jul2007                
 POTCAR:    PAW_PBE C 08Apr2002                   
 POTCAR:    PAW_PBE O 08Apr2002                   
 POTCAR:    PAW_PBE C 08Apr2002                   
   SHA256 =  253f7b50bb8d59471dbedb8285d89021f4a42ed1a2c5d38a03a736e69125dd95 C/
   COPYR  = (c) Copyright 08Apr2002 Georg Kresse                                
   COPYR  = This file is part of the software VASP. Any use, copying, and all ot
   COPYR  = If you do not have a valid VASP license, you may not use, copy or di
   VRHFIN =C: s2p2                                                              
   LEXCH  = PE                                                                  
   EATOM  =   147.1560 eV,   10.8157 Ry                                         
                                                                                
   TITEL  = PAW_PBE C 08Apr2002                                                 
   LULTRA =        F    use ultrasoft PP ?                                      
   IUNSCR =        1    unscreen: 0-lin 1-nonlin 2-no                           
   RPACOR =    1.200    partial core radius                                     
   POMASS =   12.011; ZVAL   =    4.000    mass and valenz                      
   RCORE  =    1.500    outmost cutoff radius                                   
   RWIGS  =    1.630; RWIGS  =    0.863    wigner-seitz radius (au A)           
   ENMAX  =  400.000; ENMIN  =  300.000 eV                                      
   ICORE  =        2    local potential                                         
   LCOR   =        T    correct aug charges                                     
   LPAW   =        T    paw PP                                                  
   EAUG   =  644.873                                                            
   DEXC   =    0.000                                                            
   RMAX   =    1.529    core radius for proj-oper                               
   RAUG   =    1.300    factor for augmentation sphere                          
   RDEP   =    1.501    radius for radial grids                                 
   RDEPT  =    1.300    core radius for aug-charge                              
                                                                                
   Atomic configuration                                                         
    4 entries                                                                   
     n  l   j            E        occ.                                          
     1  0  0.50      -273.3789   2.0000                                         
     2  0  0.50       -13.7508   2.0000                                         
     2  1  0.50        -5.2854   2.0000                                         
     3  2  1.50        -5.4423   0.0000                                         
   Description                                                                  
     l       E           TYP  RCUT    TYP  RCUT                                 
     0    -13.7508458     23  1.200                                             
     0     -8.2022199     23  1.200                                             
     1     -5.2854383     23  1.500                                             
     1     34.0145650     23  1.500                                             
     2     -5.4423304      7  1.500                                             
  local pseudopotential read in
  partial core-charges read in
  partial kinetic energy density read in
  atomic valenz-charges read in
  non local Contribution for L=           0  read in
    real space projection operators read in
  non local Contribution for L=           0  read in
    real space projection operators read in
  non local Contribution for L=           1  read in
    real space projection operators read in
  non local Contribution for L=           1  read in
    real space projection operators read in
    PAW grid and wavefunctions read in

   number of l-projection  operators is LMAX  =           4
   number of lm-projection operators is LMMAX =           8

 POTCAR:    PAW_PBE N 08Apr2002                   
   SHA256 =  e053789ff3a61a86a1b75d8a110fcc91f86041011e7b0817c7c99e4e8a6349d7 N/
   COPYR  = (c) Copyright 08Apr2002 Georg Kresse                                
   COPYR  = This file is part of the software VASP. Any use, copying, and all ot
   COPYR  = If you do not have a valid VASP license, you may not use, copy or di
   VRHFIN =N: s2p3                                                              
   LEXCH  = PE                                                                  
   EATOM  =   264.5486 eV,   19.4438 Ry                                         
                                                                                
   TITEL  = PAW_PBE N 08Apr2002                                                 
   LULTRA =        F    use ultrasoft PP ?                                      
   IUNSCR =        1    unscreen: 0-lin 1-nonlin 2-no                           
   RPACOR =    1.200    partial core radius                                     
   POMASS =   14.001; ZVAL   =    5.000    mass and valenz                      
   RCORE  =    1.500    outmost cutoff radius                                   
   RWIGS  =    1.400; RWIGS  =    0.741    wigner-seitz radius (au A)           
   ENMAX  =  400.000; ENMIN  =  300.000 eV                                      
   ICORE  =        2    local potential                                         
   LCOR   =        T    correct aug charges                                     
   LPAW   =        T    paw PP                                                  
   EAUG   =  627.112                                                            
   DEXC   =    0.000                                                            
   RMAX   =    1.529    core radius for proj-oper                               
   RAUG   =    1.300    factor for augmentation sphere                          
   RDEP   =    1.514    radius for radial grids                                 
   RDEPT  =    1.338    core radius for aug-charge                              
                                                                                
   Atomic configuration                                                         
    4 entries                                                                   
     n  l   j            E        occ.                                          
     1  0  0.50      -384.7179   2.0000                                         
     2  0  0.50       -18.5828   2.0000                                         
     2  1  0.50        -7.0898   3.0000                                         
     3  2  1.50        -6.8029   0.0000                                         
   Description                                                                  
     l       E           TYP  RCUT    TYP  RCUT                                 
     0    -18.5828119     23  1.200                                             
     0    -13.5018863     23  1.200                                             
     1     -7.0897853     23  1.500                                             
     1      9.5240782     23  1.500                                             
     2     -6.8029130      7  1.500                                             
  local pseudopotential read in
  partial core-charges read in
  partial kinetic energy density read in
  atomic valenz-charges read in
  non local Contribution for L=           0  read in
    real space projection operators read in
  non local Contribution for L=           0  read in
    real space projection operators read in
  non local Contribution for L=           1  read in
    real space projection operators read in
  non local Contribution for L=           1  read in
    real space projection operators read in
    PAW grid and wavefunctions read in

   number of l-projection  operators is LMAX  =           4
   number of lm-projection operators is LMMAX =           8

 POTCAR:    PAW_PBE Ge_d 03Jul2007                
   SHA256 =  944b26c40d2d7c4f4eb1ff3a2e8dbfdd7129146276cd341854bfd5c0e57780ed Ge
   COPYR  = (c) Copyright 03Jul2007 Georg Kresse                                
   COPYR  = This file is part of the software VASP. Any use, copying, and all ot
   COPYR  = If you do not have a valid VASP license, you may not use, copy or di
   VRHFIN =Ge: 3d4s4p                                                           
   LEXCH  = PE                                                                  
   EATOM  =  2596.2402 eV,  190.8183 Ry                                         
                                                                                
   TITEL  = PAW_PBE Ge_d 03Jul2007                                              
   LULTRA =        F    use ultrasoft PP ?                                      
   IUNSCR =        1    unscreen: 0-lin 1-nonlin 2-no                           
   RPACOR =    2.000    partial core radius                                     
   POMASS =   72.610; ZVAL   =   14.000    mass and valenz                      
   RCORE  =    2.300    outmost cutoff radius                                   
   RWIGS  =    2.300; RWIGS  =    1.217    wigner-seitz radius (au A)           
   ENMAX  =  310.294; ENMIN  =  232.720 eV                                      
   ICORE  =        3    local potential                                         
   LCOR   =        T    correct aug charges                                     
   LPAW   =        T    paw PP                                                  
   EAUG   =  531.356                                                            
   DEXC   =    0.000                                                            
   RMAX   =    2.342    core radius for proj-oper                               
   RAUG   =    1.300    factor for augmentation sphere                          
   RDEP   =    2.318    radius for radial grids                                 
   RDEPT  =    1.783    core radius for aug-charge                              
                                                                                
   Atomic configuration                                                         
    9 entries                                                                   
     n  l   j            E        occ.                                          
     1  0  0.50    -10959.8463   2.0000                                         
     2  0  0.50     -1371.6056   2.0000                                         
     2  1  1.50     -1198.4791   6.0000                                         
     3  0  0.50      -168.4733   2.0000                                         
     3  1  1.50      -115.6019   6.0000                                         
     3  2  2.50       -29.3106  10.0000                                         
     4  0  0.50       -11.7309   2.0000                                         
     4  1  0.50        -3.8952   2.0000                                         
     4  3  2.50        -4.0817   0.0000                                         
   Description                                                                  
     l       E           TYP  RCUT    TYP  RCUT                                 
     2    -29.3105938     23  2.200                                             
     2    -13.6058260     23  2.200                                             
     0    -11.7309493     23  2.300                                             
     0     -7.4578696     23  2.300                                             
     1     -3.8952261     23  2.300                                             
     1      6.1178114     23  2.300                                             
     3     -1.3605826     23  2.300                                             
  local pseudopotential read in
  partial core-charges read in
  partial kinetic energy density read in
  atomic valenz-charges read in
  non local Contribution for L=           2  read in
    real space projection operators read in
  non local Contribution for L=           2  read in
    real space projection operators read in
  non local Contribution for L=           0  read in
    real space projection operators read in
  non local Contribution for L=           0  read in
    real space projection operators read in
  non local Contribution for L=           1  read in
    real space projection operators read in
  non local Contribution for L=           1  read in
    real space projection operators read in
    PAW grid and wavefunctions read in

   number of l-projection  operators is LMAX  =           6
   number of lm-projection operators is LMMAX =          18

 POTCAR:    PAW_PBE C 08Apr2002                   
   SHA256 =  253f7b50bb8d59471dbedb8285d89021f4a42ed1a2c5d38a03a736e69125dd95 C/
   COPYR  = (c) Copyright 08Apr2002 Georg Kresse                                
   COPYR  = This file is part of the software VASP. Any use, copying, and all ot
   COPYR  = If you do not have a valid VASP license, you may not use, copy or di
   VRHFIN =C: s2p2                                                              
   LEXCH  = PE                                                                  
   EATOM  =   147.1560 eV,   10.8157 Ry                                         
                                                                                
   TITEL  = PAW_PBE C 08Apr2002                                                 
   LULTRA =        F    use ultrasoft PP ?                                      
   IUNSCR =        1    unscreen: 0-lin 1-nonlin 2-no                           
   RPACOR =    1.200    partial core radius                                     
   POMASS =   12.011; ZVAL   =    4.000    mass and valenz                      
   RCORE  =    1.500    outmost cutoff radius                                   
   RWIGS  =    1.630; RWIGS  =    0.863    wigner-seitz radius (au A)           
   ENMAX  =  400.000; ENMIN  =  300.000 eV                                      
   ICORE  =        2    local potential                                         
   LCOR   =        T    correct aug charges                                     
   LPAW   =        T    paw PP                                                  
   EAUG   =  644.873                                                            
   DEXC   =    0.000                                                            
   RMAX   =    1.529    core radius for proj-oper                               
   RAUG   =    1.300    factor for augmentation sphere                          
   RDEP   =    1.501    radius for radial grids                                 
   RDEPT  =    1.300    core radius for aug-charge                              
                                                                                
   Atomic configuration                                                         
    4 entries                                                                   
     n  l   j            E        occ.                                          
     1  0  0.50      -273.3789   2.0000                                         
     2  0  0.50       -13.7508   2.0000                                         
     2  1  0.50        -5.2854   2.0000                                         
     3  2  1.50        -5.4423   0.0000                                         
   Description                                                                  
     l       E           TYP  RCUT    TYP  RCUT                                 
     0    -13.7508458     23  1.200                                             
     0     -8.2022199     23  1.200                                             
     1     -5.2854383     23  1.500                                             
     1     34.0145650     23  1.500                                             
     2     -5.4423304      7  1.500                                             
  local pseudopotential read in
  partial core-charges read in
  partial kinetic energy density read in
  atomic valenz-charges read in
  non local Contribution for L=           0  read in
    real space projection operators read in
  non local Contribution for L=           0  read in
    real space projection operators read in
  non local Contribution for L=           1  read in
    real space projection operators read in
  non local Contribution for L=           1  read in
    real space projection operators read in
    PAW grid and wavefunctions read in

   number of l-projection  operators is LMAX  =           4
   number of lm-projection operators is LMMAX =           8

 POTCAR:    PAW_PBE O 08Apr2002                   
   SHA256 =  818f92134a0a090dccd8ba1447fa70422a3b330e708bb4f08108d8ae51209ddf O/
   COPYR  = (c) Copyright 08Apr2002 Georg Kresse                                
   COPYR  = This file is part of the software VASP. Any use, copying, and all ot
   COPYR  = If you do not have a valid VASP license, you may not use, copy or di
   VRHFIN =O: s2p4                                                              
   LEXCH  = PE                                                                  
   EATOM  =   432.3788 eV,   31.7789 Ry                                         
                                                                                
   TITEL  = PAW_PBE O 08Apr2002                                                 
   LULTRA =        F    use ultrasoft PP ?                                      
   IUNSCR =        1    unscreen: 0-lin 1-nonlin 2-no                           
   RPACOR =    1.200    partial core radius                                     
   POMASS =   16.000; ZVAL   =    6.000    mass and valenz                      
   RCORE  =    1.520    outmost cutoff radius                                   
   RWIGS  =    1.550; RWIGS  =    0.820    wigner-seitz radius (au A)           
   ENMAX  =  400.000; ENMIN  =  300.000 eV                                      
   ICORE  =        2    local potential                                         
   LCOR   =        T    correct aug charges                                     
   LPAW   =        T    paw PP                                                  
   EAUG   =  605.392                                                            
   DEXC   =    0.000                                                            
   RMAX   =    1.553    core radius for proj-oper                               
   RAUG   =    1.300    factor for augmentation sphere                          
   RDEP   =    1.550    radius for radial grids                                 
   RDEPT  =    1.329    core radius for aug-charge                              
                                                                                
   Atomic configuration                                                         
    4 entries                                                                   
     n  l   j            E        occ.                                          
     1  0  0.50      -514.6923   2.0000                                         
     2  0  0.50       -23.9615   2.0000                                         
     2  1  0.50        -9.0305   4.0000                                         
     3  2  1.50        -9.5241   0.0000                                         
   Description                                                                  
     l       E           TYP  RCUT    TYP  RCUT                                 
     0    -23.9615318     23  1.200                                             
     0     -9.5240782     23  1.200                                             
     1     -9.0304911     23  1.520                                             
     1      8.1634956     23  1.520                                             
     2     -9.5240782      7  1.500                                             
  local pseudopotential read in
  partial core-charges read in
  partial kinetic energy density read in
  kinetic energy density of atom read in
  atomic valenz-charges read in
  non local Contribution for L=           0  read in
    real space projection operators read in
  non local Contribution for L=           0  read in
    real space projection operators read in
  non local Contribution for L=           1  read in
    real space projection operators read in
  non local Contribution for L=           1  read in
    real space projection operators read in
    PAW grid and wavefunctions read in

   number of l-projection  operators is LMAX  =           4
   number of lm-projection operators is LMMAX =           8

 Optimization of the real space projectors (new method)

 maximal supplied QI-value         = 25.13
 optimisation between [QCUT,QGAM] = [ 10.56, 21.36] = [ 31.20,127.80] Ry 
 Optimized for a Real-space Cutoff    1.24 Angstroem

   l    n(q)    QCUT    max X(q) W(low)/X(q) W(high)/X(q)  e(spline) 
   0      8    10.556   115.676    0.42E-03    0.71E-03    0.20E-06
   0      8    10.556    87.132    0.41E-03    0.71E-03    0.20E-06
   1      7    10.556     4.429    0.22E-03    0.39E-03    0.12E-06
   1      7    10.556     2.733    0.16E-03    0.27E-03    0.14E-06
 Optimization of the real space projectors (new method)

 maximal supplied QI-value         = 25.13
 optimisation between [QCUT,QGAM] = [ 10.56, 21.36] = [ 31.20,127.80] Ry 
 Optimized for a Real-space Cutoff    1.24 Angstroem

   l    n(q)    QCUT    max X(q) W(low)/X(q) W(high)/X(q)  e(spline) 
   0      8    10.556    79.467    0.40E-03    0.66E-03    0.17E-06
   0      8    10.556    66.151    0.40E-03    0.66E-03    0.17E-06
   1      7    10.556    12.181    0.19E-03    0.18E-02    0.13E-05
   1      7    10.556     8.434    0.21E-03    0.18E-02    0.13E-05
 Optimization of the real space projectors (new method)

 maximal supplied QI-value         = 16.25
 optimisation between [QCUT,QGAM] = [ 10.73, 21.45] = [ 32.22,128.87] Ry 
 Optimized for a Real-space Cutoff    1.40 Angstroem

   l    n(q)    QCUT    max X(q) W(low)/X(q) W(high)/X(q)  e(spline) 
   2      8    10.726     8.936    0.24E-03    0.48E-03    0.17E-06
   2      8    10.726     8.183    0.29E-03    0.63E-03    0.25E-06
   0      9    10.726    62.777    0.12E-03    0.98E-05    0.77E-07
   0      9    10.726    50.556    0.12E-03    0.95E-05    0.75E-07
   1      8    10.726    38.422    0.54E-04    0.12E-03    0.11E-06
   1      8    10.726    22.623    0.50E-04    0.11E-03    0.10E-06
 Optimization of the real space projectors (new method)

 maximal supplied QI-value         = 25.13
 optimisation between [QCUT,QGAM] = [ 10.56, 21.36] = [ 31.20,127.80] Ry 
 Optimized for a Real-space Cutoff    1.24 Angstroem

   l    n(q)    QCUT    max X(q) W(low)/X(q) W(high)/X(q)  e(spline) 
   0      8    10.556   115.676    0.42E-03    0.71E-03    0.20E-06
   0      8    10.556    87.132    0.41E-03    0.71E-03    0.20E-06
   1      7    10.556     4.429    0.22E-03    0.39E-03    0.12E-06
   1      7    10.556     2.733    0.16E-03    0.27E-03    0.14E-06
 Optimization of the real space projectors (new method)

 maximal supplied QI-value         = 24.76
 optimisation between [QCUT,QGAM] = [ 10.64, 21.29] = [ 31.73,126.92] Ry 
 Optimized for a Real-space Cutoff    1.24 Angstroem

   l    n(q)    QCUT    max X(q) W(low)/X(q) W(high)/X(q)  e(spline) 
   0      8    10.645    20.381    0.39E-03    0.65E-03    0.15E-06
   0      8    10.645    15.268    0.42E-03    0.70E-03    0.17E-06
   1      7    10.645     5.964    0.38E-03    0.66E-03    0.17E-06
   1      7    10.645     5.382    0.31E-03    0.55E-03    0.16E-06
  PAW_PBE C 08Apr2002                   :
 energy of atom  1       EATOM= -147.1560
 kinetic energy error for atom=    0.0132 (will be added to EATOM!!)
  PAW_PBE N 08Apr2002                   :
 energy of atom  2       EATOM= -264.5486
 kinetic energy error for atom=    0.0298 (will be added to EATOM!!)
  PAW_PBE Ge_d 03Jul2007                :
 energy of atom  3       EATOM=-2596.2402
 kinetic energy error for atom=    0.0090 (will be added to EATOM!!)
  PAW_PBE C 08Apr2002                   :
 energy of atom  4       EATOM= -147.1560
 kinetic energy error for atom=    0.0132 (will be added to EATOM!!)
  PAW_PBE O 08Apr2002                   :
 energy of atom  5       EATOM= -432.3788
 kinetic energy error for atom=    0.0458 (will be added to EATOM!!)


 POSCAR: POSCAR-c3n4                             
  positions in direct lattice
  velocities in cartesian coordinates
 exchange correlation table for  LEXCH =        8
   RHO(1)=    0.500       N(1)  =     2000
   RHO(2)=  100.500       N(2)  =     4000



--------------------------------------------------------------------------------------------------------


 ion  position               nearest neighbor table
   1  0.081  0.221  0.397-  46 1.31  26 1.38  25 1.45
   2  0.269  0.340  0.280-  29 1.30  35 1.40  25 1.40
   3  0.127  0.438  0.304-  44 1.30  39 1.38  25 1.43
   4  0.437  0.094  0.663-  30 1.30  27 1.40  48 1.40
   5  0.420  0.273  0.328-  28 1.31  29 1.35  56 1.42
   6  0.155  0.190  0.569-  31 1.32  26 1.34  32 1.38
   7  0.075  0.749  0.527-  54 1.33  33 1.37  34 1.38
   8  0.219  0.882  0.680-  33 1.29  37 1.35  27 1.51
   9  0.222  0.101  0.705-  52 1.34  31 1.35  27 1.41
  10  0.441  0.497  0.385-  35 1.30  38 1.37  56 1.40
  11  0.398  0.847  0.687-  37 1.30  36 1.35  48 1.44
  12  0.105  0.592  0.424-  34 1.32  39 1.35  40 1.36
  13  0.613  0.242  0.546-  42 1.33  30 1.37  55 1.37
  14  0.807  0.493  0.245-  41 1.30  51 1.39  45 1.40
  15  0.625  0.288  0.338-  41 1.30  28 1.34  55 1.56
  16  0.936  0.007  0.481-  43 1.31  46 1.35  32 1.41
  17  0.018  0.545  0.233-  45 1.30  44 1.36  40 1.43
  18  0.615  0.045  0.605-  47 1.31  42 1.34  48 1.41
  19  0.577  0.614  0.542-  50 1.32  38 1.39  49 1.40
  20  0.786  0.830  0.593-  53 1.32  43 1.35  49 1.43
  21  0.580  0.821  0.634-  36 1.33  47 1.35  49 1.40
  22  0.936  0.653  0.373-  51 1.30  54 1.34  40 1.43
  23  0.992  0.983  0.675-  52 1.33  53 1.33  32 1.41
  24  0.594  0.432  0.469-  50 1.33  55 1.38  56 1.38
  25  0.130  0.309  0.297-   2 1.40   3 1.43   1 1.45
  26  0.171  0.282  0.487-   6 1.34   1 1.38  57 2.26
  27  0.305  0.039  0.714-   4 1.40   9 1.41   8 1.51
  28  0.489  0.208  0.306-   5 1.31  15 1.34
  29  0.291  0.234  0.286-   2 1.30   5 1.35
  30  0.506  0.220  0.616-   4 1.30  13 1.37
  31  0.259  0.213  0.636-   6 1.32   9 1.35
  32  0.026  0.061  0.574-   6 1.38  23 1.41  16 1.41
  33  0.128  0.857  0.604-   8 1.29   7 1.37
  34  0.131  0.662  0.519-  12 1.32   7 1.38
  35  0.363  0.487  0.300-  10 1.30   2 1.40
  36  0.450  0.760  0.674-  21 1.33  11 1.35
  37  0.266  0.796  0.714-  11 1.30   8 1.35
  38  0.463  0.587  0.473-  10 1.37  19 1.39  57 2.16
  39  0.147  0.498  0.409-  12 1.35   3 1.38  57 2.12
  40  0.029  0.605  0.340-  12 1.36  17 1.43  22 1.43
  41  0.717  0.357  0.260-  15 1.30  14 1.30
  42  0.680  0.169  0.547-  13 1.33  18 1.34
  43  0.820  0.880  0.488-  16 1.31  20 1.35
  44  0.091  0.477  0.214-   3 1.30  17 1.36
  45  0.914  0.523  0.168-  17 1.30  14 1.40
  46  0.971  0.091  0.389-   1 1.31  16 1.35
  47  0.668  0.961  0.607-  18 1.31  21 1.35
  48  0.482  0.995  0.654-   4 1.40  18 1.41  11 1.44
  49  0.638  0.737  0.609-  19 1.40  21 1.40  20 1.43
  50  0.645  0.544  0.537-  19 1.32  24 1.33
  51  0.817  0.597  0.318-  22 1.30  14 1.39
  52  0.094  0.018  0.749-  23 1.33   9 1.34
  53  0.861  0.871  0.686-  20 1.32  23 1.33
  54  0.977  0.743  0.460-   7 1.33  22 1.34
  55  0.644  0.340  0.462-  13 1.37  24 1.38  15 1.56
  56  0.483  0.398  0.396-  24 1.38  10 1.40   5 1.42
  57  0.261  0.507  0.554-  39 2.12  38 2.16  26 2.26
  58  0.299  0.450  0.840-  59 1.14
  59  0.267  0.454  0.930-  58 1.14


IMPORTANT INFORMATION: All symmetrisations will be switched off!
NOSYMM: (Re-)initialisation of all symmetry stuff for point group C_1.



 KPOINTS: K-Points                                

Automatic generation of k-mesh.
Space group operators:
 irot       det(A)        alpha          n_x          n_y          n_z        tau_x        tau_y        tau_z
    1     1.000000     0.000002     1.000000     0.000000     0.000000     0.000000     0.000000     0.000000
 
 Subroutine IBZKPT returns following result:
 ===========================================
 
 Found      4 irreducible k-points:
 
 Following reciprocal coordinates:
            Coordinates               Weight
  0.000000  0.000000  0.000000      1.000000
  0.500000  0.000000  0.000000      1.000000
  0.000000  0.500000  0.000000      1.000000
  0.500000  0.500000  0.000000      1.000000
 
 Following cartesian coordinates:
            Coordinates               Weight
  0.000000  0.000000  0.000000      1.000000
  0.036415  0.021552  0.000000      1.000000
  0.000594  0.043104  0.000000      1.000000
  0.037009  0.064656  0.000000      1.000000
 


--------------------------------------------------------------------------------------------------------




 Dimension of arrays:
   k-points           NKPTS =      4   k-points in BZ     NKDIM =      4   number of bands    NBANDS=    172
   number of dos      NEDOS =    301   number of ions     NIONS =     59
   non local maximal  LDIM  =      6   non local SUM 2l+1 LMDIM =     18
   total plane-waves  NPLWV = 215040
   max r-space proj   IRMAX =   2038   max aug-charges    IRDMAX=   6063
   dimension x,y,z NGX =    60 NGY =   56 NGZ =   64
   dimension x,y,z NGXF=   120 NGYF=  112 NGZF=  128
   support grid    NGXF=   120 NGYF=  112 NGZF=  128
   ions per type =              24  32   1   1   1
   NGX,Y,Z   is equivalent  to a cutoff of   9.01,  8.56,  8.87 a.u.
   NGXF,Y,Z  is equivalent  to a cutoff of  18.01, 17.13, 17.73 a.u.

 SYSTEM =  unknown system                          
 POSCAR =  POSCAR-c3n4                             

 Startparameter for this run:
   NWRITE =      2    write-flag & timer
   PREC   = normal    normal or accurate (medium, high low for compatibility)
   ISTART =      0    job   : 0-new  1-cont  2-samecut
   ICHARG =      2    charge: 1-file 2-atom 10-const
   ISPIN  =      2    spin polarized calculation?
   LNONCOLLINEAR =      F non collinear calculations
   LSORBIT =      F    spin-orbit coupling
   INIWAV =      1    electr: 0-lowe 1-rand  2-diag
   LASPH  =      F    aspherical Exc in radial PAW
   METAGGA=      F    non-selfconsistent MetaGGA calc.

 Electronic Relaxation 1
   ENCUT  =  440.0 eV  32.34 Ry    5.69 a.u.  18.94 18.59 20.52*2*pi/ulx,y,z
   ENINI  =  440.0     initial cutoff
   ENAUG  =  644.9 eV  augmentation charge cutoff
   NELM   =     50;   NELMIN=  2; NELMDL= -5     # of ELM steps 
   EDIFF  = 0.1E-03   stopping-criterion for ELM
   LREAL  =      T    real-space projection
   NLSPLINE    = F    spline interpolate recip. space projectors
   LCOMPAT=      F    compatible to vasp.4.4
   GGA_COMPAT  = T    GGA compatible to vasp.4.4-vasp.4.6
   LMAXPAW     = -100 max onsite density
   LMAXMIX     =    2 max onsite mixed and CHGCAR
   VOSKOWN=      0    Vosko Wilk Nusair interpolation
   ROPT   =   -0.00050  -0.00050  -0.00050  -0.00050
   ROPT   =   -0.00050
 Ionic relaxation
   EDIFFG = -.1E+00   stopping-criterion for IOM
   NSW    =    400    number of steps for IOM
   NBLOCK =      1;   KBLOCK =    400    inner block; outer block 
   IBRION =      2    ionic relax: 0-MD 1-quasi-New 2-CG
   NFREE  =      1    steps in history (QN), initial steepest desc. (CG)
   ISIF   =      2    stress and relaxation
   IWAVPR =     11    prediction:  0-non 1-charg 2-wave 3-comb
   ISYM   =      0    0-nonsym 1-usesym 2-fastsym
   LCORR  =      T    Harris-Foulkes like correction to forces

   POTIM  = 0.2000    time-step for ionic-motion
   TEIN   =    0.0    initial temperature
   TEBEG  =    0.0;   TEEND  =   0.0 temperature during run
   SMASS  =  -3.00    Nose mass-parameter (am)
   estimated Nose-frequenzy (Omega)   =  0.10E-29 period in steps =****** mass=  -0.280E-26a.u.
   SCALEE = 1.0000    scale energy and forces
   NPACO  =    256;   APACO  = 16.0  distance and # of slots for P.C.
   PSTRESS=    0.0 pullay stress

  Mass of Ions in am
   POMASS =  12.01 14.00 72.61 12.01 16.00
  Ionic Valenz
   ZVAL   =   4.00  5.00 14.00  4.00  6.00
  Atomic Wigner-Seitz radii
   RWIGS  =  -1.00 -1.00 -1.00 -1.00 -1.00
  virtual crystal weights 
   VCA    =   1.00  1.00  1.00  1.00  1.00
   NELECT =     280.0000    total number of electrons
   NUPDOWN=      -1.0000    fix difference up-down

 DOS related values:
   EMIN   =  10.00;   EMAX   =-10.00  energy-range for DOS
   EFERMI =   0.00
   ISMEAR =     0;   SIGMA  =   0.10  broadening in eV -4-tet -1-fermi 0-gaus

 Electronic relaxation 2 (details)
   IALGO  =     58    algorithm
   LDIAG  =      T    sub-space diagonalisation (order eigenvalues)
   LSUBROT=      F    optimize rotation matrix (better conditioning)
   TURBO    =      0    0=normal 1=particle mesh
   IRESTART =      0    0=no restart 2=restart with 2 vectors
   NREBOOT  =      0    no. of reboots
   NMIN     =      0    reboot dimension
   EREF     =   0.00    reference energy to select bands
   IMIX   =      4    mixing-type and parameters
     AMIX     =   0.05;   BMIX     =  0.00
     AMIX_MAG =   0.20;   BMIX_MAG =  0.00
     AMIN     =   0.05
     WC   =   100.;   INIMIX=   1;  MIXPRE=   1;  MAXMIX= -45

 Intra band minimization:
   WEIMIN = 0.0010     energy-eigenvalue tresh-hold
   EBREAK =  0.15E-06  absolut break condition
   DEPER  =   0.30     relativ break condition  

   TIME   =   0.40     timestep for ELM

  volume/ion in A,a.u.               =      20.90       141.06
  Fermi-wavevector in a.u.,A,eV,Ry     =   0.998716  1.887300 13.570919  0.997434
  Thomas-Fermi vector in A             =   2.130958

 Write flags
   LWAVE        =      F    write WAVECAR
   LDOWNSAMPLE  =      F    k-point downsampling of WAVECAR
   LCHARG       =      F    write CHGCAR
   LVTOT        =      F    write LOCPOT, total local potential
   LVHAR        =      F    write LOCPOT, Hartree potential only
   LELF         =      F    write electronic localiz. function (ELF)
   LORBIT       =      0    0 simple, 1 ext, 2 COOP (PROOUT), +10 PAW based schemes


 Dipole corrections
   LMONO  =      F    monopole corrections only (constant potential shift)
   LDIPOL =      F    correct potential (dipole corrections)
   IDIPOL =      0    1-x, 2-y, 3-z, 4-all directions 
   EPSILON=  1.0000000 bulk dielectric constant

 Exchange correlation treatment:
   GGA     =    --    GGA type
   LEXCH   =     8    internal setting for exchange type
   VOSKOWN=      0    Vosko Wilk Nusair interpolation
   LHFCALC =     F    Hartree Fock is set to
   LHFONE  =     F    Hartree Fock one center treatment
   AEXX    =    0.0000 exact exchange contribution

 Linear response parameters
   LEPSILON=     F    determine dielectric tensor
   LRPA    =     F    only Hartree local field effects (RPA)
   LNABLA  =     F    use nabla operator in PAW spheres
   LVEL    =     F    velocity operator in full k-point grid
   LINTERFAST=   F  fast interpolation
   KINTER  =     0    interpolate to denser k-point grid
   CSHIFT  =0.1000    complex shift for real part using Kramers Kronig
   OMEGAMAX=  -1.0    maximum frequency
   DEG_THRESHOLD= 0.2000000E-02 threshold for treating states as degnerate
   RTIME   =   -0.100 relaxation time in fs
  (WPLASMAI=    0.000 imaginary part of plasma frequency in eV, 0.658/RTIME)
   DFIELD  = 0.0000000 0.0000000 0.0000000 field for delta impulse in time

 Orbital magnetization related:
   ORBITALMAG=     F  switch on orbital magnetization
   LCHIMAG   =     F  perturbation theory with respect to B field
   DQ        =  0.001000  dq finite difference perturbation B field
   LLRAUG    =     F  two centre corrections for induced B field



--------------------------------------------------------------------------------------------------------


 conjugate gradient relaxation of ions
 charge density and potential will be updated during run
 spin polarized calculation
 Conjugate gradient for all bands (Freysoldt, et al. PRB 79, 241103 (2009))
 preconditioned conjugated gradient                                        
 perform sub-space diagonalisation
    before iterative eigenvector-optimisation
 modified Broyden-mixing scheme, WC =      100.0
 initial mixing is a Kerker type mixing with AMIX =  0.0500 and BMIX =      0.0001
 Hartree-type preconditioning will be used
 using additional bands           32
 real space projection scheme for non local part
 use partial core corrections
 no Harris-corrections to forces 
 use gradient corrections 
 use of overlap-Matrix (Vanderbilt PP)
 Gauss-broadening in eV      SIGMA  =   0.10


--------------------------------------------------------------------------------------------------------


  energy-cutoff  :      440.00
  volume of cell :     1233.26
      direct lattice vectors                 reciprocal lattice vectors
    11.074739388 -0.152592379  0.000000000     0.091037962  0.053880143 -0.000000000
    -5.537369694  9.356152795  0.000000000     0.001484766  0.107760286 -0.000000000
     0.000000000  0.000000000 12.000000000    -0.000000000 -0.000000000  0.083333333

  length of vectors
    11.075790579 10.871985019 12.000000000     0.105787430  0.107770514  0.083333333



 k-points in units of 2pi/SCALE and weight: K-Points                                
   0.00000000  0.00000000  0.00000000       0.250
   0.03641518  0.02155206  0.00000000       0.250
   0.00059391  0.04310411  0.00000000       0.250
   0.03700909  0.06465617  0.00000000       0.250

 k-points in reciprocal lattice and weights: K-Points                                
   0.00000000  0.00000000  0.00000000       0.250
   0.50000000  0.00000000  0.00000000       0.250
   0.00000000  0.50000000  0.00000000       0.250
   0.50000000  0.50000000  0.00000000       0.250

 position of ions in fractional coordinates (direct lattice) 
   0.08145312  0.22079744  0.39679057
   0.26885027  0.33969947  0.27991479
   0.12732741  0.43829927  0.30392305
   0.43708807  0.09370378  0.66329800
   0.41964882  0.27295482  0.32780626
   0.15454455  0.18993405  0.56866880
   0.07513552  0.74858096  0.52728697
   0.21897351  0.88197304  0.68028423
   0.22230196  0.10140080  0.70480132
   0.44062439  0.49720903  0.38484900
   0.39757087  0.84658205  0.68702619
   0.10473631  0.59195538  0.42394325
   0.61325459  0.24218028  0.54634235
   0.80696810  0.49294142  0.24516456
   0.62472765  0.28761627  0.33833956
   0.93616996  0.00708125  0.48077032
   0.01825540  0.54479360  0.23257444
   0.61493003  0.04520551  0.60453162
   0.57663738  0.61431962  0.54153318
   0.78626239  0.83045629  0.59332772
   0.58002171  0.82140107  0.63414642
   0.93612008  0.65318484  0.37252395
   0.99245302  0.98317951  0.67468906
   0.59401114  0.43219710  0.46858233
   0.13024702  0.30857101  0.29715494
   0.17062262  0.28161368  0.48665878
   0.30514885  0.03850529  0.71412595
   0.48874873  0.20770172  0.30633564
   0.29115812  0.23385268  0.28585717
   0.50627482  0.21999076  0.61643636
   0.25870044  0.21321798  0.63606051
   0.02572492  0.06124526  0.57437014
   0.12761843  0.85737967  0.60398718
   0.13094160  0.66165614  0.51900755
   0.36267627  0.48663804  0.29974083
   0.44978685  0.75975480  0.67445590
   0.26600823  0.79638691  0.71438486
   0.46330860  0.58668545  0.47325143
   0.14738441  0.49774406  0.40872023
   0.02901276  0.60479082  0.34042476
   0.71674998  0.35655711  0.26017108
   0.67966830  0.16933237  0.54742550
   0.81992623  0.88036049  0.48813612
   0.09142150  0.47748951  0.21356848
   0.91423966  0.52307395  0.16789226
   0.97111258  0.09060038  0.38856325
   0.66762799  0.96132665  0.60732542
   0.48196916  0.99518635  0.65386482
   0.63754911  0.73663992  0.60913613
   0.64473723  0.54435296  0.53671343
   0.81721077  0.59724908  0.31790413
   0.09357477  0.01753894  0.74923737
   0.86118938  0.87076262  0.68609980
   0.97661976  0.74270347  0.46043514
   0.64427718  0.33969468  0.46190981
   0.48339713  0.39751344  0.39620158
   0.26121524  0.50732347  0.55350051
   0.29900534  0.45019065  0.84001297
   0.26720104  0.45404536  0.92981205

 position of ions in cartesian coordinates  (Angst):
  -0.32056497  2.05338550  4.76148685
   1.09640512  3.13725567  3.35897745
  -1.01690724  4.08136571  3.64707657
   4.32176407  0.81001054  7.95957605
   3.13604954  2.48977180  3.93367517
   0.65980557  1.75346968  6.82402560
  -3.31306318  6.99237271  6.32744362
  -2.45873628  8.21846085  8.16341074
   1.90044262  0.91479978  8.45761584
   2.12657012  4.58472772  4.61818798
  -0.28484399  7.86008469  8.24431424
  -2.11794841  5.52244302  5.08731898
   5.45059299  2.17229773  6.55610818
   6.20736248  4.48889808  2.94197470
   5.32605829  2.59565307  4.06007476
  10.32862677 -0.07659912  5.76924383
  -2.81454982  5.09438656  2.79089323
   6.55987021  0.32911603  7.25437945
   2.98439386  5.65967778  6.49839818
   4.10910753  7.64989827  7.11993260
   1.87518792  7.59664702  7.60975707
   6.75036002  5.96845237  4.47028744
   5.54693009  9.04733695  8.09626867
   4.18528346  3.95306049  5.62298793
  -0.26621997  2.86716283  3.56585927
   0.33020205  2.60878491  5.83990532
   3.16622599  0.31369798  8.56951139
   4.26264353  1.86870972  3.67602766
   1.92957161  2.14353288  3.43028607
   4.38869152  1.98101345  7.39723630
   1.68437322  1.95542425  7.63272614
  -0.05424086  0.56909462  6.89244166
  -3.33428733  8.00230161  7.24784616
  -2.21369058  6.17057528  6.22809060
   1.32185046  4.49771824  3.59688999
   0.77422896  7.03974794  8.09347079
  -1.46391690  7.41052679  8.57261836
   1.88232778  5.41842132  5.67901711
  -1.12394895  4.63447977  4.90464276
  -3.02764161  5.65408823  4.08509714
   5.96343075  3.22663221  3.12205301
   6.58949336  1.48058733  6.56910597
   4.20558781  8.11167276  5.85763342
  -1.63156664  4.45351458  2.56282173
   7.22851220  4.75445377  2.01470708
  10.25313090  0.69948661  4.66275894
   2.07058489  8.89244411  7.28790506
  -0.17303193  9.23757071  7.84637788
   2.98164274  6.79483047  7.30963350
   4.12601318  4.99466748  6.44056112
   5.74320736  5.46325356  3.81484960
   0.93919656  0.14981820  8.99084847
   4.71571342  8.01557718  8.23319765
   6.70318563  6.79982239  5.52522167
   5.25418684  3.07992352  5.54291777
   3.15231832  3.64543377  4.75441892
   0.08365314  4.70673642  6.64200609
   0.81853415  4.16642654 10.08015560
   0.44496487  4.20734497 11.15774464



--------------------------------------------------------------------------------------------------------


 k-point  1 :   0.0000 0.0000 0.0000  plane waves:   25855
 k-point  2 :   0.5000 0.0000 0.0000  plane waves:   25874
 k-point  3 :   0.0000 0.5000 0.0000  plane waves:   25790
 k-point  4 :   0.5000 0.5000 0.0000  plane waves:   25900

 maximum and minimum number of plane-waves per node :      2174     2136

 maximum number of plane-waves:     25900
 maximum index in each direction: 
   IXMAX=   18   IYMAX=   18   IZMAX=   20
   IXMIN=  -19   IYMIN=  -19   IZMIN=  -20


 real space projection operators:
  total allocation   :       5177.19 KBytes
  max/ min on nodes  :        441.08        421.27


 parallel 3D FFT for wavefunctions:
    minimum data exchange during FFTs selected (reduces bandwidth)
 parallel 3D FFT for charge:
    minimum data exchange during FFTs selected (reduces bandwidth)


 total amount of memory used by VASP MPI-rank0    77417. kBytes
=======================================================================

   base      :      30000. kBytes
   nonlr-proj:       2528. kBytes
   fftplans  :       1974. kBytes
   grid      :       5974. kBytes
   one-center:        155. kBytes
   wavefun   :      36786. kBytes

     INWAV:  cpu time    0.0001: real time    0.0005
 Broyden mixing: mesh for mixing (old mesh)
   NGX = 37   NGY = 37   NGZ = 41
  (NGX  =120   NGY  =112   NGZ  =128)
  gives a total of  56129 points

 initial charge density was supplied:
 charge density of overlapping atoms calculated
 number of electron     280.0000000 magnetization       2.0000000
 keeping initial charge density in first step


--------------------------------------------------------------------------------------------------------


 Maximum index for non-local projection operator          153
 Maximum index for augmentation-charges          172 (set IRDMAX)


--------------------------------------------------------------------------------------------------------


 First call to EWALD:  gamma=   0.165
 Maximum number of real-space cells 3x 3x 3
 Maximum number of reciprocal cells 3x 3x 3

    FEWALD:  cpu time    0.0025: real time    0.0025


--------------------------------------- Iteration      1(   1)  ---------------------------------------


    POTLOK:  cpu time    0.0559: real time    0.0561
    SETDIJ:  cpu time    0.0094: real time    0.0095
    TRIAL :  cpu time    2.8616: real time    2.9131
    CORREC:  cpu time    0.0006: real time    0.0006
    --------------------------------------------
      LOOP:  cpu time    2.9336: real time    3.0313

 eigenvalue-minimisations  :  2864
 total energy-change (2. order) : 0.2539731E+04  (-0.1198288E+05)
 number of electron     280.0000000 magnetization       2.0000000
 augmentation part      280.0000000 magnetization       2.0000000

 Free energy of the ion-electron system (eV)
  ---------------------------------------------------
  alpha Z        PSCENC =       302.14145564
  Ewald energy   TEWEN  =      9702.06565513
  -Hartree energ DENC   =    -22386.43843372
  -exchange      EXHF   =         0.00000000
  -V(xc)+E(xc)   XCENC  =      1069.34561494
  PAW double counting   =     11453.83848114   -11942.90478952
  entropy T*S    EENTRO =        -0.04071564
  eigenvalues    EBANDS =      -830.01285480
  atomic energy  EATOM  =     15171.73615219
  ---------------------------------------------------
  free energy    TOTEN  =      2539.73056534 eV

  energy without entropy =     2539.77128098  energy(sigma->0) =     2539.75092316


--------------------------------------------------------------------------------------------------------




--------------------------------------- Iteration      1(   2)  ---------------------------------------


    TRIAL :  cpu time    3.3860: real time    3.4251
    CORREC:  cpu time    0.0007: real time    0.0007
    --------------------------------------------
      LOOP:  cpu time    3.4136: real time    3.4540

 eigenvalue-minimisations  :  3536
 total energy-change (2. order) :-0.2676863E+04  (-0.2583299E+04)
 number of electron     280.0000000 magnetization       2.0000000
 augmentation part      280.0000000 magnetization       2.0000000

 Free energy of the ion-electron system (eV)
  ---------------------------------------------------
  alpha Z        PSCENC =       302.14145564
  Ewald energy   TEWEN  =      9702.06565513
  -Hartree energ DENC   =    -22386.43843372
  -exchange      EXHF   =         0.00000000
  -V(xc)+E(xc)   XCENC  =      1069.34561494
  PAW double counting   =     11453.83848114   -11942.90478952
  entropy T*S    EENTRO =        -0.01631146
  eigenvalues    EBANDS =     -3506.90014913
  atomic energy  EATOM  =     15171.73615219
  ---------------------------------------------------
  free energy    TOTEN  =      -137.13232481 eV

  energy without entropy =     -137.11601335  energy(sigma->0) =     -137.12416908


--------------------------------------------------------------------------------------------------------




--------------------------------------- Iteration      1(   3)  ---------------------------------------


    TRIAL :  cpu time    2.9138: real time    2.9499
    CORREC:  cpu time    0.0006: real time    0.0006
    --------------------------------------------
      LOOP:  cpu time    2.9380: real time    2.9783

 eigenvalue-minimisations  :  3140
 total energy-change (2. order) :-0.3663141E+03  (-0.3610054E+03)
 number of electron     280.0000000 magnetization       2.0000000
 augmentation part      280.0000000 magnetization       2.0000000

 Free energy of the ion-electron system (eV)
  ---------------------------------------------------
  alpha Z        PSCENC =       302.14145564
  Ewald energy   TEWEN  =      9702.06565513
  -Hartree energ DENC   =    -22386.43843372
  -exchange      EXHF   =         0.00000000
  -V(xc)+E(xc)   XCENC  =      1069.34561494
  PAW double counting   =     11453.83848114   -11942.90478952
  entropy T*S    EENTRO =        -0.00021499
  eigenvalues    EBANDS =     -3873.23030756
  atomic energy  EATOM  =     15171.73615219
  ---------------------------------------------------
  free energy    TOTEN  =      -503.44638676 eV

  energy without entropy =     -503.44617178  energy(sigma->0) =     -503.44627927


--------------------------------------------------------------------------------------------------------




--------------------------------------- Iteration      1(   4)  ---------------------------------------


    TRIAL :  cpu time    3.1006: real time    3.1333
    CORREC:  cpu time    0.0006: real time    0.0007
    --------------------------------------------
      LOOP:  cpu time    3.1242: real time    3.1581

 eigenvalue-minimisations  :  3504
 total energy-change (2. order) :-0.1615609E+02  (-0.1583940E+02)
 number of electron     280.0000000 magnetization       2.0000000
 augmentation part      280.0000000 magnetization       2.0000000

 Free energy of the ion-electron system (eV)
  ---------------------------------------------------
  alpha Z        PSCENC =       302.14145564
  Ewald energy   TEWEN  =      9702.06565513
  -Hartree energ DENC   =    -22386.43843372
  -exchange      EXHF   =         0.00000000
  -V(xc)+E(xc)   XCENC  =      1069.34561494
  PAW double counting   =     11453.83848114   -11942.90478952
  entropy T*S    EENTRO =        -0.00023695
  eigenvalues    EBANDS =     -3889.38637106
  atomic energy  EATOM  =     15171.73615219
  ---------------------------------------------------
  free energy    TOTEN  =      -519.60247223 eV

  energy without entropy =     -519.60223528  energy(sigma->0) =     -519.60235375


--------------------------------------------------------------------------------------------------------




--------------------------------------- Iteration      1(   5)  ---------------------------------------


    TRIAL :  cpu time    3.2571: real time    3.2920
    CORREC:  cpu time    0.0008: real time    0.0008
    CHARGE:  cpu time    0.1104: real time    0.1111
    --------------------------------------------
      LOOP:  cpu time    3.3789: real time    3.4276

 eigenvalue-minimisations  :  3688
 total energy-change (2. order) :-0.5790654E+00  (-0.5749788E+00)
 number of electron     279.9999985 magnetization       0.0000574
 augmentation part       20.2230520 magnetization       0.0292261

 Free energy of the ion-electron system (eV)
  ---------------------------------------------------
  alpha Z        PSCENC =       302.14145564
  Ewald energy   TEWEN  =      9702.06565513
  -Hartree energ DENC   =    -22386.43843372
  -exchange      EXHF   =         0.00000000
  -V(xc)+E(xc)   XCENC  =      1069.34561494
  PAW double counting   =     11453.83848114   -11942.90478952
  entropy T*S    EENTRO =        -0.00025209
  eigenvalues    EBANDS =     -3889.96542131
  atomic energy  EATOM  =     15171.73615219
  ---------------------------------------------------
  free energy    TOTEN  =      -520.18153762 eV

  energy without entropy =     -520.18128553  energy(sigma->0) =     -520.18141157


--------------------------------------------------------------------------------------------------------




--------------------------------------- Iteration      1(   6)  ---------------------------------------


    POTLOK:  cpu time    0.0554: real time    0.0557
    SETDIJ:  cpu time    0.0092: real time    0.0092
    TRIAL :  cpu time    1.6256: real time    1.6405
    CORREC:  cpu time    0.7002: real time    0.7047
    CHARGE:  cpu time    0.1009: real time    0.1027
    --------------------------------------------
      LOOP:  cpu time    2.5112: real time    2.5479

 eigenvalue-minimisations  :     0
 total energy-change (2. order) : 0.7827655E+02  (-0.3750306E+02)
 number of electron     279.9999984 magnetization       0.0122373
 augmentation part       19.0744975 magnetization       0.0168232

 Free energy of the ion-electron system (eV)
  ---------------------------------------------------
  alpha Z        PSCENC =       302.14145564
  Ewald energy   TEWEN  =      9702.06565513
  -Hartree energ DENC   =    -23376.12363655
  -exchange      EXHF   =         0.00000000
  -V(xc)+E(xc)   XCENC  =      1133.69499372
  PAW double counting   =     29391.60447394   -29890.65713338
  entropy T*S    EENTRO =        -0.03931102
  eigenvalues    EBANDS =     -2876.36669538
  atomic energy  EATOM  =     15171.73615219
  ---------------------------------------------------
  free energy    TOTEN  =      -441.90498678 eV

  energy without entropy =     -441.86567576  energy(sigma->0) =     -441.88533127


--------------------------------------------------------------------------------------------------------




--------------------------------------- Iteration      1(   7)  ---------------------------------------


    POTLOK:  cpu time    0.0486: real time    0.0490
    SETDIJ:  cpu time    0.0094: real time    0.0094
    TRIAL :  cpu time    1.5250: real time    1.5393
    CORREC:  cpu time    0.6874: real time    0.6934
    CHARGE:  cpu time    0.0989: real time    0.0992
    --------------------------------------------
      LOOP:  cpu time    2.3780: real time    2.3990

 eigenvalue-minimisations  :     0
 total energy-change (2. order) :-0.3772218E+02  (-0.4532181E+01)
 number of electron     279.9999985 magnetization       0.0021633
 augmentation part       18.6557613 magnetization       0.0143659

 Free energy of the ion-electron system (eV)
  ---------------------------------------------------
  alpha Z        PSCENC =       302.14145564
  Ewald energy   TEWEN  =      9702.06565513
  -Hartree energ DENC   =    -22887.70288721
  -exchange      EXHF   =         0.00000000
  -V(xc)+E(xc)   XCENC  =      1102.88278120
  PAW double counting   =     30227.04335074   -30732.65867818
  entropy T*S    EENTRO =        -0.00835152
  eigenvalues    EBANDS =     -3365.09568129
  atomic energy  EATOM  =     15171.73615219
  ---------------------------------------------------
  free energy    TOTEN  =      -479.62716281 eV

  energy without entropy =     -479.61881129  energy(sigma->0) =     -479.62298705


--------------------------------------------------------------------------------------------------------




--------------------------------------- Iteration      1(   8)  ---------------------------------------


    POTLOK:  cpu time    0.0492: real time    0.0493
    SETDIJ:  cpu time    0.0094: real time    0.0095
    TRIAL :  cpu time    1.5861: real time    1.6029
    CORREC:  cpu time    0.6806: real time    0.6840
    CHARGE:  cpu time    0.1104: real time    0.1113
    --------------------------------------------
      LOOP:  cpu time    2.4519: real time    2.4889

 eigenvalue-minimisations  :     0
 total energy-change (2. order) :-0.4522270E+01  (-0.1435425E+01)
 number of electron     279.9999984 magnetization       0.0077862
 augmentation part       18.5623580 magnetization       0.0128589

 Free energy of the ion-electron system (eV)
  ---------------------------------------------------
  alpha Z        PSCENC =       302.14145564
  Ewald energy   TEWEN  =      9702.06565513
  -Hartree energ DENC   =    -22909.77867513
  -exchange      EXHF   =         0.00000000
  -V(xc)+E(xc)   XCENC  =      1101.20070800
  PAW double counting   =     30480.41238070   -30977.67987792
  entropy T*S    EENTRO =        -0.03235070
  eigenvalues    EBANDS =     -3354.23888019
  atomic energy  EATOM  =     15171.73615219
  ---------------------------------------------------
  free energy    TOTEN  =      -484.14943311 eV

  energy without entropy =     -484.11708241  energy(sigma->0) =     -484.13325776


--------------------------------------------------------------------------------------------------------




--------------------------------------- Iteration      1(   9)  ---------------------------------------


    POTLOK:  cpu time    0.0478: real time    0.0484
    SETDIJ:  cpu time    0.0096: real time    0.0096
    TRIAL :  cpu time    1.5253: real time    1.5404
    CORREC:  cpu time    0.6792: real time    0.6862
    CHARGE:  cpu time    0.1061: real time    0.1067
    --------------------------------------------
      LOOP:  cpu time    2.3955: real time    2.4208

 eigenvalue-minimisations  :     0
 total energy-change (2. order) :-0.1412109E+01  (-0.5202822E+00)
 number of electron     279.9999985 magnetization       0.0031892
 augmentation part       18.5251433 magnetization       0.0110969

 Free energy of the ion-electron system (eV)
  ---------------------------------------------------
  alpha Z        PSCENC =       302.14145564
  Ewald energy   TEWEN  =      9702.06565513
  -Hartree energ DENC   =    -22986.46898439
  -exchange      EXHF   =         0.00000000
  -V(xc)+E(xc)   XCENC  =      1102.79013661
  PAW double counting   =     30496.96803601   -30997.34289686
  entropy T*S    EENTRO =        -0.01641948
  eigenvalues    EBANDS =     -3277.41874588
  atomic energy  EATOM  =     15171.73615219
  ---------------------------------------------------
  free energy    TOTEN  =      -485.56154226 eV

  energy without entropy =     -485.54512278  energy(sigma->0) =     -485.55333252


--------------------------------------------------------------------------------------------------------




--------------------------------------- Iteration      1(  10)  ---------------------------------------


    POTLOK:  cpu time    0.0499: real time    0.0503
    SETDIJ:  cpu time    0.0094: real time    0.0095
    TRIAL :  cpu time    1.5043: real time    1.5160
    CORREC:  cpu time    0.6828: real time    0.6892
    CHARGE:  cpu time    0.1096: real time    0.1105
    --------------------------------------------
      LOOP:  cpu time    2.3669: real time    2.3867

 eigenvalue-minimisations  :     0
 total energy-change (2. order) :-0.5265865E+00  (-0.2190859E+00)
 number of electron     279.9999985 magnetization       0.0032546
 augmentation part       18.5204732 magnetization       0.0087482

 Free energy of the ion-electron system (eV)
  ---------------------------------------------------
  alpha Z        PSCENC =       302.14145564
  Ewald energy   TEWEN  =      9702.06565513
  -Hartree energ DENC   =    -22983.38762163
  -exchange      EXHF   =         0.00000000
  -V(xc)+E(xc)   XCENC  =      1102.64159338
  PAW double counting   =     30443.28487944   -30943.69987473
  entropy T*S    EENTRO =        -0.02242539
  eigenvalues    EBANDS =     -3280.85394870
  atomic energy  EATOM  =     15171.73615219
  ---------------------------------------------------
  free energy    TOTEN  =      -486.08812877 eV

  energy without entropy =     -486.06570338  energy(sigma->0) =     -486.07691608


--------------------------------------------------------------------------------------------------------




--------------------------------------- Iteration      1(  11)  ---------------------------------------


    POTLOK:  cpu time    0.0508: real time    0.0509
    SETDIJ:  cpu time    0.0094: real time    0.0095
    TRIAL :  cpu time    1.5536: real time    1.5774
    CORREC:  cpu time    0.6719: real time    0.6769
    CHARGE:  cpu time    0.1025: real time    0.1031
    --------------------------------------------
      LOOP:  cpu time    2.4067: real time    2.4534

 eigenvalue-minimisations  :     0
 total energy-change (2. order) :-0.2173679E+00  (-0.7133982E-01)
 number of electron     279.9999985 magnetization       0.0017037
 augmentation part       18.5406662 magnetization       0.0062368

 Free energy of the ion-electron system (eV)
  ---------------------------------------------------
  alpha Z        PSCENC =       302.14145564
  Ewald energy   TEWEN  =      9702.06565513
  -Hartree energ DENC   =    -22959.79298479
  -exchange      EXHF   =         0.00000000
  -V(xc)+E(xc)   XCENC  =      1101.90446632
  PAW double counting   =     30396.92628454   -30896.11916067
  entropy T*S    EENTRO =        -0.01714780
  eigenvalues    EBANDS =     -3305.14493961
  atomic energy  EATOM  =     15171.73615219
  ---------------------------------------------------
  free energy    TOTEN  =      -486.30549664 eV

  energy without entropy =     -486.28834883  energy(sigma->0) =     -486.29692273


--------------------------------------------------------------------------------------------------------




--------------------------------------- Iteration      1(  12)  ---------------------------------------


    POTLOK:  cpu time    0.0454: real time    0.0454
    SETDIJ:  cpu time    0.0095: real time    0.0095
    TRIAL :  cpu time    1.5125: real time    1.5285
    CORREC:  cpu time    0.6808: real time    0.6855
    CHARGE:  cpu time    0.1065: real time    0.1068
    --------------------------------------------
      LOOP:  cpu time    2.3597: real time    2.3897

 eigenvalue-minimisations  :     0
 total energy-change (2. order) :-0.7130116E-01  (-0.3098894E-01)
 number of electron     279.9999985 magnetization       0.0013244
 augmentation part       18.5510669 magnetization       0.0047181

 Free energy of the ion-electron system (eV)
  ---------------------------------------------------
  alpha Z        PSCENC =       302.14145564
  Ewald energy   TEWEN  =      9702.06565513
  -Hartree energ DENC   =    -22957.37863822
  -exchange      EXHF   =         0.00000000
  -V(xc)+E(xc)   XCENC  =      1101.96454939
  PAW double counting   =     30376.58099784   -30876.67432056
  entropy T*S    EENTRO =        -0.01977416
  eigenvalues    EBANDS =     -3306.79550140
  atomic energy  EATOM  =     15171.73615219
  ---------------------------------------------------
  free energy    TOTEN  =      -486.37679780 eV

  energy without entropy =     -486.35702363  energy(sigma->0) =     -486.36691071


--------------------------------------------------------------------------------------------------------




--------------------------------------- Iteration      1(  13)  ---------------------------------------


    POTLOK:  cpu time    0.0474: real time    0.0478
    SETDIJ:  cpu time    0.0097: real time    0.0097
    TRIAL :  cpu time    1.4983: real time    1.5096
    CORREC:  cpu time    0.6814: real time    0.6872
    CHARGE:  cpu time    0.1039: real time    0.1046
    --------------------------------------------
      LOOP:  cpu time    2.3508: real time    2.3692

 eigenvalue-minimisations  :     0
 total energy-change (2. order) :-0.3099415E-01  (-0.1380783E-01)
 number of electron     279.9999985 magnetization       0.0006713
 augmentation part       18.5450118 magnetization       0.0036614

 Free energy of the ion-electron system (eV)
  ---------------------------------------------------
  alpha Z        PSCENC =       302.14145564
  Ewald energy   TEWEN  =      9702.06565513
  -Hartree energ DENC   =    -22964.51001719
  -exchange      EXHF   =         0.00000000
  -V(xc)+E(xc)   XCENC  =      1102.10477799
  PAW double counting   =     30370.94656194   -30871.20257796
  entropy T*S    EENTRO =        -0.01805894
  eigenvalues    EBANDS =     -3299.67002552
  atomic energy  EATOM  =     15171.73615219
  ---------------------------------------------------
  free energy    TOTEN  =      -486.40779195 eV

  energy without entropy =     -486.38973301  energy(sigma->0) =     -486.39876248


--------------------------------------------------------------------------------------------------------




--------------------------------------- Iteration      1(  14)  ---------------------------------------


    POTLOK:  cpu time    0.0542: real time    0.0543
    SETDIJ:  cpu time    0.0094: real time    0.0097
    TRIAL :  cpu time    1.5359: real time    1.5526
    CORREC:  cpu time    0.7079: real time    0.7130
    CHARGE:  cpu time    0.0937: real time    0.0944
    --------------------------------------------
      LOOP:  cpu time    2.4054: real time    2.4686

 eigenvalue-minimisations  :     0
 total energy-change (2. order) :-0.1385459E-01  (-0.5164357E-02)
 number of electron     279.9999985 magnetization       0.0003861
 augmentation part       18.5407738 magnetization       0.0027175

 Free energy of the ion-electron system (eV)
  ---------------------------------------------------
  alpha Z        PSCENC =       302.14145564
  Ewald energy   TEWEN  =      9702.06565513
  -Hartree energ DENC   =    -22962.27559044
  -exchange      EXHF   =         0.00000000
  -V(xc)+E(xc)   XCENC  =      1102.04747970
  PAW double counting   =     30375.75606134   -30875.51032596
  entropy T*S    EENTRO =        -0.01944992
  eigenvalues    EBANDS =     -3302.36447519
  atomic energy  EATOM  =     15171.73615219
  ---------------------------------------------------
  free energy    TOTEN  =      -486.42164654 eV

  energy without entropy =     -486.40219662  energy(sigma->0) =     -486.41192158


--------------------------------------------------------------------------------------------------------




--------------------------------------- Iteration      1(  15)  ---------------------------------------


    POTLOK:  cpu time    0.0505: real time    0.0513
    SETDIJ:  cpu time    0.0093: real time    0.0107
    TRIAL :  cpu time    1.6037: real time    1.6257
    CORREC:  cpu time    0.6805: real time    0.6872
    CHARGE:  cpu time    0.0994: real time    0.1000
    --------------------------------------------
      LOOP:  cpu time    2.4607: real time    2.4927

 eigenvalue-minimisations  :     0
 total energy-change (2. order) :-0.5163650E-02  (-0.2347033E-02)
 number of electron     279.9999985 magnetization       0.0001515
 augmentation part       18.5384008 magnetization       0.0019124

 Free energy of the ion-electron system (eV)
  ---------------------------------------------------
  alpha Z        PSCENC =       302.14145564
  Ewald energy   TEWEN  =      9702.06565513
  -Hartree energ DENC   =    -22960.19425311
  -exchange      EXHF   =         0.00000000
  -V(xc)+E(xc)   XCENC  =      1101.95265683
  PAW double counting   =     30381.29161204   -30881.22386756
  entropy T*S    EENTRO =        -0.01836413
  eigenvalues    EBANDS =     -3304.17677141
  atomic energy  EATOM  =     15171.73615219
  ---------------------------------------------------
  free energy    TOTEN  =      -486.42681019 eV

  energy without entropy =     -486.40844606  energy(sigma->0) =     -486.41762812


--------------------------------------------------------------------------------------------------------




--------------------------------------- Iteration      1(  16)  ---------------------------------------


    POTLOK:  cpu time    0.0485: real time    0.0492
    SETDIJ:  cpu time    0.0095: real time    0.0097
    TRIAL :  cpu time    1.6128: real time    1.6310
    CORREC:  cpu time    0.6818: real time    0.6856
    CHARGE:  cpu time    0.1029: real time    0.1031
    --------------------------------------------
      LOOP:  cpu time    2.4609: real time    2.4929

 eigenvalue-minimisations  :     0
 total energy-change (2. order) :-0.2349567E-02  (-0.1377248E-02)
 number of electron     279.9999985 magnetization      -0.0000050
 augmentation part       18.5373204 magnetization       0.0011290

 Free energy of the ion-electron system (eV)
  ---------------------------------------------------
  alpha Z        PSCENC =       302.14145564
  Ewald energy   TEWEN  =      9702.06565513
  -Hartree energ DENC   =    -22959.38687866
  -exchange      EXHF   =         0.00000000
  -V(xc)+E(xc)   XCENC  =      1101.93693928
  PAW double counting   =     30384.36529047   -30884.38962767
  entropy T*S    EENTRO =        -0.01893682
  eigenvalues    EBANDS =     -3304.87978199
  atomic energy  EATOM  =     15171.73615219
  ---------------------------------------------------
  free energy    TOTEN  =      -486.42915975 eV

  energy without entropy =     -486.41022293  energy(sigma->0) =     -486.41969134


--------------------------------------------------------------------------------------------------------




--------------------------------------- Iteration      1(  17)  ---------------------------------------


    POTLOK:  cpu time    0.0508: real time    0.0509
    SETDIJ:  cpu time    0.0095: real time    0.0095
    TRIAL :  cpu time    1.6145: real time    1.6301
    CORREC:  cpu time    0.6744: real time    0.6822
    CHARGE:  cpu time    0.1033: real time    0.1048
    --------------------------------------------
      LOOP:  cpu time    2.4848: real time    2.5208

 eigenvalue-minimisations  :     0
 total energy-change (2. order) :-0.1378708E-02  (-0.5822124E-03)
 number of electron     279.9999985 magnetization      -0.0000871
 augmentation part       18.5370214 magnetization       0.0006194

 Free energy of the ion-electron system (eV)
  ---------------------------------------------------
  alpha Z        PSCENC =       302.14145564
  Ewald energy   TEWEN  =      9702.06565513
  -Hartree energ DENC   =    -22960.89091616
  -exchange      EXHF   =         0.00000000
  -V(xc)+E(xc)   XCENC  =      1101.97614383
  PAW double counting   =     30384.51037288   -30884.41738453
  entropy T*S    EENTRO =        -0.01854934
  eigenvalues    EBANDS =     -3303.53308061
  atomic energy  EATOM  =     15171.73615219
  ---------------------------------------------------
  free energy    TOTEN  =      -486.43053846 eV

  energy without entropy =     -486.41198913  energy(sigma->0) =     -486.42126379


--------------------------------------------------------------------------------------------------------




--------------------------------------- Iteration      1(  18)  ---------------------------------------


    POTLOK:  cpu time    0.0508: real time    0.0550
    SETDIJ:  cpu time    0.0091: real time    0.0093
    TRIAL :  cpu time    1.5215: real time    1.5353
    CORREC:  cpu time    0.6572: real time    0.6632
    CHARGE:  cpu time    0.1075: real time    0.1108
    --------------------------------------------
      LOOP:  cpu time    2.3740: real time    2.4023

 eigenvalue-minimisations  :     0
 total energy-change (2. order) :-0.5829749E-03  (-0.2824684E-03)
 number of electron     279.9999985 magnetization      -0.0001279
 augmentation part       18.5368670 magnetization       0.0003009

 Free energy of the ion-electron system (eV)
  ---------------------------------------------------
  alpha Z        PSCENC =       302.14145564
  Ewald energy   TEWEN  =      9702.06565513
  -Hartree energ DENC   =    -22960.82880071
  -exchange      EXHF   =         0.00000000
  -V(xc)+E(xc)   XCENC  =      1101.99015605
  PAW double counting   =     30382.22326379   -30882.11178470
  entropy T*S    EENTRO =        -0.01893969
  eigenvalues    EBANDS =     -3303.62866948
  atomic energy  EATOM  =     15171.73615219
  ---------------------------------------------------
  free energy    TOTEN  =      -486.43112144 eV

  energy without entropy =     -486.41218174  energy(sigma->0) =     -486.42165159


--------------------------------------------------------------------------------------------------------




--------------------------------------- Iteration      1(  19)  ---------------------------------------


    POTLOK:  cpu time    0.0465: real time    0.0472
    SETDIJ:  cpu time    0.0093: real time    0.0094
    TRIAL :  cpu time    1.5035: real time    1.5186
    CORREC:  cpu time    0.6673: real time    0.6713
    CHARGE:  cpu time    0.1072: real time    0.1080
    --------------------------------------------
      LOOP:  cpu time    2.3369: real time    2.3634

 eigenvalue-minimisations  :     0
 total energy-change (2. order) :-0.2825359E-03  (-0.1585860E-03)
 number of electron     279.9999985 magnetization      -0.0001437
 augmentation part       18.5365090 magnetization       0.0000778

 Free energy of the ion-electron system (eV)
  ---------------------------------------------------
  alpha Z        PSCENC =       302.14145564
  Ewald energy   TEWEN  =      9702.06565513
  -Hartree energ DENC   =    -22960.76568219
  -exchange      EXHF   =         0.00000000
  -V(xc)+E(xc)   XCENC  =      1101.98369591
  PAW double counting   =     30379.88965637   -30879.81716510
  entropy T*S    EENTRO =        -0.01868441
  eigenvalues    EBANDS =     -3303.64623223
  atomic energy  EATOM  =     15171.73615219
  ---------------------------------------------------
  free energy    TOTEN  =      -486.43140397 eV

  energy without entropy =     -486.41271956  energy(sigma->0) =     -486.42206177


--------------------------------------------------------------------------------------------------------




--------------------------------------- Iteration      1(  20)  ---------------------------------------


    POTLOK:  cpu time    0.0515: real time    0.0522
    SETDIJ:  cpu time    0.0096: real time    0.0096
    TRIAL :  cpu time    1.6054: real time    1.6210
    CORREC:  cpu time    0.6620: real time    0.6681
    CHARGE:  cpu time    0.1010: real time    0.1013
    --------------------------------------------
      LOOP:  cpu time    2.4370: real time    2.4641

 eigenvalue-minimisations  :     0
 total energy-change (2. order) :-0.1585919E-03  (-0.6345952E-04)
 number of electron     279.9999985 magnetization      -0.0001456
 augmentation part       18.5364112 magnetization      -0.0000255

 Free energy of the ion-electron system (eV)
  ---------------------------------------------------
  alpha Z        PSCENC =       302.14145564
  Ewald energy   TEWEN  =      9702.06565513
  -Hartree energ DENC   =    -22960.62604406
  -exchange      EXHF   =         0.00000000
  -V(xc)+E(xc)   XCENC  =      1101.97742346
  PAW double counting   =     30377.98302285   -30877.92655751
  entropy T*S    EENTRO =        -0.01885711
  eigenvalues    EBANDS =     -3303.76398584
  atomic energy  EATOM  =     15171.73615219
  ---------------------------------------------------
  free energy    TOTEN  =      -486.43156257 eV

  energy without entropy =     -486.41270546  energy(sigma->0) =     -486.42213401


--------------------------------------------------------------------------------------------------------




--------------------------------------- Iteration      1(  21)  ---------------------------------------


    POTLOK:  cpu time    0.0459: real time    0.0461
    SETDIJ:  cpu time    0.0096: real time    0.0096
    TRIAL :  cpu time    1.5146: real time    1.5258
    CORREC:  cpu time    0.6770: real time    0.6816
    EDDIAG:  cpu time    0.4608: real time    0.4670
    CHARGE:  cpu time    0.0967: real time    0.0972
    --------------------------------------------
      LOOP:  cpu time    2.8079: real time    2.8488

 eigenvalue-minimisations  :     0
 total energy-change (2. order) :-0.6335547E-04  (-0.2693097E-04)
 number of electron     279.9999985 magnetization      -0.0001398
 augmentation part       18.5364067 magnetization      -0.0000689

 Free energy of the ion-electron system (eV)
  ---------------------------------------------------
  alpha Z        PSCENC =       302.14145564
  Ewald energy   TEWEN  =      9702.06565513
  -Hartree energ DENC   =    -22960.84284296
  -exchange      EXHF   =         0.00000000
  -V(xc)+E(xc)   XCENC  =      1101.98152398
  PAW double counting   =     30377.29426732   -30877.21799580
  entropy T*S    EENTRO =        -0.01873236
  eigenvalues    EBANDS =     -3303.57098430
  atomic energy  EATOM  =     15171.73615219
  ---------------------------------------------------
  free energy    TOTEN  =      -486.43162592 eV

  energy without entropy =     -486.41289356  energy(sigma->0) =     -486.42225974


--------------------------------------------------------------------------------------------------------


  average scaling for gradient   0.7545


 average (electrostatic) potential at core
  the test charge radii are     0.6991  0.7089  0.9911  0.6991  0.7215
  (the norm of the test charge is              1.0000)
       1 -59.0193       2 -58.5725       3 -58.8937       4 -59.6987       5 -58.4967
       6 -59.4476       7 -58.4089       8 -58.9967       9 -59.3421      10 -59.0608
      11 -59.1318      12 -59.0231      13 -58.9961      14 -58.1578      15 -58.4204
      16 -58.9278      17 -58.6046      18 -59.1564      19 -58.6808      20 -58.7311
      21 -58.9547      22 -58.4101      23 -59.1014      24 -58.6381      25 -71.7239
      26 -71.5105      27 -72.7856      28 -70.4995      29 -70.4904      30 -71.1263
      31 -71.1688      32 -73.2156      33 -70.6419      34 -70.5826      35 -70.3766
      36 -70.9470      37 -70.6663      38 -71.3109      39 -71.5066      40 -72.5799
      41 -70.7055      42 -70.8031      43 -70.5928      44 -70.4775      45 -69.8536
      46 -70.8036      47 -70.6500      48 -73.3237      49 -72.1950      50 -70.7656
      51 -70.1729      52 -70.7766      53 -70.7229      54 -70.2257      55 -72.1029
      56 -72.7724      57 -81.0045      58 -57.7028      59 -79.5135



 E-fermi :  -0.7287     XC(G=0):  -5.6128     alpha+bet : -4.5380


 spin component 1

 k-point     1 :       0.0000    0.0000    0.0000
  band No.  band energies     occupation 
      1     -26.3284      1.00000
      2     -26.3137      1.00000
      3     -26.2742      1.00000
      4     -26.2604      1.00000
      5     -26.2350      1.00000
      6     -25.2607      1.00000
      7     -24.7689      1.00000
      8     -24.4594      1.00000
      9     -24.3112      1.00000
     10     -24.0999      1.00000
     11     -23.5543      1.00000
     12     -23.3462      1.00000
     13     -23.0668      1.00000
     14     -22.4328      1.00000
     15     -22.2997      1.00000
     16     -22.2154      1.00000
     17     -22.1225      1.00000
     18     -21.9754      1.00000
     19     -21.8132      1.00000
     20     -21.2845      1.00000
     21     -20.8422      1.00000
     22     -20.8128      1.00000
     23     -20.7383      1.00000
     24     -20.5286      1.00000
     25     -20.2221      1.00000
     26     -20.1946      1.00000
     27     -20.1718      1.00000
     28     -19.9300      1.00000
     29     -19.8505      1.00000
     30     -19.6622      1.00000
     31     -19.4085      1.00000
     32     -19.1520      1.00000
     33     -19.0721      1.00000
     34     -18.9352      1.00000
     35     -18.8637      1.00000
     36     -18.8087      1.00000
     37     -18.5811      1.00000
     38     -18.3397      1.00000
     39     -15.9100      1.00000
     40     -15.4744      1.00000
     41     -15.4321      1.00000
     42     -15.2940      1.00000
     43     -15.1666      1.00000
     44     -14.9325      1.00000
     45     -14.8510      1.00000
     46     -14.4819      1.00000
     47     -13.8103      1.00000
     48     -13.7857      1.00000
     49     -13.5678      1.00000
     50     -13.4442      1.00000
     51     -13.0647      1.00000
[...]
    156       2.1693      0.00000
    157       2.2663      0.00000
    158       2.4970      0.00000
    159       2.6000      0.00000
    160       2.7248      0.00000
    161       2.9260      0.00000
    162       3.0921      0.00000
    163       3.2693      0.00000
    164       3.3109      0.00000
    165       3.6612      0.00000
    166       3.7975      0.00000
    167       3.9969      0.00000
    168       4.2634      0.00000
    169       4.4024      0.00000
    170       4.5513      0.00000
    171       4.6147      0.00000
    172       4.7156      0.00000


--------------------------------------------------------------------------------------------------------


 soft charge-density along one line, spin component           1
         0         1         2         3         4         5         6         7         8         9
 total charge-density along one line

 soft charge-density along one line, spin component           2
         0         1         2         3         4         5         6         7         8         9
 total charge-density along one line

 pseudopotential strength for first ion, spin component:           1
 10.260  13.645   0.002  -0.001   0.001  -0.004   0.002  -0.003
 13.645  18.146   0.002  -0.001   0.001  -0.006   0.003  -0.004
  0.002   0.002  -4.398  -0.000  -0.005   8.607   0.001   0.008
 -0.001  -0.001  -0.000  -4.395  -0.002   0.001   8.604   0.004
  0.001   0.001  -0.005  -0.002  -4.391   0.008   0.004   8.597
 -0.004  -0.006   8.607   0.001   0.008 -18.986  -0.001  -0.012
  0.002   0.003   0.001   8.604   0.004  -0.001 -18.985  -0.005
 -0.003  -0.004   0.008   0.004   8.597  -0.012  -0.005 -18.974
 pseudopotential strength for first ion, spin component:           2
 10.260  13.645   0.002  -0.001   0.001  -0.004   0.002  -0.003
 13.645  18.146   0.002  -0.001   0.001  -0.006   0.003  -0.004
  0.002   0.002  -4.398  -0.000  -0.005   8.607   0.001   0.008
 -0.001  -0.001  -0.000  -4.395  -0.002   0.001   8.604   0.004
  0.001   0.001  -0.005  -0.002  -4.391   0.008   0.004   8.597
 -0.004  -0.006   8.607   0.001   0.008 -18.986  -0.001  -0.012
  0.002   0.003   0.001   8.604   0.004  -0.001 -18.985  -0.005
 -0.003  -0.004   0.008   0.004   8.597  -0.012  -0.005 -18.974
 total augmentation occupancy for first ion, spin component:           1
  8.318  -3.846  -0.305   0.085   0.010  -0.047   0.013   0.003
 -3.846   1.903   0.152  -0.033  -0.022   0.025  -0.006  -0.003
 -0.305   0.152   1.773  -0.002   0.239   0.168  -0.000   0.045
  0.085  -0.033  -0.002   1.567   0.141  -0.000   0.149   0.027
  0.010  -0.022   0.239   0.141   1.309   0.046   0.027   0.091
 -0.047   0.025   0.168  -0.000   0.046   0.019  -0.000   0.007
  0.013  -0.006  -0.000   0.149   0.027  -0.000   0.016   0.004
  0.003  -0.003   0.045   0.027   0.091   0.007   0.004   0.008
 total augmentation occupancy for first ion, spin component:           2
  0.000  -0.000  -0.000  -0.000   0.000  -0.000   0.000  -0.000
 -0.000   0.000   0.000   0.000  -0.000   0.000  -0.000   0.000
 -0.000   0.000   0.000   0.000  -0.000  -0.000  -0.000   0.000
 -0.000   0.000   0.000   0.000  -0.000  -0.000  -0.000   0.000
  0.000  -0.000  -0.000  -0.000   0.000   0.000   0.000  -0.000
 -0.000   0.000  -0.000  -0.000   0.000  -0.000  -0.000   0.000
  0.000  -0.000  -0.000  -0.000   0.000  -0.000  -0.000   0.000
 -0.000   0.000   0.000   0.000  -0.000   0.000   0.000  -0.000


------------------------ aborting loop because EDIFF is reached ----------------------------------------


    FORLOC:  cpu time    0.0058: real time    0.0058
    FORNL :  cpu time    0.3892: real time    0.3932
    STRESS:  cpu time    1.1148: real time    1.1222
    FORCOR:  cpu time    0.0467: real time    0.0470
    OFIELD:  cpu time    0.0002: real time    0.0003

 ---------------------------------------------------------------------------------------------

         DFTD3 V3.0 Rev 1        
 Edisp (eV)   -4.90237

 E6    (eV) :    -3.4843
 E8    (eV) :    -1.4181
 % E8        : 28.93
    FORVDW:  cpu time    0.2108: real time    0.2393

  FORCE on cell =-STRESS in cart. coord.  units (eV):
  Direction    XX          YY          ZZ          XY          YZ          ZX
  --------------------------------------------------------------------------------------
  Alpha Z   302.14146   302.14146   302.14146
  Ewald   14238.06300  9939.05951-14465.24571 -1034.63396  1152.05963   501.61078
  Hartree 17406.59646 14012.92538 -8449.21940  -749.07704   827.24660   132.05171
  E(xc)   -1177.22041 -1179.45279 -1182.14689    -1.13588     1.29360     1.78960
  Local  -35298.62884-27657.25020 19147.76468  1759.23592 -1960.29818  -590.55962
  n-local  -485.06203  -484.95792  -495.02569    -1.65608     0.41652     0.22994
  augment   152.05927   152.70219   153.79782     0.66136     0.20336    -0.26524
  Kinetic  4883.63847  4915.01197  4981.53014    27.53191   -21.39679   -45.47125
  Fock        0.00000     0.00000     0.00000     0.00000     0.00000     0.00000
  vdW        -1.18430    -1.38713    -0.86452    -0.03726     0.08981     0.36823
  -------------------------------------------------------------------------------------
  Total      20.40307    -1.20755    -7.26811     0.88896    -0.38546    -0.24584
  in kB      26.50636    -1.56877    -9.44226     1.15488    -0.50076    -0.31938
  external pressure =        5.17 kB  Pullay stress =        0.00 kB


 VOLUME and BASIS-vectors are now :
 -----------------------------------------------------------------------------
  energy-cutoff  :      440.00
  volume of cell :     1233.26
      direct lattice vectors                 reciprocal lattice vectors
    11.074739388 -0.152592379  0.000000000     0.091037962  0.053880143 -0.000000000
    -5.537369694  9.356152795  0.000000000     0.001484766  0.107760286 -0.000000000
     0.000000000  0.000000000 12.000000000    -0.000000000 -0.000000000  0.083333333

  length of vectors
    11.075790579 10.871985019 12.000000000     0.105787430  0.107770514  0.083333333


 FORCES acting on ions:
    Electron-Ion                     Ewald-Force                    Non-Local-Force
 -----------------------------------------------------------------------------------------------
   0.117E+03 0.896E+02 0.163E+03   -.118E+03 -.910E+02 -.162E+03   0.114E+01 0.144E+01 -.714E+00
   -.635E+01 0.318E+02 0.403E+03   0.853E+01 -.309E+02 -.404E+03   -.218E+01 -.780E+00 0.101E+01
   0.290E+02 0.810E+01 0.245E+03   -.297E+02 -.681E+01 -.246E+03   0.649E+00 -.132E+01 0.142E+01
   -.492E+02 -.585E+02 -.232E+03   0.492E+02 0.614E+02 0.232E+03   0.471E-01 -.297E+01 0.589E+00
   -.267E+02 0.136E+03 0.242E+03   0.265E+02 -.137E+03 -.245E+03   0.184E+00 0.177E+01 0.268E+01
   0.331E+02 -.195E+02 -.116E+03   -.323E+02 0.217E+02 0.116E+03   -.753E+00 -.226E+01 -.477E+00
   0.576E+01 0.156E+02 -.585E+02   -.564E+01 -.164E+02 0.573E+02   -.968E-01 0.776E+00 0.112E+01
   0.304E+02 0.736E+02 -.267E+03   -.293E+02 -.764E+02 0.266E+03   -.106E+01 0.297E+01 0.124E+01
   -.312E+02 -.845E+02 -.326E+03   0.282E+02 0.842E+02 0.324E+03   0.282E+01 0.196E+00 0.171E+01
   -.559E+02 -.152E+03 0.203E+03   0.544E+02 0.154E+03 -.204E+03   0.146E+01 -.186E+01 0.143E+01
   -.373E+02 0.148E+02 -.250E+03   0.375E+02 -.175E+02 0.251E+03   -.157E+00 0.280E+01 -.122E+01
   0.558E+01 -.504E+02 0.568E+02   -.512E+01 0.513E+02 -.545E+02   -.522E+00 -.849E+00 -.231E+01
   -.102E+03 -.356E+02 -.978E+02   0.102E+03 0.330E+02 0.978E+02   -.497E-01 0.258E+01 0.455E-01
   0.886E+02 -.241E+02 0.324E+03   -.879E+02 0.268E+02 -.324E+03   -.602E+00 -.258E+01 0.464E-01
   -.135E+03 0.170E+03 0.166E+03   0.136E+03 -.171E+03 -.164E+03   -.129E+01 0.120E+01 -.180E+01
   0.655E+02 0.186E+02 0.135E+03   -.670E+02 -.200E+02 -.138E+03   0.153E+01 0.151E+01 0.251E+01
   -.471E+02 -.893E+02 0.306E+03   0.469E+02 0.889E+02 -.309E+03   0.132E+00 0.308E+00 0.354E+01
   -.725E+02 -.729E+02 -.970E+02   0.750E+02 0.742E+02 0.963E+02   -.257E+01 -.130E+01 0.709E+00
   -.202E+02 -.324E+02 -.104E+03   0.203E+02 0.301E+02 0.103E+03   -.155E+00 0.222E+01 0.106E+01
   -.197E+02 0.590E+02 -.119E+03   0.212E+02 -.565E+02 0.119E+03   -.158E+01 -.250E+01 0.563E+00
   -.167E+02 -.188E+02 -.183E+03   0.146E+02 0.202E+02 0.184E+03   0.206E+01 -.139E+01 -.569E+00
   0.372E+02 -.108E+03 0.141E+03   -.401E+02 0.108E+03 -.140E+03   0.293E+01 -.830E+00 -.123E+01
   0.832E+02 0.104E+02 -.283E+03   -.832E+02 -.125E+02 0.285E+03   0.826E-01 0.214E+01 -.230E+01
   -.769E+02 -.276E+02 -.325E+02   0.766E+02 0.283E+02 0.361E+02   0.353E+00 -.707E+00 -.360E+01
   0.139E+03 0.180E+03 0.440E+03   -.149E+03 -.193E+03 -.459E+03   0.103E+02 0.128E+02 0.188E+02
   0.367E+02 0.110E+01 -.359E+02   -.283E+02 0.228E+02 0.330E+02   -.845E+01 -.239E+02 0.290E+01
   -.536E+02 -.463E+02 -.443E+03   0.545E+02 0.431E+02 0.460E+03   -.932E+00 0.319E+01 -.168E+02
   -.744E+02 0.353E+03 0.385E+03   0.770E+02 -.380E+03 -.405E+03   -.258E+01 0.269E+02 0.200E+02
   -.271E+02 0.317E+03 0.426E+03   0.204E+02 -.350E+03 -.435E+03   0.674E+01 0.331E+02 0.834E+01
   0.658E+01 -.171E+03 -.262E+03   -.316E+02 0.197E+03 0.262E+03   0.251E+02 -.261E+02 -.727E+00
   -.986E+02 -.188E+03 -.266E+03   0.121E+03 0.216E+03 0.263E+03   -.220E+02 -.271E+02 0.319E+01
   0.947E+02 -.114E+02 -.105E+03   -.971E+02 0.988E+01 0.105E+03   0.230E+01 0.149E+01 0.907E-01
   0.873E+02 0.396E+02 -.924E+02   -.110E+03 -.214E+02 0.856E+02   0.229E+02 -.182E+02 0.679E+01
   -.436E+02 -.233E+01 -.174E+03   0.638E+02 0.152E+01 0.199E+03   -.202E+02 0.805E+00 -.256E+02
   -.571E+01 -.282E+03 0.493E+03   -.136E+02 0.307E+03 -.510E+03   0.193E+02 -.243E+02 0.162E+02
   -.747E+01 0.125E+03 -.345E+03   0.519E+01 -.158E+03 0.354E+03   0.229E+01 0.330E+02 -.873E+01
   0.565E+02 0.222E+03 -.437E+03   -.625E+02 -.254E+03 0.450E+03   0.600E+01 0.319E+02 -.124E+02
   0.319E+02 -.230E+03 0.950E+02   -.521E+02 0.246E+03 -.935E+02   0.202E+02 -.160E+02 -.142E+01
   0.489E+02 -.152E+02 0.813E+02   -.351E+02 0.809E+01 -.669E+02   -.138E+02 0.709E+01 -.144E+02
   -.203E+02 -.128E+03 0.234E+03   0.188E+02 0.132E+03 -.238E+03   0.146E+01 -.372E+01 0.441E+01
   -.787E+02 0.208E+03 0.411E+03   0.872E+02 -.222E+03 -.430E+03   -.852E+01 0.137E+02 0.189E+02
   -.234E+03 -.796E+02 0.126E+02   0.264E+03 0.899E+02 -.308E+02   -.295E+02 -.103E+02 0.181E+02
   0.984E+02 0.657E+02 0.283E+03   -.115E+03 -.832E+02 -.312E+03   0.165E+02 0.175E+02 0.281E+02
   -.515E+02 -.445E+01 0.515E+03   0.591E+02 -.767E+01 -.549E+03   -.763E+01 0.121E+02 0.341E+02
   0.539E+02 -.393E+02 0.553E+03   -.572E+02 0.322E+02 -.589E+03   0.324E+01 0.711E+01 0.362E+02
   0.185E+03 0.163E+03 0.392E+03   -.200E+03 -.177E+03 -.423E+03   0.156E+02 0.135E+02 0.311E+02
   -.117E+03 -.154E+03 -.109E+03   0.148E+03 0.165E+03 0.977E+02   -.317E+02 -.105E+02 0.112E+02
   -.684E+02 -.375E+02 -.221E+03   0.695E+02 0.351E+02 0.223E+03   -.116E+01 0.243E+01 -.130E+01
   -.277E+02 0.543E+02 -.276E+03   0.305E+02 -.603E+02 0.288E+03   -.278E+01 0.606E+01 -.119E+02
   -.202E+03 -.492E+02 -.248E+03   0.230E+03 0.583E+02 0.268E+03   -.274E+02 -.913E+01 -.201E+02
   0.223E+03 -.166E+03 0.281E+03   -.256E+03 0.173E+03 -.277E+03   0.328E+02 -.614E+01 -.414E+01
   0.805E+02 0.487E+02 -.579E+03   -.783E+02 -.651E+02 0.610E+03   -.219E+01 0.163E+02 -.315E+02
   0.388E+02 0.126E+03 -.498E+03   -.444E+02 -.143E+03 0.530E+03   0.563E+01 0.175E+02 -.316E+02
   0.123E+03 -.105E+03 0.654E+02   -.151E+03 0.125E+03 -.588E+02   0.277E+02 -.196E+02 -.671E+01
   -.205E+03 0.434E+01 -.662E+01   0.219E+03 0.229E+01 0.337E+01   -.146E+02 -.666E+01 0.324E+01
   -.462E+02 0.129E+01 0.166E+03   0.455E+02 -.389E+01 -.166E+03   0.730E+00 0.263E+01 -.307E+00
   0.215E+03 -.926E+02 -.673E+03   -.220E+03 0.925E+02 0.699E+03   0.484E+01 -.692E-02 -.265E+02
   -.678E+02 0.311E+01 -.800E+01   0.768E+02 -.431E+01 -.182E+02   -.905E+01 0.119E+01 0.262E+02
   0.682E+02 -.173E+02 -.299E+03   -.880E+02 0.197E+02 0.356E+03   0.198E+02 -.235E+01 -.568E+02
 -----------------------------------------------------------------------------------------------
   -.433E+02 -.569E+02 -.223E+02   -.156E-12 0.369E-12 -.625E-12   0.433E+02 0.569E+02 0.223E+02


 POSITION                                       TOTAL-FORCE (eV/Angst)
 -----------------------------------------------------------------------------------
     -0.32024      2.05184      4.75956         0.040565      0.011377      0.047572
      1.09750      3.13791      3.36060        -0.011539      0.028788      0.010007
     -1.01748      4.08164      3.64634         0.024570     -0.039542      0.022416
      4.32241      0.80868      7.95771        -0.003904     -0.014603      0.003370
      3.13666      2.49295      3.93472        -0.009131     -0.015991     -0.027270
      0.66034      1.75349      6.82459         0.028908     -0.006459      0.029145
     -3.31254      6.99436      6.32553        -0.014972      0.012498     -0.059898
     -2.45915      8.21739      8.16144         0.004076      0.019961      0.004074
      1.90271      0.91253      8.45876        -0.020453     -0.003987     -0.004727
      2.12575      4.58490      4.62254        -0.034842     -0.005155     -0.016871
     -0.28603      7.85938      8.24343        -0.011705     -0.006310     -0.030159
     -2.11754      5.52116      5.08681        -0.024261      0.042159     -0.006753
      5.44985      2.17020      6.55446        -0.021347      0.022505     -0.015143
      6.20786      4.49063      2.94084        -0.033758      0.012402      0.028893
      5.32625      2.59660      4.06034         0.023390      0.042661      0.009815
     10.33015     -0.07603      5.77095         0.026604     -0.023702      0.025870
     -2.81525      5.09052      2.79083        -0.005015      0.007519      0.019860
      6.56006      0.33009      7.25562        -0.006800     -0.000730     -0.015166
      2.98277      5.66062      6.49765         0.001509      0.010510      0.059653
      4.10723      7.65101      7.11985        -0.018734     -0.011381      0.015599
      1.87406      7.59879      7.60960        -0.009877     -0.012000     -0.009344
      6.75277      5.96852      4.46780        -0.043735      0.028164     -0.002411
      5.54690      9.04456      8.09645         0.038430      0.011980      0.049219
      4.18358      3.95230      5.62281         0.013459      0.000307      0.053698
     -0.26613      2.86757      3.56748         0.032235      0.003081     -0.028821
      0.33108      2.60933      5.83995        -0.013862     -0.039943     -0.000753
      3.16924      0.31263      8.57195        -0.024938     -0.006713      0.011455
      4.26332      1.87276      3.67392         0.004187      0.045082     -0.032711
      1.93030      2.14465      3.43095         0.012194      0.012624      0.006835
      4.38894      1.97998      7.39638        -0.010477     -0.021203     -0.002599
      1.68623      1.95395      7.63297         0.021544     -0.039522      0.011126
     -0.05380      0.56921      6.89548        -0.022861      0.009448     -0.023800
     -3.33476      8.00388      7.24574         0.004841      0.027012     -0.022274
     -2.21438      6.17282      6.22519         0.040449      0.007114      0.005332
      1.32322      4.49938      3.59910        -0.016538     -0.006872      0.007092
      0.77144      7.03941      8.08861         0.007754      0.001583     -0.050832
     -1.46531      7.41102      8.57177        -0.007863     -0.042640     -0.007632
      1.87957      5.41862      5.68084        -0.001977      0.008331      0.039083
     -1.12311      4.63582      4.90251         0.023849      0.003899      0.017157
     -3.02680      5.65306      4.08545        -0.025847     -0.039447     -0.052346
      5.96779      3.22927      3.12608         0.044494     -0.008227      0.034327
      6.58840      1.48029      6.56797         0.014393     -0.018661     -0.004792
      4.20687      8.11213      5.85924         0.003929      0.017825     -0.021801
     -1.63373      4.45089      2.56400         0.001964     -0.052443     -0.042964
      7.22885      4.75405      2.01465        -0.009046      0.006176     -0.037589
     10.25786      0.69689      4.66277         0.040260     -0.020990     -0.016887
      2.07128      8.89456      7.28807         0.005907      0.005973      0.032113
     -0.17339      9.23582      7.84493         0.009739      0.018636     -0.021632
      2.98030      6.79661      7.31095        -0.023512     -0.025344     -0.031293
      4.12361      4.99185      6.44391        -0.060240     -0.004186      0.009947
      5.74162      5.46551      3.81417         0.049869      0.044856     -0.026306
      0.94039      0.14748      8.99198         0.016026     -0.034451     -0.013488
      4.71408      8.01413      8.23284         0.021741      0.009516      0.032687
      6.70470      6.80200      5.52212         0.012704      0.025137     -0.049792
      5.25399      3.08003      5.54329        -0.021109     -0.001277     -0.003060
      3.15125      3.64505      4.75482         0.007358      0.029619      0.059388
      0.07913      4.70200      6.64031        -0.055008     -0.054510     -0.000684
      0.81739      4.16571     10.08088         0.007171     -0.012472     -0.053330
      0.44510      4.21006     11.15949        -0.020767      0.042017      0.087397
 -----------------------------------------------------------------------------------
    total drift:                               -0.025149     -0.001872     -0.045563


--------------------------------------------------------------------------------------------------------



  FREE ENERGIE OF THE ION-ELECTRON SYSTEM (eV)
  ---------------------------------------------------
  free  energy   TOTEN  =      -491.34032631 eV

  energy  without entropy=     -491.32199991  energy(sigma->0) =     -491.33116311

 d Force = 0.1518554E-02[ 0.132E-02, 0.172E-02]  d Energy = 0.1530433E-02-0.119E-04
 d Force =-0.2114845E+01[-0.211E+01,-0.212E+01]  d Ewald  =-0.2114845E+01 0.606E-06


--------------------------------------------------------------------------------------------------------


    POTLOK:  cpu time    0.1292: real time    0.1297


--------------------------------------------------------------------------------------------------------


 Conjugate gradient step on ions:
 trial-energy change:   -0.001530  1 .order   -0.001519   -0.001721   -0.001316
  (g-gl).g = 0.379E-02      g.g   = 0.405E-02  gl.gl    = 0.458E-02
 g(Force)  = 0.405E-02   g(Stress)= 0.000E+00 ortho     = 0.423E-03
 gamma     =   0.82724
 trial     =   0.39112
 opt step  =   1.56447  (harmonic =   1.65957) maximal distance =0.00469105
 next E    =  -491.342448   (d E  =  -0.00365)


--------------------------------------------------------------------------------------------------------


  
 reached required accuracy - stopping structural energy minimisation
     LOOP+:  cpu time   16.8218: real time   17.2933
    4ORBIT:  cpu time    0.0000: real time    0.0000

 total amount of memory used by VASP MPI-rank0    77417. kBytes
=======================================================================

   base      :      30000. kBytes
   nonlr-proj:       2528. kBytes
   fftplans  :       1974. kBytes
   grid      :       5974. kBytes
   one-center:        155. kBytes
   wavefun   :      36786. kBytes

  
  
 General timing and accounting informations for this job:
 ========================================================
  
                  Total CPU time used (sec):      143.330
                            User time (sec):      141.216
                          System time (sec):        2.114
                         Elapsed time (sec):      147.489
  
                   Maximum memory used (kb):      207460.
                   Average memory used (kb):           0.
  
                          Minor page faults:        82640
                          Major page faults:            2
                 Voluntary context switches:         1705
