  71  71   0   0
  0.4011563E+02  0.1487831E-08  0.1477209E-08  0.1500000E-08  0.3000000E-15
  1.000000000000000E-004
  CAR 
 unknown system                          
      5.23764433    -48.00785353  301     -2.03684952      1.00000000
    -48.008  0.0000E+00  0.0000E+00  0.0000E+00  0.0000E+00
    -47.830  0.0000E+00  0.0000E+00  0.0000E+00  0.0000E+00
    -47.653  0.0000E+00  0.0000E+00  0.0000E+00  0.0000E+00
    -47.475  0.0000E+00  0.0000E+00  0.0000E+00  0.0000E+00
    -47.298  0.0000E+00  0.0000E+00  0.0000E+00  0.0000E+00
    -47.120  0.0000E+00  0.0000E+00  0.0000E+00  0.0000E+00
    -46.943  0.0000E+00  0.0000E+00  0.0000E+00  0.0000E+00
    -46.765  0.0000E+00  0.0000E+00  0.0000E+00  0.0000E+00
    -46.588  0.0000E+00  0.0000E+00  0.0000E+00  0.0000E+00
    -46.410  0.0000E+00  0.0000E+00  0.0000E+00  0.0000E+00
    -46.233  0.0000E+00  0.0000E+00  0.0000E+00  0.0000E+00
    -46.056  0.2576E-12  0.1576E-14  0.4572E-13  0.2796E-15
    -45.878  0.2819E-06  0.9921E-08  0.5004E-07  0.1761E-08
    -45.701  0.7759E-03  0.1457E-03  0.1378E-03  0.2586E-04
    -45.523  0.1076E-01  0.8261E-02  0.2048E-02  0.1492E-02
    -45.346  0.2541E-02  0.1505E-01  0.2499E-02  0.4163E-02
    -45.168  0.2490E-03  0.4694E-02  0.2543E-02  0.4996E-02
    -44.991  0.1440E-01  0.6220E-03  0.5099E-02  0.5106E-02
    -44.813  0.1334E-01  0.1045E-01  0.7467E-02  0.6962E-02
    -44.636  0.1857E-03  0.3025E-02  0.7500E-02  0.7499E-02
    -44.458  0.1150E-07  0.6850E-05  0.7500E-02  0.7500E-02
    -44.281  0.1825E-14  0.4443E-10  0.7500E-02  0.7500E-02
    -44.103  0.0000E+00  0.0000E+00  0.7500E-02  0.7500E-02
    -43.926  0.0000E+00  0.0000E+00  0.7500E-02  0.7500E-02
    -43.748  0.0000E+00  0.0000E+00  0.7500E-02  0.7500E-02
    -43.571  0.0000E+00  0.0000E+00  0.7500E-02  0.7500E-02
    -43.393  0.0000E+00  0.0000E+00  0.7500E-02  0.7500E-02
    -43.216  0.0000E+00  0.0000E+00  0.7500E-02  0.7500E-02
    -43.038  0.0000E+00  0.0000E+00  0.7500E-02  0.7500E-02
    -42.861  0.0000E+00  0.0000E+00  0.7500E-02  0.7500E-02
    -42.683  0.0000E+00  0.0000E+00  0.7500E-02  0.7500E-02
    -42.506  0.0000E+00  0.0000E+00  0.7500E-02  0.7500E-02
    -42.328  0.0000E+00  0.0000E+00  0.7500E-02  0.7500E-02
    -42.151  0.0000E+00  0.0000E+00  0.7500E-02  0.7500E-02
    -41.973  0.0000E+00  0.0000E+00  0.7500E-02  0.7500E-02
    -41.796  0.0000E+00  0.0000E+00  0.7500E-02  0.7500E-02
    -41.618  0.0000E+00  0.0000E+00  0.7500E-02  0.7500E-02
    -41.441  0.0000E+00  0.0000E+00  0.7500E-02  0.7500E-02
    -41.263  0.0000E+00  0.0000E+00  0.7500E-02  0.7500E-02
    -41.086  0.0000E+00  0.0000E+00  0.7500E-02  0.7500E-02
    -40.908  0.0000E+00  0.0000E+00  0.7500E-02  0.7500E-02
    -40.731  0.0000E+00  0.0000E+00  0.7500E-02  0.7500E-02
    -40.553  0.0000E+00  0.0000E+00  0.7500E-02  0.7500E-02
    -40.376  0.0000E+00  0.0000E+00  0.7500E-02  0.7500E-02
    -40.199  0.0000E+00  0.0000E+00  0.7500E-02  0.7500E-02
    -40.021  0.0000E+00  0.0000E+00  0.7500E-02  0.7500E-02
    -39.844  0.0000E+00  0.0000E+00  0.7500E-02  0.7500E-02
    -39.666  0.0000E+00  0.0000E+00  0.7500E-02  0.7500E-02
    -39.489  0.0000E+00  0.0000E+00  0.7500E-02  0.7500E-02
    -39.311  0.0000E+00  0.0000E+00  0.7500E-02  0.7500E-02
    -39.134  0.0000E+00  0.0000E+00  0.7500E-02  0.7500E-02
    -38.956  0.0000E+00  0.0000E+00  0.7500E-02  0.7500E-02
    -38.779  0.0000E+00  0.0000E+00  0.7500E-02  0.7500E-02
    -38.601  0.0000E+00  0.0000E+00  0.7500E-02  0.7500E-02
    -38.424  0.0000E+00  0.0000E+00  0.7500E-02  0.7500E-02
    -38.246  0.0000E+00  0.0000E+00  0.7500E-02  0.7500E-02
    -38.069  0.0000E+00  0.0000E+00  0.7500E-02  0.7500E-02
    -37.891  0.0000E+00  0.0000E+00  0.7500E-02  0.7500E-02
    -37.714  0.0000E+00  0.0000E+00  0.7500E-02  0.7500E-02
    -37.536  0.0000E+00  0.0000E+00  0.7500E-02  0.7500E-02
    -37.359  0.0000E+00  0.0000E+00  0.7500E-02  0.7500E-02
    -37.181  0.0000E+00  0.0000E+00  0.7500E-02  0.7500E-02
    -37.004  0.0000E+00  0.0000E+00  0.7500E-02  0.7500E-02
    -36.826  0.0000E+00  0.0000E+00  0.7500E-02  0.7500E-02
    -36.649  0.0000E+00  0.0000E+00  0.7500E-02  0.7500E-02
    -36.471  0.0000E+00  0.0000E+00  0.7500E-02  0.7500E-02
    -36.294  0.0000E+00  0.0000E+00  0.7500E-02  0.7500E-02
    -36.116  0.0000E+00  0.0000E+00  0.7500E-02  0.7500E-02
    -35.939  0.0000E+00  0.0000E+00  0.7500E-02  0.7500E-02
    -35.761  0.0000E+00  0.0000E+00  0.7500E-02  0.7500E-02
    -35.584  0.0000E+00  0.0000E+00  0.7500E-02  0.7500E-02
    -35.406  0.0000E+00  0.0000E+00  0.7500E-02  0.7500E-02
    -35.229  0.0000E+00  0.0000E+00  0.7500E-02  0.7500E-02
    -35.051  0.0000E+00  0.0000E+00  0.7500E-02  0.7500E-02
    -34.874  0.0000E+00  0.0000E+00  0.7500E-02  0.7500E-02
    -34.696  0.0000E+00  0.0000E+00  0.7500E-02  0.7500E-02
    -34.519  0.0000E+00  0.0000E+00  0.7500E-02  0.7500E-02
    -34.342  0.0000E+00  0.0000E+00  0.7500E-02  0.7500E-02
    -34.164  0.0000E+00  0.0000E+00  0.7500E-02  0.7500E-02
    -33.987  0.0000E+00  0.0000E+00  0.7500E-02  0.7500E-02
    -33.809  0.0000E+00  0.0000E+00  0.7500E-02  0.7500E-02
    -33.632  0.0000E+00  0.0000E+00  0.7500E-02  0.7500E-02
    -33.454  0.0000E+00  0.0000E+00  0.7500E-02  0.7500E-02
    -33.277  0.0000E+00  0.0000E+00  0.7500E-02  0.7500E-02
    -33.099  0.0000E+00  0.0000E+00  0.7500E-02  0.7500E-02
    -32.922  0.0000E+00  0.0000E+00  0.7500E-02  0.7500E-02
    -32.744  0.0000E+00  0.0000E+00  0.7500E-02  0.7500E-02
    -32.567  0.0000E+00  0.0000E+00  0.7500E-02  0.7500E-02
    -32.389  0.0000E+00  0.0000E+00  0.7500E-02  0.7500E-02
    -32.212  0.0000E+00  0.0000E+00  0.7500E-02  0.7500E-02
    -32.034  0.0000E+00  0.0000E+00  0.7500E-02  0.7500E-02
    -31.857  0.0000E+00  0.0000E+00  0.7500E-02  0.7500E-02
    -31.679  0.0000E+00  0.0000E+00  0.7500E-02  0.7500E-02
    -31.502  0.0000E+00  0.0000E+00  0.7500E-02  0.7500E-02
    -31.324  0.0000E+00  0.0000E+00  0.7500E-02  0.7500E-02
    -31.147  0.0000E+00  0.0000E+00  0.7500E-02  0.7500E-02
    -30.969  0.0000E+00  0.0000E+00  0.7500E-02  0.7500E-02
    -30.792  0.0000E+00  0.0000E+00  0.7500E-02  0.7500E-02
    -30.614  0.0000E+00  0.0000E+00  0.7500E-02  0.7500E-02
    -30.437  0.0000E+00  0.0000E+00  0.7500E-02  0.7500E-02
    -30.259  0.0000E+00  0.0000E+00  0.7500E-02  0.7500E-02
    -30.082  0.0000E+00  0.0000E+00  0.7500E-02  0.7500E-02
    -29.904  0.0000E+00  0.0000E+00  0.7500E-02  0.7500E-02
    -29.727  0.0000E+00  0.0000E+00  0.7500E-02  0.7500E-02
    -29.549  0.0000E+00  0.0000E+00  0.7500E-02  0.7500E-02
    -29.372  0.0000E+00  0.0000E+00  0.7500E-02  0.7500E-02
    -29.194  0.0000E+00  0.0000E+00  0.7500E-02  0.7500E-02
    -29.017  0.0000E+00  0.0000E+00  0.7500E-02  0.7500E-02
    -28.839  0.0000E+00  0.0000E+00  0.7500E-02  0.7500E-02
    -28.662  0.0000E+00  0.0000E+00  0.7500E-02  0.7500E-02
    -28.485  0.0000E+00  0.0000E+00  0.7500E-02  0.7500E-02
    -28.307  0.0000E+00  0.0000E+00  0.7500E-02  0.7500E-02
    -28.130  0.0000E+00  0.0000E+00  0.7500E-02  0.7500E-02
    -27.952  0.0000E+00  0.0000E+00  0.7500E-02  0.7500E-02
    -27.775  0.0000E+00  0.0000E+00  0.7500E-02  0.7500E-02
    -27.597  0.0000E+00  0.0000E+00  0.7500E-02  0.7500E-02
    -27.420  0.0000E+00  0.0000E+00  0.7500E-02  0.7500E-02
    -27.242  0.0000E+00  0.0000E+00  0.7500E-02  0.7500E-02
    -27.065  0.0000E+00  0.0000E+00  0.7500E-02  0.7500E-02
    -26.887  0.0000E+00  0.0000E+00  0.7500E-02  0.7500E-02
    -26.710  0.0000E+00  0.0000E+00  0.7500E-02  0.7500E-02
    -26.532  0.0000E+00  0.0000E+00  0.7500E-02  0.7500E-02
    -26.355  0.0000E+00  0.0000E+00  0.7500E-02  0.7500E-02
    -26.177  0.0000E+00  0.0000E+00  0.7500E-02  0.7500E-02
    -26.000  0.0000E+00  0.0000E+00  0.7500E-02  0.7500E-02
    -25.822  0.0000E+00  0.0000E+00  0.7500E-02  0.7500E-02
    -25.645  0.0000E+00  0.0000E+00  0.7500E-02  0.7500E-02
    -25.467  0.0000E+00  0.0000E+00  0.7500E-02  0.7500E-02
    -25.290  0.0000E+00  0.0000E+00  0.7500E-02  0.7500E-02
    -25.112  0.0000E+00  0.0000E+00  0.7500E-02  0.7500E-02
    -24.935  0.0000E+00  0.0000E+00  0.7500E-02  0.7500E-02
    -24.757  0.0000E+00  0.0000E+00  0.7500E-02  0.7500E-02
    -24.580  0.6523E-11  0.6241E-11  0.7500E-02  0.7500E-02
    -24.402  0.2143E-05  0.2086E-05  0.7500E-02  0.7500E-02
    -24.225  0.1904E-02  0.1882E-02  0.7838E-02  0.7834E-02
    -24.047  0.1106E-01  0.1107E-01  0.9801E-02  0.9799E-02
    -23.870  0.1119E-02  0.1134E-02  0.1000E-01  0.1000E-01
    -23.692  0.6277E-06  0.6463E-06  0.1000E-01  0.1000E-01
    -23.515  0.9079E-12  0.9510E-12  0.1000E-01  0.1000E-01
    -23.337  0.0000E+00  0.0000E+00  0.1000E-01  0.1000E-01
    -23.160  0.0000E+00  0.0000E+00  0.1000E-01  0.1000E-01
    -22.982  0.0000E+00  0.0000E+00  0.1000E-01  0.1000E-01
    -22.805  0.0000E+00  0.0000E+00  0.1000E-01  0.1000E-01
    -22.627  0.0000E+00  0.0000E+00  0.1000E-01  0.1000E-01
    -22.450  0.0000E+00  0.0000E+00  0.1000E-01  0.1000E-01
    -22.273  0.0000E+00  0.0000E+00  0.1000E-01  0.1000E-01
    -22.095  0.0000E+00  0.0000E+00  0.1000E-01  0.1000E-01
    -21.918  0.9533E-11  0.9484E-11  0.1000E-01  0.1000E-01
    -21.740  0.2213E-05  0.2206E-05  0.1000E-01  0.1000E-01
    -21.563  0.1581E-02  0.1579E-02  0.1028E-01  0.1028E-01
    -21.385  0.1241E-01  0.1241E-01  0.1248E-01  0.1248E-01
    -21.208  0.1318E-01  0.1317E-01  0.1482E-01  0.1482E-01
    -21.030  0.1389E-01  0.1388E-01  0.1729E-01  0.1728E-01
    -20.853  0.1274E-01  0.1276E-01  0.1955E-01  0.1955E-01
    -20.675  0.9472E-02  0.9452E-02  0.2123E-01  0.2123E-01
    -20.498  0.1889E-01  0.1889E-01  0.2458E-01  0.2458E-01
    -20.320  0.1509E-01  0.1510E-01  0.2726E-01  0.2726E-01
    -20.143  0.7354E-02  0.7345E-02  0.2857E-01  0.2856E-01
    -19.965  0.1448E-01  0.1448E-01  0.3114E-01  0.3113E-01
    -19.788  0.1444E-01  0.1441E-01  0.3370E-01  0.3369E-01
    -19.610  0.1644E-01  0.1646E-01  0.3662E-01  0.3661E-01
    -19.433  0.1247E-01  0.1247E-01  0.3883E-01  0.3883E-01
    -19.255  0.1164E-01  0.1161E-01  0.4090E-01  0.4089E-01
    -19.078  0.1429E-01  0.1432E-01  0.4343E-01  0.4343E-01
    -18.900  0.1235E-01  0.1232E-01  0.4563E-01  0.4562E-01
    -18.723  0.1420E-01  0.1422E-01  0.4815E-01  0.4814E-01
    -18.545  0.1864E-01  0.1866E-01  0.5146E-01  0.5145E-01
    -18.368  0.1010E-01  0.1007E-01  0.5325E-01  0.5324E-01
    -18.190  0.1923E-01  0.1923E-01  0.5666E-01  0.5665E-01
    -18.013  0.1261E-01  0.1260E-01  0.5890E-01  0.5889E-01
    -17.835  0.1227E-01  0.1231E-01  0.6108E-01  0.6107E-01
    -17.658  0.8754E-02  0.8714E-02  0.6263E-01  0.6262E-01
    -17.480  0.2127E-01  0.2129E-01  0.6640E-01  0.6640E-01
    -17.303  0.1707E-01  0.1704E-01  0.6943E-01  0.6942E-01
    -17.125  0.1630E-01  0.1630E-01  0.7233E-01  0.7231E-01
    -16.948  0.1520E-01  0.1522E-01  0.7502E-01  0.7502E-01
    -16.770  0.1827E-01  0.1826E-01  0.7827E-01  0.7826E-01
    -16.593  0.1103E-01  0.1104E-01  0.8022E-01  0.8022E-01
    -16.416  0.1170E-01  0.1167E-01  0.8230E-01  0.8229E-01
    -16.238  0.1286E-01  0.1288E-01  0.8458E-01  0.8457E-01
    -16.061  0.1867E-01  0.1865E-01  0.8790E-01  0.8788E-01
    -15.883  0.1498E-01  0.1501E-01  0.9056E-01  0.9055E-01
    -15.706  0.1005E-01  0.1003E-01  0.9234E-01  0.9233E-01
    -15.528  0.7199E-02  0.7235E-02  0.9362E-01  0.9361E-01
    -15.351  0.8859E-02  0.8788E-02  0.9519E-01  0.9517E-01
    -15.173  0.1322E-01  0.1322E-01  0.9754E-01  0.9752E-01
    -14.996  0.1769E-01  0.1774E-01  0.1007E+00  0.1007E+00
    -14.818  0.1828E-01  0.1828E-01  0.1039E+00  0.1039E+00
    -14.641  0.1163E-01  0.1163E-01  0.1060E+00  0.1060E+00
    -14.463  0.1562E-01  0.1560E-01  0.1088E+00  0.1087E+00
    -14.286  0.1508E-01  0.1509E-01  0.1114E+00  0.1114E+00
    -14.108  0.1838E-01  0.1841E-01  0.1147E+00  0.1147E+00
    -13.931  0.1359E-01  0.1353E-01  0.1171E+00  0.1171E+00
    -13.753  0.1961E-01  0.1963E-01  0.1206E+00  0.1206E+00
    -13.576  0.1016E-01  0.1017E-01  0.1224E+00  0.1224E+00
    -13.398  0.1958E-01  0.1954E-01  0.1259E+00  0.1258E+00
    -13.221  0.1001E-01  0.1007E-01  0.1276E+00  0.1276E+00
    -13.043  0.9723E-02  0.9732E-02  0.1294E+00  0.1294E+00
    -12.866  0.1194E-01  0.1190E-01  0.1315E+00  0.1315E+00
    -12.688  0.2269E-01  0.2267E-01  0.1355E+00  0.1355E+00
    -12.511  0.1696E-01  0.1699E-01  0.1385E+00  0.1385E+00
    -12.333  0.1088E-01  0.1092E-01  0.1405E+00  0.1405E+00
    -12.156  0.8165E-02  0.8143E-02  0.1419E+00  0.1419E+00
    -11.978  0.1467E-01  0.1467E-01  0.1445E+00  0.1445E+00
    -11.801  0.1832E-01  0.1829E-01  0.1478E+00  0.1477E+00
    -11.623  0.2746E-01  0.2740E-01  0.1526E+00  0.1526E+00
    -11.446  0.2221E-01  0.2227E-01  0.1566E+00  0.1566E+00
    -11.268  0.6232E-02  0.6284E-02  0.1577E+00  0.1577E+00
    -11.091  0.1112E-01  0.1106E-01  0.1597E+00  0.1596E+00
    -10.913  0.2038E-01  0.2038E-01  0.1633E+00  0.1633E+00
    -10.736  0.1868E-01  0.1867E-01  0.1666E+00  0.1666E+00
    -10.559  0.1303E-01  0.1303E-01  0.1689E+00  0.1689E+00
    -10.381  0.3071E-01  0.3066E-01  0.1743E+00  0.1743E+00
    -10.204  0.2711E-01  0.2722E-01  0.1792E+00  0.1792E+00
    -10.026  0.1823E-01  0.1819E-01  0.1824E+00  0.1824E+00
     -9.849  0.2307E-01  0.2305E-01  0.1865E+00  0.1865E+00
     -9.671  0.1990E-01  0.1985E-01  0.1900E+00  0.1900E+00
     -9.494  0.3255E-01  0.3261E-01  0.1958E+00  0.1958E+00
     -9.316  0.3168E-01  0.3167E-01  0.2014E+00  0.2014E+00
     -9.139  0.2733E-01  0.2734E-01  0.2063E+00  0.2063E+00
     -8.961  0.3472E-01  0.3474E-01  0.2124E+00  0.2124E+00
     -8.784  0.3385E-01  0.3384E-01  0.2184E+00  0.2184E+00
     -8.606  0.3770E-01  0.3762E-01  0.2251E+00  0.2251E+00
     -8.429  0.5684E-01  0.5690E-01  0.2352E+00  0.2352E+00
     -8.251  0.4259E-01  0.4260E-01  0.2428E+00  0.2428E+00
     -8.074  0.2605E-01  0.2603E-01  0.2474E+00  0.2474E+00
     -7.896  0.3425E-01  0.3426E-01  0.2535E+00  0.2535E+00
     -7.719  0.2297E-01  0.2297E-01  0.2576E+00  0.2575E+00
     -7.541  0.3111E-01  0.3101E-01  0.2631E+00  0.2630E+00
     -7.364  0.3612E-01  0.3619E-01  0.2695E+00  0.2695E+00
     -7.186  0.3214E-01  0.3218E-01  0.2752E+00  0.2752E+00
     -7.009  0.3555E-01  0.3522E-01  0.2815E+00  0.2814E+00
     -6.831  0.2817E-01  0.2847E-01  0.2865E+00  0.2865E+00
     -6.654  0.1514E-01  0.1491E-01  0.2892E+00  0.2891E+00
     -6.476  0.1684E-01  0.1697E-01  0.2922E+00  0.2921E+00
     -6.299  0.3077E-01  0.3061E-01  0.2976E+00  0.2976E+00
     -6.121  0.3856E-01  0.3877E-01  0.3045E+00  0.3045E+00
     -5.944  0.2603E-01  0.2586E-01  0.3091E+00  0.3090E+00
     -5.766  0.2597E-01  0.2640E-01  0.3137E+00  0.3137E+00
     -5.589  0.2220E-01  0.2202E-01  0.3177E+00  0.3176E+00
     -5.411  0.1626E-01  0.1610E-01  0.3205E+00  0.3205E+00
     -5.234  0.1718E-01  0.1781E-01  0.3236E+00  0.3237E+00
     -5.056  0.2783E-01  0.2832E-01  0.3285E+00  0.3287E+00
     -4.879  0.2854E-01  0.2787E-01  0.3336E+00  0.3336E+00
     -4.702  0.2662E-01  0.2683E-01  0.3383E+00  0.3384E+00
     -4.524  0.3043E-01  0.3016E-01  0.3437E+00  0.3437E+00
     -4.347  0.5321E-02  0.5218E-02  0.3447E+00  0.3447E+00
     -4.169  0.7604E-02  0.7678E-02  0.3460E+00  0.3460E+00
     -3.992  0.1374E-01  0.1279E-01  0.3485E+00  0.3483E+00
     -3.814  0.2913E-01  0.2820E-01  0.3536E+00  0.3533E+00
     -3.637  0.1146E-01  0.1326E-01  0.3557E+00  0.3557E+00
     -3.459  0.8684E-02  0.8675E-02  0.3572E+00  0.3572E+00
     -3.282  0.1086E-01  0.1091E-01  0.3591E+00  0.3591E+00
     -3.104  0.1050E-01  0.1211E-01  0.3610E+00  0.3613E+00
     -2.927  0.4879E-02  0.4137E-02  0.3619E+00  0.3620E+00
     -2.749  0.4063E-02  0.7973E-02  0.3626E+00  0.3634E+00
     -2.572  0.6662E-02  0.1829E-02  0.3638E+00  0.3638E+00
     -2.394  0.3240E-02  0.2906E-02  0.3643E+00  0.3643E+00
     -2.217  0.3736E-02  0.4158E-02  0.3650E+00  0.3650E+00
     -2.039  0.6621E-02  0.6996E-02  0.3662E+00  0.3663E+00
     -1.862  0.1010E-01  0.1179E-01  0.3680E+00  0.3684E+00
     -1.684  0.3321E-02  0.3390E-02  0.3686E+00  0.3690E+00
     -1.507  0.6711E-02  0.7944E-02  0.3698E+00  0.3704E+00
     -1.329  0.1027E-01  0.1182E-01  0.3716E+00  0.3725E+00
     -1.152  0.2177E-01  0.1876E-01  0.3754E+00  0.3758E+00
     -0.974  0.1581E-01  0.1440E-01  0.3782E+00  0.3783E+00
     -0.797  0.1854E-01  0.1789E-01  0.3815E+00  0.3815E+00
     -0.619  0.1752E-01  0.1768E-01  0.3846E+00  0.3847E+00
     -0.442  0.1287E-01  0.1284E-01  0.3869E+00  0.3869E+00
     -0.264  0.1960E-01  0.1945E-01  0.3904E+00  0.3904E+00
     -0.087  0.1202E-01  0.1232E-01  0.3925E+00  0.3926E+00
      0.091  0.9399E-02  0.9355E-02  0.3942E+00  0.3942E+00
      0.268  0.2371E-01  0.2368E-01  0.3984E+00  0.3984E+00
      0.446  0.1789E-01  0.1771E-01  0.4016E+00  0.4016E+00
      0.623  0.1453E-01  0.1450E-01  0.4042E+00  0.4042E+00
      0.801  0.1072E-01  0.1095E-01  0.4061E+00  0.4061E+00
      0.978  0.1771E-01  0.1837E-01  0.4092E+00  0.4094E+00
      1.155  0.1369E-01  0.1337E-01  0.4116E+00  0.4117E+00
      1.333  0.1764E-01  0.1815E-01  0.4148E+00  0.4150E+00
      1.510  0.1881E-01  0.1839E-01  0.4181E+00  0.4182E+00
      1.688  0.2200E-01  0.2181E-01  0.4220E+00  0.4221E+00
      1.865  0.2411E-01  0.2429E-01  0.4263E+00  0.4264E+00
      2.043  0.3505E-01  0.3556E-01  0.4325E+00  0.4327E+00
      2.220  0.2798E-01  0.2820E-01  0.4375E+00  0.4377E+00
      2.398  0.2164E-01  0.2214E-01  0.4413E+00  0.4416E+00
      2.575  0.3539E-01  0.3536E-01  0.4476E+00  0.4479E+00
      2.753  0.4908E-01  0.5093E-01  0.4563E+00  0.4570E+00
      2.930  0.2015E-01  0.1673E-01  0.4599E+00  0.4599E+00
      3.108  0.5651E-03  0.3872E-03  0.4600E+00  0.4600E+00
      3.285  0.1262E-06  0.7110E-07  0.4600E+00  0.4600E+00
      3.463  0.8979E-13  0.3779E-13  0.4600E+00  0.4600E+00
      3.640  0.0000E+00  0.0000E+00  0.4600E+00  0.4600E+00
      3.818  0.0000E+00  0.0000E+00  0.4600E+00  0.4600E+00
      3.995  0.0000E+00  0.0000E+00  0.4600E+00  0.4600E+00
      4.173  0.0000E+00  0.0000E+00  0.4600E+00  0.4600E+00
      4.350  0.0000E+00  0.0000E+00  0.4600E+00  0.4600E+00
      4.528  0.0000E+00  0.0000E+00  0.4600E+00  0.4600E+00
      4.705  0.0000E+00  0.0000E+00  0.4600E+00  0.4600E+00
      4.883  0.0000E+00  0.0000E+00  0.4600E+00  0.4600E+00
      5.060  0.0000E+00  0.0000E+00  0.4600E+00  0.4600E+00
      5.238  0.0000E+00  0.0000E+00  0.4600E+00  0.4600E+00
