 vasp.5.4.4.18Apr17-6-g9f103f2a35 (build Sep 02 2021 13:24:58) complex          
  
 executed on             LinuxIFC date 2023.01.15  13:02:10
 running on   48 total cores
 distrk:  each k-point on   48 cores,    1 groups
 distr:  one band on NCORES_PER_BAND=  12 cores,    4 groups


--------------------------------------------------------------------------------------------------------


 INCAR:
 POTCAR:    PAW_PBE C 08Apr2002                   
 POTCAR:    PAW_PBE N 08Apr2002                   
 POTCAR:    PAW_PBE C 08Apr2002                   
 POTCAR:    PAW_PBE Cr_pv 02Aug2007               
 POTCAR:    PAW_PBE C 08Apr2002                   
   SHA256 =  253f7b50bb8d59471dbedb8285d89021f4a42ed1a2c5d38a03a736e69125dd95 C/
   COPYR  = (c) Copyright 08Apr2002 Georg Kresse                                
   COPYR  = This file is part of the software VASP. Any use, copying, and all ot
   COPYR  = If you do not have a valid VASP license, you may not use, copy or di
   VRHFIN =C: s2p2                                                              
   LEXCH  = PE                                                                  
   EATOM  =   147.1560 eV,   10.8157 Ry                                         
                                                                                
   TITEL  = PAW_PBE C 08Apr2002                                                 
   LULTRA =        F    use ultrasoft PP ?                                      
   IUNSCR =        1    unscreen: 0-lin 1-nonlin 2-no                           
   RPACOR =    1.200    partial core radius                                     
   POMASS =   12.011; ZVAL   =    4.000    mass and valenz                      
   RCORE  =    1.500    outmost cutoff radius                                   
   RWIGS  =    1.630; RWIGS  =    0.863    wigner-seitz radius (au A)           
   ENMAX  =  400.000; ENMIN  =  300.000 eV                                      
   ICORE  =        2    local potential                                         
   LCOR   =        T    correct aug charges                                     
   LPAW   =        T    paw PP                                                  
   EAUG   =  644.873                                                            
   DEXC   =    0.000                                                            
   RMAX   =    1.529    core radius for proj-oper                               
   RAUG   =    1.300    factor for augmentation sphere                          
   RDEP   =    1.501    radius for radial grids                                 
   RDEPT  =    1.300    core radius for aug-charge                              
                                                                                
   Atomic configuration                                                         
    4 entries                                                                   
     n  l   j            E        occ.                                          
     1  0  0.50      -273.3789   2.0000                                         
     2  0  0.50       -13.7508   2.0000                                         
     2  1  0.50        -5.2854   2.0000                                         
     3  2  1.50        -5.4423   0.0000                                         
   Description                                                                  
     l       E           TYP  RCUT    TYP  RCUT                                 
     0    -13.7508458     23  1.200                                             
     0     -8.2022199     23  1.200                                             
     1     -5.2854383     23  1.500                                             
     1     34.0145650     23  1.500                                             
     2     -5.4423304      7  1.500                                             
  local pseudopotential read in
  partial core-charges read in
  partial kinetic energy density read in
  atomic valenz-charges read in
  non local Contribution for L=           0  read in
    real space projection operators read in
  non local Contribution for L=           0  read in
    real space projection operators read in
  non local Contribution for L=           1  read in
    real space projection operators read in
  non local Contribution for L=           1  read in
    real space projection operators read in
    PAW grid and wavefunctions read in
 
   number of l-projection  operators is LMAX  =           4
   number of lm-projection operators is LMMAX =           8
 
 POTCAR:    PAW_PBE N 08Apr2002                   
   SHA256 =  e053789ff3a61a86a1b75d8a110fcc91f86041011e7b0817c7c99e4e8a6349d7 N/
   COPYR  = (c) Copyright 08Apr2002 Georg Kresse                                
   COPYR  = This file is part of the software VASP. Any use, copying, and all ot
   COPYR  = If you do not have a valid VASP license, you may not use, copy or di
   VRHFIN =N: s2p3                                                              
   LEXCH  = PE                                                                  
   EATOM  =   264.5486 eV,   19.4438 Ry                                         
                                                                                
   TITEL  = PAW_PBE N 08Apr2002                                                 
   LULTRA =        F    use ultrasoft PP ?                                      
   IUNSCR =        1    unscreen: 0-lin 1-nonlin 2-no                           
   RPACOR =    1.200    partial core radius                                     
   POMASS =   14.001; ZVAL   =    5.000    mass and valenz                      
   RCORE  =    1.500    outmost cutoff radius                                   
   RWIGS  =    1.400; RWIGS  =    0.741    wigner-seitz radius (au A)           
   ENMAX  =  400.000; ENMIN  =  300.000 eV                                      
   ICORE  =        2    local potential                                         
   LCOR   =        T    correct aug charges                                     
   LPAW   =        T    paw PP                                                  
   EAUG   =  627.112                                                            
   DEXC   =    0.000                                                            
   RMAX   =    1.529    core radius for proj-oper                               
   RAUG   =    1.300    factor for augmentation sphere                          
   RDEP   =    1.514    radius for radial grids                                 
   RDEPT  =    1.338    core radius for aug-charge                              
                                                                                
   Atomic configuration                                                         
    4 entries                                                                   
     n  l   j            E        occ.                                          
     1  0  0.50      -384.7179   2.0000                                         
     2  0  0.50       -18.5828   2.0000                                         
     2  1  0.50        -7.0898   3.0000                                         
     3  2  1.50        -6.8029   0.0000                                         
   Description                                                                  
     l       E           TYP  RCUT    TYP  RCUT                                 
     0    -18.5828119     23  1.200                                             
     0    -13.5018863     23  1.200                                             
     1     -7.0897853     23  1.500                                             
     1      9.5240782     23  1.500                                             
     2     -6.8029130      7  1.500                                             
  local pseudopotential read in
  partial core-charges read in
  partial kinetic energy density read in
  atomic valenz-charges read in
  non local Contribution for L=           0  read in
    real space projection operators read in
  non local Contribution for L=           0  read in
    real space projection operators read in
  non local Contribution for L=           1  read in
    real space projection operators read in
  non local Contribution for L=           1  read in
    real space projection operators read in
    PAW grid and wavefunctions read in
 
   number of l-projection  operators is LMAX  =           4
   number of lm-projection operators is LMMAX =           8
 
 POTCAR:    PAW_PBE C 08Apr2002                   
   SHA256 =  253f7b50bb8d59471dbedb8285d89021f4a42ed1a2c5d38a03a736e69125dd95 C/
   COPYR  = (c) Copyright 08Apr2002 Georg Kresse                                
   COPYR  = This file is part of the software VASP. Any use, copying, and all ot
   COPYR  = If you do not have a valid VASP license, you may not use, copy or di
   VRHFIN =C: s2p2                                                              
   LEXCH  = PE                                                                  
   EATOM  =   147.1560 eV,   10.8157 Ry                                         
                                                                                
   TITEL  = PAW_PBE C 08Apr2002                                                 
   LULTRA =        F    use ultrasoft PP ?                                      
   IUNSCR =        1    unscreen: 0-lin 1-nonlin 2-no                           
   RPACOR =    1.200    partial core radius                                     
   POMASS =   12.011; ZVAL   =    4.000    mass and valenz                      
   RCORE  =    1.500    outmost cutoff radius                                   
   RWIGS  =    1.630; RWIGS  =    0.863    wigner-seitz radius (au A)           
   ENMAX  =  400.000; ENMIN  =  300.000 eV                                      
   ICORE  =        2    local potential                                         
   LCOR   =        T    correct aug charges                                     
   LPAW   =        T    paw PP                                                  
   EAUG   =  644.873                                                            
   DEXC   =    0.000                                                            
   RMAX   =    1.529    core radius for proj-oper                               
   RAUG   =    1.300    factor for augmentation sphere                          
   RDEP   =    1.501    radius for radial grids                                 
   RDEPT  =    1.300    core radius for aug-charge                              
                                                                                
   Atomic configuration                                                         
    4 entries                                                                   
     n  l   j            E        occ.                                          
     1  0  0.50      -273.3789   2.0000                                         
     2  0  0.50       -13.7508   2.0000                                         
     2  1  0.50        -5.2854   2.0000                                         
     3  2  1.50        -5.4423   0.0000                                         
   Description                                                                  
     l       E           TYP  RCUT    TYP  RCUT                                 
     0    -13.7508458     23  1.200                                             
     0     -8.2022199     23  1.200                                             
     1     -5.2854383     23  1.500                                             
     1     34.0145650     23  1.500                                             
     2     -5.4423304      7  1.500                                             
  local pseudopotential read in
  partial core-charges read in
  partial kinetic energy density read in
  atomic valenz-charges read in
  non local Contribution for L=           0  read in
    real space projection operators read in
  non local Contribution for L=           0  read in
    real space projection operators read in
  non local Contribution for L=           1  read in
    real space projection operators read in
  non local Contribution for L=           1  read in
    real space projection operators read in
    PAW grid and wavefunctions read in
 
   number of l-projection  operators is LMAX  =           4
   number of lm-projection operators is LMMAX =           8
 
 POTCAR:    PAW_PBE Cr_pv 02Aug2007               
   SHA256 =  c9a7df34d3cdbacf1090e328ef39c0b420964e11c23f63548d1ac9dd218cdba0 Cr
   COPYR  = (c) Copyright 02Aug2007 Georg Kresse                                
   COPYR  = This file is part of the software VASP. Any use, copying, and all ot
   COPYR  = If you do not have a valid VASP license, you may not use, copy or di
   VRHFIN =Cr : p6d5s1                                                          
   LEXCH  = PE                                                                  
   EATOM  =  1647.9177 eV,  121.1185 Ry                                         
                                                                                
   TITEL  = PAW_PBE Cr_pv 02Aug2007                                             
   LULTRA =        F    use ultrasoft PP ?                                      
   IUNSCR =        1    unscreen: 0-lin 1-nonlin 2-no                           
   RPACOR =    2.080    partial core radius                                     
   POMASS =   51.996; ZVAL   =   12.000    mass and valenz                      
   RCORE  =    2.300    outmost cutoff radius                                   
   RWIGS  =    2.500; RWIGS  =    1.323    wigner-seitz radius (au A)           
   ENMAX  =  265.681; ENMIN  =  199.261 eV                                      
   ICORE  =        3    local potential                                         
   LCOR   =        T    correct aug charges                                     
   LPAW   =        T    paw PP                                                  
   EAUG   =  519.424                                                            
   DEXC   =    0.000                                                            
   RMAX   =    2.356    core radius for proj-oper                               
   RAUG   =    1.300    factor for augmentation sphere                          
   RDEP   =    2.447    radius for radial grids                                 
   RDEPT  =    1.882    core radius for aug-charge                              
                                                                                
   Atomic configuration                                                         
    8 entries                                                                   
     n  l   j            E        occ.                                          
     1  0  0.50     -5880.4963   2.0000                                         
     2  0  0.50      -667.0865   2.0000                                         
     2  1  1.50      -560.6250   6.0000                                         
     3  0  0.50       -73.9860   2.0000                                         
     3  1  1.50       -45.4378   6.0000                                         
     3  2  2.50        -2.9137   5.0000                                         
     4  0  0.50        -4.0071   1.0000                                         
     4  3  2.50        -1.3606   0.0000                                         
   Description                                                                  
     l       E           TYP  RCUT    TYP  RCUT                                 
     1    -45.4377911     23  2.000                                             
     1      1.3605826     23  2.000                                             
     2     -2.9136672     23  2.300                                             
     2     -4.2742498     23  2.300                                             
     0     -4.0071320     23  2.300                                             
     0      9.4498803     23  2.300                                             
     3      2.7211652     23  2.300                                             
  local pseudopotential read in
  partial core-charges read in
  partial kinetic energy density read in
  atomic valenz-charges read in
  non local Contribution for L=           1  read in
    real space projection operators read in
  non local Contribution for L=           1  read in
    real space projection operators read in
  non local Contribution for L=           2  read in
    real space projection operators read in
  non local Contribution for L=           2  read in
    real space projection operators read in
  non local Contribution for L=           0  read in
    real space projection operators read in
  non local Contribution for L=           0  read in
    real space projection operators read in
    PAW grid and wavefunctions read in
 
   number of l-projection  operators is LMAX  =           6
   number of lm-projection operators is LMMAX =          18
 
 Optimization of the real space projectors (new method)

 maximal supplied QI-value         = 25.13
 optimisation between [QCUT,QGAM] = [ 11.81, 23.88] = [ 39.08,159.64] Ry 
 Optimized for a Real-space Cutoff    1.18 Angstroem

   l    n(q)    QCUT    max X(q) W(low)/X(q) W(high)/X(q)  e(spline) 
   0      8    11.813   115.676    0.10E-03    0.16E-03    0.35E-06
   0      8    11.813    87.132    0.10E-03    0.16E-03    0.35E-06
   1      8    11.813     4.429    0.16E-03    0.13E-04    0.22E-06
   1      8    11.813     2.733    0.13E-03    0.10E-04    0.18E-06
 Optimization of the real space projectors (new method)

 maximal supplied QI-value         = 25.13
 optimisation between [QCUT,QGAM] = [ 11.81, 23.88] = [ 39.08,159.64] Ry 
 Optimized for a Real-space Cutoff    1.41 Angstroem

   l    n(q)    QCUT    max X(q) W(low)/X(q) W(high)/X(q)  e(spline) 
   0     10    11.813    79.467    0.48E-04    0.30E-04    0.67E-06
   0     10    11.813    66.151    0.47E-04    0.30E-04    0.67E-06
   1     10    11.813    20.169    0.11E-03    0.17E-03    0.11E-05
   1     10    11.813    14.454    0.11E-03    0.17E-03    0.11E-05
 Optimization of the real space projectors (new method)

 maximal supplied QI-value         = 25.13
 optimisation between [QCUT,QGAM] = [ 11.81, 23.88] = [ 39.08,159.64] Ry 
 Optimized for a Real-space Cutoff    1.18 Angstroem

   l    n(q)    QCUT    max X(q) W(low)/X(q) W(high)/X(q)  e(spline) 
   0      8    11.813   115.676    0.10E-03    0.16E-03    0.35E-06
   0      8    11.813    87.132    0.10E-03    0.16E-03    0.35E-06
   1      8    11.813     4.429    0.16E-03    0.13E-04    0.22E-06
   1      8    11.813     2.733    0.13E-03    0.10E-04    0.18E-06
 Optimization of the real space projectors (new method)

 maximal supplied QI-value         = 16.25
 optimisation between [QCUT,QGAM] = [ 11.86, 23.89] = [ 39.41,159.82] Ry 
 Optimized for a Real-space Cutoff    1.33 Angstroem

   l    n(q)    QCUT    max X(q) W(low)/X(q) W(high)/X(q)  e(spline) 
   1      9    11.864     3.262    0.48E-04    0.16E-03    0.14E-06
   1      9    11.864     5.741    0.74E-04    0.40E-03    0.35E-06
   2      9    11.864    60.438    0.17E-03    0.21E-03    0.26E-06
   2      9    11.864    55.380    0.17E-03    0.21E-03    0.27E-06
   0      9    11.864    80.273    0.40E-04    0.47E-04    0.12E-06
   0      9    11.864    36.654    0.35E-04    0.41E-04    0.11E-06
  PAW_PBE C 08Apr2002                   :
 energy of atom  1       EATOM= -147.1560
 kinetic energy error for atom=    0.0066 (will be added to EATOM!!)
  PAW_PBE N 08Apr2002                   :
 energy of atom  2       EATOM= -264.5486
 kinetic energy error for atom=    0.0116 (will be added to EATOM!!)
  PAW_PBE C 08Apr2002                   :
 energy of atom  3       EATOM= -147.1560
 kinetic energy error for atom=    0.0066 (will be added to EATOM!!)
  PAW_PBE Cr_pv 02Aug2007               :
 energy of atom  4       EATOM=-1647.9177
 kinetic energy error for atom=    0.0054 (will be added to EATOM!!)
 
 
 POSCAR: POSCAR-clean                            
  positions in cartesian coordinates
  No initial velocities read in
 exchange correlation table for  LEXCH =        8
   RHO(1)=    0.500       N(1)  =     2000
   RHO(2)=  100.500       N(2)  =     4000
 


--------------------------------------------------------------------------------------------------------


 ion  position               nearest neighbor table
   1  0.000  1.000  0.498-   2 1.42  60 1.42  70 1.43
   2  0.056  0.111  0.498-   1 1.42  13 1.42  15 1.43
   3  0.168  0.002  0.498-   4 1.42  62 1.43  60 1.43
   4  0.224  0.113  0.498-   3 1.42  15 1.42  17 1.44
   5  0.334  0.002  0.498-   6 1.42  62 1.43  64 1.43
   6  0.390  0.113  0.498-   5 1.42  19 1.42  17 1.44
   7  0.500  1.000  0.498-   8 1.42  64 1.42  66 1.43
   8  0.556  0.111  0.498-   7 1.42  21 1.42  19 1.43
   9  0.666  0.998  0.498-  10 1.42  66 1.42  68 1.44
  10  0.722  0.109  0.498-   9 1.42  23 1.43  21 1.43
  11  0.832  0.998  0.498-  12 1.42  70 1.42  68 1.44
  12  0.888  0.109  0.498-  11 1.42  23 1.43  13 1.43
  13  0.999  0.165  0.498-  14 1.42   2 1.42  12 1.43
  14  0.054  0.277  0.499-  13 1.42  25 1.42  27 1.43
  15  0.167  0.168  0.498-  16 1.42   4 1.42   2 1.43
  16  0.223  0.280  0.500-  15 1.42  27 1.43  29 1.44
  17  0.335  0.170  0.499-  18 1.42   4 1.44   6 1.44
  18  0.391  0.281  0.503-  17 1.42  31 1.44  29 1.44
  19  0.501  0.168  0.498-  20 1.42   6 1.42   8 1.43
  20  0.557  0.280  0.500-  19 1.42  33 1.43  31 1.44
  21  0.667  0.165  0.498-  22 1.42   8 1.42  10 1.43
  22  0.723  0.277  0.498-  21 1.42  35 1.42  33 1.43
  23  0.833  0.165  0.498-  24 1.42  10 1.43  12 1.43
  24  0.888  0.276  0.498-  23 1.42  25 1.42  35 1.43
  25  0.999  0.332  0.498-  14 1.42  26 1.42  24 1.42
  26  0.054  0.444  0.499-  39 1.42  37 1.42  25 1.42
  27  0.165  0.333  0.500-  28 1.42  16 1.43  14 1.43
  28  0.219  0.444  0.502-  41 1.41  27 1.42  39 1.42
  29  0.335  0.338  0.503-  30 1.41  18 1.44  16 1.44
  30  0.387  0.448  0.510-  41 1.41  29 1.41  71 2.00
  31  0.503  0.338  0.504-  32 1.41  18 1.44  20 1.44
  32  0.562  0.448  0.510-  43 1.41  31 1.41  71 2.00
  33  0.668  0.333  0.500-  34 1.42  20 1.43  22 1.43
  34  0.725  0.444  0.501-  43 1.41  33 1.42  45 1.42
  35  0.833  0.332  0.498-  22 1.42  36 1.42  24 1.43
  36  0.890  0.444  0.498-  45 1.42  37 1.42  35 1.42
  37  0.000  0.500  0.498-  36 1.42  26 1.42  38 1.42
  38  0.056  0.611  0.498-  47 1.42  49 1.42  37 1.42
  39  0.165  0.500  0.500-  26 1.42  28 1.42  40 1.42
  40  0.220  0.611  0.500-  49 1.42  51 1.42  39 1.42
  41  0.329  0.499  0.505-  30 1.41  28 1.41  42 1.44
  42  0.385  0.612  0.505-  53 1.41  51 1.41  41 1.44
  43  0.671  0.499  0.505-  32 1.41  34 1.41  44 1.44
  44  0.727  0.612  0.505-  55 1.41  57 1.41  43 1.44
  45  0.836  0.500  0.499-  36 1.42  34 1.42  46 1.42
  46  0.891  0.611  0.499-  47 1.42  57 1.42  45 1.42
  47  0.001  0.667  0.498-  46 1.42  38 1.42  48 1.42
  48  0.057  0.779  0.498-  59 1.42  47 1.42  61 1.43
  49  0.166  0.667  0.499-  40 1.42  38 1.42  50 1.42
  50  0.222  0.779  0.498-  63 1.42  49 1.42  61 1.42
  51  0.331  0.667  0.502-  42 1.41  52 1.42  40 1.42
  52  0.388  0.778  0.500-  51 1.42  65 1.43  63 1.43
  53  0.494  0.663  0.510-  42 1.41  54 1.41  71 2.00
  54  0.553  0.773  0.503-  53 1.41  67 1.44  65 1.44
  55  0.669  0.663  0.510-  44 1.41  56 1.41  71 2.00
  56  0.721  0.773  0.504-  55 1.41  67 1.44  69 1.44
  57  0.837  0.667  0.501-  44 1.41  58 1.42  46 1.42
  58  0.891  0.778  0.500-  57 1.42  69 1.42  59 1.43
  59  0.002  0.835  0.498-  60 1.42  48 1.42  58 1.43
  60  0.057  0.946  0.498-  59 1.42   1 1.42   3 1.43
  61  0.168  0.835  0.498-  62 1.42  50 1.42  48 1.43
  62  0.223  0.946  0.498-  61 1.42   3 1.43   5 1.43
  63  0.333  0.835  0.499-  64 1.42  50 1.42  52 1.43
  64  0.389  0.946  0.498-  63 1.42   7 1.42   5 1.43
  65  0.499  0.832  0.500-  66 1.42  52 1.43  54 1.44
  66  0.555  0.943  0.498-  65 1.42   9 1.42   7 1.43
  67  0.665  0.830  0.503-  68 1.42  56 1.44  54 1.44
  68  0.721  0.941  0.499-  67 1.42   9 1.44  11 1.44
  69  0.833  0.832  0.500-  70 1.42  58 1.42  56 1.44
  70  0.889  0.943  0.498-  69 1.42  11 1.42   1 1.43
  71  0.528  0.556  0.554-  55 2.00  32 2.00  53 2.00  30 2.00
 

IMPORTANT INFORMATION: All symmetrisations will be switched off!
NOSYMM: (Re-)initialisation of all symmetry stuff for point group C_1.

 
 
 KPOINTS: K-Points                                

Automatic generation of k-mesh.
Space group operators:
 irot       det(A)        alpha          n_x          n_y          n_z        tau_x        tau_y        tau_z
    1     1.000000     0.000000     1.000000     0.000000     0.000000     0.000000     0.000000     0.000000
 
 Subroutine IBZKPT returns following result:
 ===========================================
 
 Found      4 irreducible k-points:
 
 Following reciprocal coordinates:
            Coordinates               Weight
  0.000000  0.000000  0.000000      1.000000
  0.500000  0.000000  0.000000      1.000000
 -0.000000  0.500000  0.000000      1.000000
  0.500000  0.500000  0.000000      1.000000
 
 Following cartesian coordinates:
            Coordinates               Weight
  0.000000  0.000000  0.000000      1.000000
  0.033606  0.019589  0.000000      1.000000
 -0.000000  0.039178  0.000000      1.000000
  0.033606  0.058767  0.000000      1.000000
 


--------------------------------------------------------------------------------------------------------




 Dimension of arrays:
   k-points           NKPTS =      4   k-points in BZ     NKDIM =      4   number of bands    NBANDS=    184
   number of dos      NEDOS =    301   number of ions     NIONS =     71
   non local maximal  LDIM  =      6   non local SUM 2l+1 LMDIM =     18
   total plane-waves  NPLWV = ******
   max r-space proj   IRMAX =   7110   max aug-charges    IRDMAX=  21308
   dimension x,y,z NGX =   120 NGY =  120 NGZ =  120
   dimension x,y,z NGXF=   240 NGYF=  240 NGZF=  240
   support grid    NGXF=   240 NGYF=  240 NGZF=  240
   ions per type =              21   1  48   1
   NGX,Y,Z   is equivalent  to a cutoff of  13.41, 13.50, 13.30 a.u.
   NGXF,Y,Z  is equivalent  to a cutoff of  26.82, 27.01, 26.60 a.u.

 SYSTEM =  unknown system                          
 POSCAR =  POSCAR-clean                            

 Startparameter for this run:
   NWRITE =      2    write-flag & timer
   PREC   = accura    normal or accurate (medium, high low for compatibility)
   ISTART =      0    job   : 0-new  1-cont  2-samecut
   ICHARG =      2    charge: 1-file 2-atom 10-const
   ISPIN  =      2    spin polarized calculation?
   LNONCOLLINEAR =      F non collinear calculations
   LSORBIT =      F    spin-orbit coupling
   INIWAV =      1    electr: 0-lowe 1-rand  2-diag
   LASPH  =      F    aspherical Exc in radial PAW
   METAGGA=      F    non-selfconsistent MetaGGA calc.

 Electronic Relaxation 1
   ENCUT  =  550.0 eV  40.42 Ry    6.36 a.u.  28.45 28.25 28.68*2*pi/ulx,y,z
   ENINI  =  550.0     initial cutoff
   ENAUG  =  644.9 eV  augmentation charge cutoff
   NELM   =     50;   NELMIN=  2; NELMDL= -5     # of ELM steps 
   EDIFF  = 0.1E-04   stopping-criterion for ELM
   LREAL  =      T    real-space projection
   NLSPLINE    = F    spline interpolate recip. space projectors
   LCOMPAT=      F    compatible to vasp.4.4
   GGA_COMPAT  = T    GGA compatible to vasp.4.4-vasp.4.6
   LMAXPAW     = -100 max onsite density
   LMAXMIX     =    2 max onsite mixed and CHGCAR
   VOSKOWN=      0    Vosko Wilk Nusair interpolation
   ROPT   =   -0.00025  -0.00025  -0.00025  -0.00025
 Ionic relaxation
   EDIFFG = -.5E-01   stopping-criterion for IOM
   NSW    =    400    number of steps for IOM
   NBLOCK =      1;   KBLOCK =    400    inner block; outer block 
   IBRION =      2    ionic relax: 0-MD 1-quasi-New 2-CG
   NFREE  =      1    steps in history (QN), initial steepest desc. (CG)
   ISIF   =      3    stress and relaxation
   IWAVPR =     11    prediction:  0-non 1-charg 2-wave 3-comb
   ISYM   =      0    0-nonsym 1-usesym 2-fastsym
   LCORR  =      T    Harris-Foulkes like correction to forces

   POTIM  = 0.3000    time-step for ionic-motion
   TEIN   =    0.0    initial temperature
   TEBEG  =    0.0;   TEEND  =   0.0 temperature during run
   SMASS  =  -3.00    Nose mass-parameter (am)
   estimated Nose-frequenzy (Omega)   =  0.10E-29 period in steps =****** mass=  -0.506E-26a.u.
   SCALEE = 1.0000    scale energy and forces
   NPACO  =    256;   APACO  = 16.0  distance and # of slots for P.C.
   PSTRESS=    0.0 pullay stress

  Mass of Ions in am
   POMASS =  12.01 14.00 12.01 52.00
  Ionic Valenz
   ZVAL   =   4.00  5.00  4.00 12.00
  Atomic Wigner-Seitz radii
   RWIGS  =  -1.00 -1.00 -1.00 -1.00
  virtual crystal weights 
   VCA    =   1.00  1.00  1.00  1.00
   NELECT =     293.0000    total number of electrons
   NUPDOWN=      -1.0000    fix difference up-down

 DOS related values:
   EMIN   =  10.00;   EMAX   =-10.00  energy-range for DOS
   EFERMI =   0.00
   ISMEAR =     0;   SIGMA  =   0.10  broadening in eV -4-tet -1-fermi 0-gaus

 Electronic relaxation 2 (details)
   IALGO  =     68    algorithm
   LDIAG  =      T    sub-space diagonalisation (order eigenvalues)
   LSUBROT=      F    optimize rotation matrix (better conditioning)
   TURBO    =      0    0=normal 1=particle mesh
   IRESTART =      0    0=no restart 2=restart with 2 vectors
   NREBOOT  =      0    no. of reboots
   NMIN     =      0    reboot dimension
   EREF     =   0.00    reference energy to select bands
   IMIX   =      4    mixing-type and parameters
     AMIX     =   0.40;   BMIX     =  1.00
     AMIX_MAG =   1.60;   BMIX_MAG =  1.00
     AMIN     =   0.10
     WC   =   100.;   INIMIX=   1;  MIXPRE=   1;  MAXMIX= -45

 Intra band minimization:
   WEIMIN = 0.0010     energy-eigenvalue tresh-hold
   EBREAK =  0.14E-07  absolut break condition
   DEPER  =   0.30     relativ break condition  

   TIME   =   0.40     timestep for ELM

  volume/ion in A,a.u.               =      40.12       270.71
  Fermi-wavevector in a.u.,A,eV,Ry     =   0.767079  1.449569  8.005805  0.588410
  Thomas-Fermi vector in A             =   1.867557
 
 Write flags
   LWAVE        =      F    write WAVECAR
   LDOWNSAMPLE  =      F    k-point downsampling of WAVECAR
   LCHARG       =      F    write CHGCAR
   LVTOT        =      F    write LOCPOT, total local potential
   LVHAR        =      F    write LOCPOT, Hartree potential only
   LELF         =      F    write electronic localiz. function (ELF)
   LORBIT       =      0    0 simple, 1 ext, 2 COOP (PROOUT), +10 PAW based schemes


 Dipole corrections
   LMONO  =      F    monopole corrections only (constant potential shift)
   LDIPOL =      F    correct potential (dipole corrections)
   IDIPOL =      0    1-x, 2-y, 3-z, 4-all directions 
   EPSILON=  1.0000000 bulk dielectric constant

 Exchange correlation treatment:
   GGA     =    --    GGA type
   LEXCH   =     8    internal setting for exchange type
   VOSKOWN=      0    Vosko Wilk Nusair interpolation
   LHFCALC =     F    Hartree Fock is set to
   LHFONE  =     F    Hartree Fock one center treatment
   AEXX    =    0.0000 exact exchange contribution

 Linear response parameters
   LEPSILON=     F    determine dielectric tensor
   LRPA    =     F    only Hartree local field effects (RPA)
   LNABLA  =     F    use nabla operator in PAW spheres
   LVEL    =     F    velocity operator in full k-point grid
   LINTERFAST=   F  fast interpolation
   KINTER  =     0    interpolate to denser k-point grid
   CSHIFT  =0.1000    complex shift for real part using Kramers Kronig
   OMEGAMAX=  -1.0    maximum frequency
   DEG_THRESHOLD= 0.2000000E-02 threshold for treating states as degnerate
   RTIME   =   -0.100 relaxation time in fs
  (WPLASMAI=    0.000 imaginary part of plasma frequency in eV, 0.658/RTIME)
   DFIELD  = 0.0000000 0.0000000 0.0000000 field for delta impulse in time
 
 Orbital magnetization related:
   ORBITALMAG=     F  switch on orbital magnetization
   LCHIMAG   =     F  perturbation theory with respect to B field
   DQ        =  0.001000  dq finite difference perturbation B field
   LLRAUG    =     F  two centre corrections for induced B field



--------------------------------------------------------------------------------------------------------


 conjugate gradient relaxation of ions
 charge density and potential will be updated during run
 spin polarized calculation
 RMM-DIIS sequential band-by-band and
  variant of blocked Davidson during initial phase
 perform sub-space diagonalisation
    before iterative eigenvector-optimisation
 modified Broyden-mixing scheme, WC =      100.0
 initial mixing is a Kerker type mixing with AMIX =  0.4000 and BMIX =      1.0000
 Hartree-type preconditioning will be used
 using additional bands           37
 real space projection scheme for non local part
 use partial core corrections
 calculate Harris-corrections to forces 
   (improved forces if not selfconsistent)
 use gradient corrections 
 use of overlap-Matrix (Vanderbilt PP)
 Gauss-broadening in eV      SIGMA  =   0.10


--------------------------------------------------------------------------------------------------------


  energy-cutoff  :      550.00
  volume of cell :     2848.21
      direct lattice vectors                 reciprocal lattice vectors
    14.878307727  0.000105424  0.000000000     0.067211667  0.039178051  0.000000000
    -7.439153864 12.762195204  0.000000000    -0.000000555  0.078356102  0.000000000
     0.000000000  0.000000000 15.000000000     0.000000000  0.000000000  0.066666667

  length of vectors
    14.878307728 14.772089786 15.000000000     0.077796709  0.078356102  0.066666667


 
 k-points in units of 2pi/SCALE and weight: K-Points                                
   0.00000000  0.00000000  0.00000000       0.250
   0.03360583  0.01958903  0.00000000       0.250
  -0.00000028  0.03917805  0.00000000       0.250
   0.03360556  0.05876708  0.00000000       0.250
 
 k-points in reciprocal lattice and weights: K-Points                                
   0.00000000  0.00000000  0.00000000       0.250
   0.50000000  0.00000000  0.00000000       0.250
  -0.00000000  0.50000000  0.00000000       0.250
   0.50000000  0.50000000  0.00000000       0.250
 
 position of ions in fractional coordinates (direct lattice) 
   0.00014703  0.99993181  0.49766807
   0.05571316  0.11129367  0.49774774
   0.16803225  0.00210520  0.49753985
   0.22355821  0.11343998  0.49825115
   0.33432830  0.00207694  0.49777234
   0.39014706  0.11341551  0.49841838
   0.50002407  0.99989044  0.49775648
   0.55582710  0.11125266  0.49767590
   0.66571506  0.99774295  0.49825147
   0.72152612  0.10907882  0.49753824
   0.83231512  0.99776674  0.49841003
   0.88783929  0.10910686  0.49776801
   0.99908442  0.16549374  0.49784405
   0.05430809  0.27667161  0.49853746
   0.16734775  0.16806595  0.49834347
   0.22284185  0.27957445  0.49997583
   0.33528932  0.17029644  0.49941211
   0.39084341  0.28141813  0.50254970
   0.50097822  0.16802960  0.49842000
   0.55697129  0.27954076  0.49998817
   0.66664919  0.16545038  0.49752014
   0.72257294  0.27663324  0.49802908
   0.83255361  0.16485921  0.49764969
   0.88821716  0.27620991  0.49780056
   0.99906908  0.33222521  0.49838447
   0.05442247  0.44382388  0.49884723
   0.16531768  0.33288444  0.50001215
   0.21898612  0.44382270  0.50165224
   0.33514858  0.33773328  0.50339031
   0.38694525  0.44827387  0.50958670
   0.50284791  0.33770682  0.50360105
   0.56160602  0.44823797  0.50998391
   0.66778145  0.33285443  0.49963749
   0.72504010  0.44380782  0.50114295
   0.83335701  0.33221195  0.49791518
   0.88957865  0.44380677  0.49825237
   0.00003314  0.49990030  0.49835048
   0.05573614  0.61130743  0.49834565
   0.16452790  0.49985599  0.50032235
   0.22027264  0.61134265  0.50031499
   0.32877881  0.49923631  0.50514604
   0.38513300  0.61194665  0.50514739
   0.67071104  0.49923365  0.50517220
   0.72707059  0.61195035  0.50517224
   0.83551700  0.49986026  0.49948453
   0.89125350  0.61133457  0.49948422
   0.00136430  0.66739252  0.49824937
   0.05673614  0.77898562  0.49790902
   0.16620335  0.66738054  0.49883406
   0.22244721  0.77897560  0.49837060
   0.33076298  0.66736579  0.50164604
   0.38803591  0.77830247  0.50000539
   0.49425975  0.66291375  0.50958718
   0.55300964  0.77344715  0.50338828
   0.66896610  0.66295341  0.50998288
   0.72073432  0.77348097  0.50359479
   0.83682433  0.66738081  0.50114212
   0.89051054  0.77833045  0.49963539
   0.00151950  0.83455528  0.49802741
   0.05677874  0.94573836  0.49751926
   0.16759972  0.83498348  0.49779087
   0.22328727  0.94632847  0.49764984
   0.33324173  0.83452222  0.49853136
   0.38919606  0.94569806  0.49784785
   0.49886656  0.83160652  0.49997424
   0.55488261  0.94311446  0.49834783
   0.66501623  0.82976534  0.50254304
   0.72058356  0.94088512  0.49940688
   0.83301728  0.83164625  0.49998031
   0.88852543  0.94315192  0.49840894
   0.52788678  0.55561308  0.55407295
 
 position of ions in cartesian coordinates  (Angst):
  -7.43645893 12.76132490  7.46502101
   0.00098677  1.42035737  7.46621609
   2.48437460  0.02688469  7.46309769
   2.48227038  1.44776676  7.47376727
   4.95878870  0.02654158  7.46658504
   4.96101252  1.44747206  7.47627575
   0.00117320 12.76084966  7.46634727
   7.44214093  1.41988678  7.46513856
   2.48235028 12.73346045  7.47377203
   9.92363354  1.39216125  7.46307356
   4.96090025 12.73378160  7.47615045
  12.39788345  1.39253665  7.46652020
  13.63355202  2.11216869  7.46766080
  -1.25019027  3.53094287  7.47806186
   1.23958287  2.14490807  7.47515208
   1.23571236  3.56800714  7.49963746
   3.72167632  2.17339173  7.49118168
   3.72157576  3.59155433  7.53824552
   6.20371007  2.14447940  7.47630003
   6.20724356  3.56761241  7.49982262
   8.68780104  2.11158030  7.46280215
   8.69274532  3.53052356  7.47043619
  11.16057575  2.10405319  7.46474541
  11.16040021  3.52513843  7.46700843
  12.39298273  4.24002833  7.47576708
  -2.49195986  5.66417272  7.48270852
  -0.01673121  4.24835367  7.50018218
  -0.04352248  5.66417505  7.52478359
   2.47399392  4.31025334  7.55085470
   2.42231217  5.72099937  7.64380057
   4.96927299  4.30993342  7.55401582
   5.02123589  5.72055973  7.64975858
   7.45930259  4.24802358  7.49456242
   7.48581505  5.66403852  7.51714419
   9.92756627  4.23984160  7.46872767
   9.93387816  5.66404236  7.47378561
  -3.71834223  6.37982525  7.47525727
  -3.71835051  7.80163060  7.47518475
  -1.27060894  6.37927707  7.50483528
  -1.27058799  7.80209747  7.50472492
   1.17777658  6.37138591  7.57719062
   1.17776199  7.80982318  7.57721079
   6.26516932  6.37138797  7.57758296
   6.26518706  7.80990654  7.57758361
   8.71254167  6.37940228  7.49226792
   8.71253189  7.80206507  7.49226324
  -4.94453714  8.51739379  7.47374059
  -4.95085604  9.94157246  7.46863529
  -2.49192199  8.51725823  7.48251084
  -2.48528121  9.94146208  7.47555906
  -0.04344336  8.51708741  7.52469062
  -0.01659412  9.93288892  7.50008080
   2.42223119  8.46028680  7.64380763
   2.47405524  9.87094181  7.55082413
   5.02127100  8.46081135  7.64974323
   4.96926315  9.87139105  7.55392179
   7.48578134  8.51733237  7.51713176
   7.45916989  9.93329897  7.49453080
  -6.18577746 10.65075751  7.47041111
  -6.19072161 12.06970350  7.46278894
  -3.71797037 10.65623981  7.46686302
  -3.71774635 12.07725221  7.46474766
  -1.25006613 10.65037063  7.47797042
  -1.24461459 12.06922431  7.46771775
   1.23584141 10.61317732  7.49961357
   1.23974067 12.03626939  7.47521740
   3.72156413 10.58969736  7.53814562
   3.72167477 12.00783549  7.49110317
   6.20714301 10.61371955  7.49970466
   6.20350242 12.03678263  7.47613410
   3.72077071  7.09089829  8.31109430
 


--------------------------------------------------------------------------------------------------------


 k-point  1 :   0.0000 0.0000 0.0000  plane waves:   83445
 k-point  2 :   0.5000 0.0000 0.0000  plane waves:   83448
 k-point  3 :  -0.0000 0.5000 0.0000  plane waves:   83436
 k-point  4 :   0.5000 0.5000 0.0000  plane waves:   83444

 maximum and minimum number of plane-waves per node :      6984     6935

 maximum number of plane-waves:     83448
 maximum index in each direction: 
   IXMAX=   28   IYMAX=   28   IZMAX=   28
   IXMIN=  -28   IYMIN=  -28   IZMIN=  -28


 real space projection operators:
  total allocation   :      18580.36 KBytes
  max/ min on nodes  :       1558.36       1534.97


 parallel 3D FFT for wavefunctions:
    minimum data exchange during FFTs selected (reduces bandwidth)
 parallel 3D FFT for charge:
    minimum data exchange during FFTs selected (reduces bandwidth)


 total amount of memory used by VASP MPI-rank0   135475. kBytes
=======================================================================

   base      :      30000. kBytes
   nonlr-proj:      10486. kBytes
   fftplans  :      14072. kBytes
   grid      :      39398. kBytes
   one-center:        186. kBytes
   wavefun   :      41333. kBytes
 
     INWAV:  cpu time    0.0000: real time    0.0000
 Broyden mixing: mesh for mixing (old mesh)
   NGX = 57   NGY = 57   NGZ = 57
  (NGX  =240   NGY  =240   NGZ  =240)
  gives a total of 185193 points

 initial charge density was supplied:
 charge density of overlapping atoms calculated
 number of electron     293.0000000 magnetization       1.0000000
 keeping initial charge density in first step


--------------------------------------------------------------------------------------------------------


 Maximum index for non-local projection operator          568
 Maximum index for augmentation-charges          402 (set IRDMAX)


--------------------------------------------------------------------------------------------------------


 First call to EWALD:  gamma=   0.125
 Maximum number of real-space cells 3x 3x 3
 Maximum number of reciprocal cells 3x 3x 3

    FEWALD:  cpu time    0.0040: real time    0.0041


--------------------------------------- Iteration      1(   1)  ---------------------------------------


    POTLOK:  cpu time    0.5249: real time    0.5472
    SETDIJ:  cpu time    0.0162: real time    0.0218
     EDDAV:  cpu time   16.7250: real time   16.8995
       DOS:  cpu time    0.0012: real time    0.0013
    --------------------------------------------
      LOOP:  cpu time   17.2674: real time   17.4699

 eigenvalue-minimisations  :  3248
 total energy-change (2. order) : 0.2743726E+04  (-0.1173102E+05)
 number of electron     293.0000000 magnetization       1.0000000
 augmentation part      293.0000000 magnetization       1.0000000

 Free energy of the ion-electron system (eV)
  ---------------------------------------------------
  alpha Z        PSCENC =       156.95040625
  Ewald energy   TEWEN  =     30375.91613925
  -Hartree energ DENC   =    -39541.94698587
  -exchange      EXHF   =         0.00000000
  -V(xc)+E(xc)   XCENC  =       982.54049737
  PAW double counting   =      9000.30529238    -9089.18527416
  entropy T*S    EENTRO =        -0.11332583
  eigenvalues    EBANDS =     -1206.49885960
  atomic energy  EATOM  =     12065.75791449
  Solvation  Ediel_sol  =         0.00000000
  ---------------------------------------------------
  free energy    TOTEN  =      2743.72580427 eV

  energy without entropy =     2743.83913010  energy(sigma->0) =     2743.78246719


--------------------------------------------------------------------------------------------------------




--------------------------------------- Iteration      1(   2)  ---------------------------------------


     EDDAV:  cpu time   21.6422: real time   21.8979
       DOS:  cpu time    0.0009: real time    0.0009
    --------------------------------------------
      LOOP:  cpu time   21.6431: real time   21.8989

 eigenvalue-minimisations  :  4312
 total energy-change (2. order) :-0.2915306E+04  (-0.2786943E+04)
 number of electron     293.0000000 magnetization       1.0000000
 augmentation part      293.0000000 magnetization       1.0000000

 Free energy of the ion-electron system (eV)
  ---------------------------------------------------
  alpha Z        PSCENC =       156.95040625
  Ewald energy   TEWEN  =     30375.91613925
  -Hartree energ DENC   =    -39541.94698587
  -exchange      EXHF   =         0.00000000
  -V(xc)+E(xc)   XCENC  =       982.54049737
  PAW double counting   =      9000.30529238    -9089.18527416
  entropy T*S    EENTRO =        -0.03287423
  eigenvalues    EBANDS =     -4121.88487447
  atomic energy  EATOM  =     12065.75791449
  Solvation  Ediel_sol  =         0.00000000
  ---------------------------------------------------
  free energy    TOTEN  =      -171.57975900 eV

  energy without entropy =     -171.54688477  energy(sigma->0) =     -171.56332189


--------------------------------------------------------------------------------------------------------




--------------------------------------- Iteration      1(   3)  ---------------------------------------


     EDDAV:  cpu time   18.3940: real time   18.5511
       DOS:  cpu time    0.0009: real time    0.0009
    --------------------------------------------
      LOOP:  cpu time   18.3949: real time   18.5520

 eigenvalue-minimisations  :  3552
 total energy-change (2. order) :-0.5126898E+03  (-0.5096733E+03)
 number of electron     293.0000000 magnetization       1.0000000
 augmentation part      293.0000000 magnetization       1.0000000

 Free energy of the ion-electron system (eV)
  ---------------------------------------------------
  alpha Z        PSCENC =       156.95040625
  Ewald energy   TEWEN  =     30375.91613925
  -Hartree energ DENC   =    -39541.94698587
  -exchange      EXHF   =         0.00000000
  -V(xc)+E(xc)   XCENC  =       982.54049737
  PAW double counting   =      9000.30529238    -9089.18527416
  entropy T*S    EENTRO =        -0.03642111
  eigenvalues    EBANDS =     -4634.57109890
  atomic energy  EATOM  =     12065.75791449
  Solvation  Ediel_sol  =         0.00000000
  ---------------------------------------------------
  free energy    TOTEN  =      -684.26953031 eV

  energy without entropy =     -684.23310920  energy(sigma->0) =     -684.25131975


--------------------------------------------------------------------------------------------------------




--------------------------------------- Iteration      1(   4)  ---------------------------------------


     EDDAV:  cpu time   18.6253: real time   18.8917
       DOS:  cpu time    0.0010: real time    0.0010
    --------------------------------------------
      LOOP:  cpu time   18.6262: real time   18.8927

 eigenvalue-minimisations  :  3560
 total energy-change (2. order) :-0.1949396E+02  (-0.1934166E+02)
 number of electron     293.0000000 magnetization       1.0000000
 augmentation part      293.0000000 magnetization       1.0000000

 Free energy of the ion-electron system (eV)
  ---------------------------------------------------
  alpha Z        PSCENC =       156.95040625
  Ewald energy   TEWEN  =     30375.91613925
  -Hartree energ DENC   =    -39541.94698587
  -exchange      EXHF   =         0.00000000
  -V(xc)+E(xc)   XCENC  =       982.54049737
  PAW double counting   =      9000.30529238    -9089.18527416
  entropy T*S    EENTRO =        -0.03779339
  eigenvalues    EBANDS =     -4654.06368168
  atomic energy  EATOM  =     12065.75791449
  Solvation  Ediel_sol  =         0.00000000
  ---------------------------------------------------
  free energy    TOTEN  =      -703.76348536 eV

  energy without entropy =     -703.72569197  energy(sigma->0) =     -703.74458867


--------------------------------------------------------------------------------------------------------




--------------------------------------- Iteration      1(   5)  ---------------------------------------


     EDDAV:  cpu time   20.4398: real time   20.6665
       DOS:  cpu time    0.0010: real time    0.0010
    CHARGE:  cpu time    0.9953: real time    1.0099
    MIXING:  cpu time    0.0089: real time    0.0120
    --------------------------------------------
      LOOP:  cpu time   21.4449: real time   21.6894

 eigenvalue-minimisations  :  4064
 total energy-change (2. order) :-0.6180017E+00  (-0.6160560E+00)
 number of electron     292.9999997 magnetization       0.7769684
 augmentation part       11.6661248 magnetization       0.7535511

 Broyden mixing:
  rms(total) = 0.46547E+01    rms(broyden)= 0.46544E+01
  rms(prec ) = 0.54197E+01
  weight for this iteration     100.00

 Free energy of the ion-electron system (eV)
  ---------------------------------------------------
  alpha Z        PSCENC =       156.95040625
  Ewald energy   TEWEN  =     30375.91613925
  -Hartree energ DENC   =    -39541.94698587
  -exchange      EXHF   =         0.00000000
  -V(xc)+E(xc)   XCENC  =       982.54049737
  PAW double counting   =      9000.30529238    -9089.18527416
  entropy T*S    EENTRO =        -0.03809612
  eigenvalues    EBANDS =     -4654.68138062
  atomic energy  EATOM  =     12065.75791449
  Solvation  Ediel_sol  =         0.00000000
  ---------------------------------------------------
  free energy    TOTEN  =      -704.38148704 eV

  energy without entropy =     -704.34339092  energy(sigma->0) =     -704.36243898


--------------------------------------------------------------------------------------------------------




--------------------------------------- Iteration      1(   6)  ---------------------------------------


    POTLOK:  cpu time    0.5279: real time    0.5387
    SETDIJ:  cpu time    0.0152: real time    0.0159
    EDDIAG:  cpu time    3.3574: real time    3.3976
  RMM-DIIS:  cpu time   17.7658: real time   17.9295
    ORTHCH:  cpu time    0.2410: real time    0.2428
       DOS:  cpu time    0.0010: real time    0.0010
    CHARGE:  cpu time    1.0407: real time    1.0583
    MIXING:  cpu time    0.0095: real time    0.0104
    --------------------------------------------
      LOOP:  cpu time   22.9584: real time   23.1942

 eigenvalue-minimisations  :  4113
 total energy-change (2. order) :-0.2796592E+02  (-0.5342879E+02)
 number of electron     293.0000006 magnetization       0.7352245
 augmentation part       17.3683314 magnetization       0.7121559

 Broyden mixing:
  rms(total) = 0.83787E+01    rms(broyden)= 0.83786E+01
  rms(prec ) = 0.92637E+01
  weight for this iteration     100.00

 eigenvalues of (default mixing * dielectric matrix)
  average eigenvalue GAMMA=   0.2173
  0.2173

 Free energy of the ion-electron system (eV)
  ---------------------------------------------------
  alpha Z        PSCENC =       156.95040625
  Ewald energy   TEWEN  =     30375.91613925
  -Hartree energ DENC   =    -39834.13586587
  -exchange      EXHF   =         0.00000000
  -V(xc)+E(xc)   XCENC  =       996.31996023
  PAW double counting   =     15150.57396661   -15239.28736069
  entropy T*S    EENTRO =        -0.05266036
  eigenvalues    EBANDS =     -4404.38990474
  atomic energy  EATOM  =     12065.75791449
  Solvation  Ediel_sol  =         0.00000000
  ---------------------------------------------------
  free energy    TOTEN  =      -732.34740483 eV

  energy without entropy =     -732.29474447  energy(sigma->0) =     -732.32107465


--------------------------------------------------------------------------------------------------------




--------------------------------------- Iteration      1(   7)  ---------------------------------------


    POTLOK:  cpu time    0.5519: real time    0.5651
    SETDIJ:  cpu time    0.0145: real time    0.0149
    EDDIAG:  cpu time    3.3105: real time    3.3427
  RMM-DIIS:  cpu time   13.2557: real time   13.3656
    ORTHCH:  cpu time    0.3332: real time    0.3341
       DOS:  cpu time    0.0009: real time    0.0009
    CHARGE:  cpu time    0.9931: real time    1.0039
    MIXING:  cpu time    0.0096: real time    0.0097
    --------------------------------------------
      LOOP:  cpu time   18.4694: real time   18.6368

 eigenvalue-minimisations  :  3029
 total energy-change (2. order) : 0.7028023E+02  (-0.5363405E+01)
 number of electron     293.0000004 magnetization       0.6195423
 augmentation part       15.2308110 magnetization       0.6200682

 Broyden mixing:
  rms(total) = 0.31683E+01    rms(broyden)= 0.31683E+01
  rms(prec ) = 0.38069E+01
  weight for this iteration     100.00

 eigenvalues of (default mixing * dielectric matrix)
  average eigenvalue GAMMA=   0.4680
  0.5082  0.4278

 Free energy of the ion-electron system (eV)
  ---------------------------------------------------
  alpha Z        PSCENC =       156.95040625
  Ewald energy   TEWEN  =     30375.91613925
  -Hartree energ DENC   =    -39956.58386340
  -exchange      EXHF   =         0.00000000
  -V(xc)+E(xc)   XCENC  =      1000.88367800
  PAW double counting   =     16744.03379986   -16839.59986012
  entropy T*S    EENTRO =        -0.00004444
  eigenvalues    EBANDS =     -4209.42534876
  atomic energy  EATOM  =     12065.75791449
  Solvation  Ediel_sol  =         0.00000000
  ---------------------------------------------------
  free energy    TOTEN  =      -662.06717887 eV

  energy without entropy =     -662.06713443  energy(sigma->0) =     -662.06715665


--------------------------------------------------------------------------------------------------------




--------------------------------------- Iteration      1(   8)  ---------------------------------------


    POTLOK:  cpu time    0.5529: real time    0.5581
    SETDIJ:  cpu time    0.0152: real time    0.0154
    EDDIAG:  cpu time    3.2352: real time    3.2629
  RMM-DIIS:  cpu time   13.6824: real time   13.7856
    ORTHCH:  cpu time    0.5909: real time    0.5998
       DOS:  cpu time    0.0012: real time    0.0012
    CHARGE:  cpu time    1.0127: real time    1.0247
    MIXING:  cpu time    0.0117: real time    0.0121
    --------------------------------------------
      LOOP:  cpu time   19.1022: real time   19.2599

 eigenvalue-minimisations  :  3141
 total energy-change (2. order) :-0.1784177E+00  (-0.2140380E+01)
 number of electron     292.9999998 magnetization       0.3608812
 augmentation part       11.2333404 magnetization       0.3124848

 Broyden mixing:
  rms(total) = 0.28247E+01    rms(broyden)= 0.28244E+01
  rms(prec ) = 0.34705E+01
  weight for this iteration     100.00

 eigenvalues of (default mixing * dielectric matrix)
  average eigenvalue GAMMA=   0.8543
  1.8809  0.3410  0.3410

 Free energy of the ion-electron system (eV)
  ---------------------------------------------------
  alpha Z        PSCENC =       156.95040625
  Ewald energy   TEWEN  =     30375.91613925
  -Hartree energ DENC   =    -40137.99043948
  -exchange      EXHF   =         0.00000000
  -V(xc)+E(xc)   XCENC  =      1007.63660982
  PAW double counting   =     19677.47484835   -19777.01470892
  entropy T*S    EENTRO =        -0.03786837
  eigenvalues    EBANDS =     -4030.93849790
  atomic energy  EATOM  =     12065.75791449
  Solvation  Ediel_sol  =         0.00000000
  ---------------------------------------------------
  free energy    TOTEN  =      -662.24559652 eV

  energy without entropy =     -662.20772815  energy(sigma->0) =     -662.22666234


--------------------------------------------------------------------------------------------------------




--------------------------------------- Iteration      1(   9)  ---------------------------------------


    POTLOK:  cpu time    0.5287: real time    0.5330
    SETDIJ:  cpu time    0.0151: real time    0.0153
    EDDIAG:  cpu time    3.2741: real time    3.3073
  RMM-DIIS:  cpu time   13.0846: real time   13.1814
    ORTHCH:  cpu time    0.4194: real time    0.4334
       DOS:  cpu time    0.0010: real time    0.0010
    CHARGE:  cpu time    1.0111: real time    1.0214
    MIXING:  cpu time    0.0116: real time    0.0117
    --------------------------------------------
      LOOP:  cpu time   18.3458: real time   18.5045

 eigenvalue-minimisations  :  2968
 total energy-change (2. order) : 0.1509796E+02  (-0.1986148E+01)
 number of electron     293.0000001 magnetization       0.2769163
 augmentation part       12.2096866 magnetization       0.2876835

 Broyden mixing:
  rms(total) = 0.11376E+01    rms(broyden)= 0.11374E+01
  rms(prec ) = 0.12769E+01
  weight for this iteration     100.00

 eigenvalues of (default mixing * dielectric matrix)
  average eigenvalue GAMMA=   0.9151
  2.2173  0.7398  0.3517  0.3517

 Free energy of the ion-electron system (eV)
  ---------------------------------------------------
  alpha Z        PSCENC =       156.95040625
  Ewald energy   TEWEN  =     30375.91613925
  -Hartree energ DENC   =    -40440.14688963
  -exchange      EXHF   =         0.00000000
  -V(xc)+E(xc)   XCENC  =      1020.36091952
  PAW double counting   =     27782.44726779   -27884.71460837
  entropy T*S    EENTRO =        -0.00729348
  eigenvalues    EBANDS =     -3723.71149384
  atomic energy  EATOM  =     12065.75791449
  Solvation  Ediel_sol  =         0.00000000
  ---------------------------------------------------
  free energy    TOTEN  =      -647.14763803 eV

  energy without entropy =     -647.14034455  energy(sigma->0) =     -647.14399129


--------------------------------------------------------------------------------------------------------




--------------------------------------- Iteration      1(  10)  ---------------------------------------


    POTLOK:  cpu time    0.5362: real time    0.5417
    SETDIJ:  cpu time    0.0151: real time    0.0153
    EDDIAG:  cpu time    3.2554: real time    3.2813
  RMM-DIIS:  cpu time   13.0982: real time   13.2122
    ORTHCH:  cpu time    0.2941: real time    0.3299
       DOS:  cpu time    0.0010: real time    0.0009
    CHARGE:  cpu time    1.0307: real time    1.0461
    MIXING:  cpu time    0.0116: real time    0.0121
    --------------------------------------------
      LOOP:  cpu time   18.2423: real time   18.4396

 eigenvalue-minimisations  :  2994
 total energy-change (2. order) :-0.4228065E+00  (-0.2912099E+00)
 number of electron     293.0000004 magnetization       0.2220258
 augmentation part       13.7583452 magnetization       0.2421399

 Broyden mixing:
  rms(total) = 0.14330E+01    rms(broyden)= 0.14325E+01
  rms(prec ) = 0.17880E+01
  weight for this iteration     100.00

 eigenvalues of (default mixing * dielectric matrix)
  average eigenvalue GAMMA=   0.9178
  2.3395  1.0635  0.3485  0.3485  0.4892

 Free energy of the ion-electron system (eV)
  ---------------------------------------------------
  alpha Z        PSCENC =       156.95040625
  Ewald energy   TEWEN  =     30375.91613925
  -Hartree energ DENC   =    -40484.93341669
  -exchange      EXHF   =         0.00000000
  -V(xc)+E(xc)   XCENC  =      1021.36219521
  PAW double counting   =     29319.28167415   -29420.45694017
  entropy T*S    EENTRO =        -0.00286659
  eigenvalues    EBANDS =     -3681.44555048
  atomic energy  EATOM  =     12065.75791449
  Solvation  Ediel_sol  =         0.00000000
  ---------------------------------------------------
  free energy    TOTEN  =      -647.57044457 eV

  energy without entropy =     -647.56757799  energy(sigma->0) =     -647.56901128


--------------------------------------------------------------------------------------------------------




--------------------------------------- Iteration      1(  11)  ---------------------------------------


    POTLOK:  cpu time    0.5372: real time    0.5423
    SETDIJ:  cpu time    0.0150: real time    0.0151
    EDDIAG:  cpu time    3.2471: real time    3.2745
  RMM-DIIS:  cpu time   13.6511: real time   13.7667
    ORTHCH:  cpu time    0.3555: real time    0.3600
       DOS:  cpu time    0.0010: real time    0.0010
    CHARGE:  cpu time    0.9896: real time    0.9999
    MIXING:  cpu time    0.0121: real time    0.0122
    --------------------------------------------
      LOOP:  cpu time   18.8086: real time   18.9716

 eigenvalue-minimisations  :  3121
 total energy-change (2. order) : 0.9902195E+00  (-0.4260796E-01)
 number of electron     293.0000002 magnetization       0.1499885
 augmentation part       12.4903776 magnetization       0.1328382

 Broyden mixing:
  rms(total) = 0.78187E+00    rms(broyden)= 0.78129E+00
  rms(prec ) = 0.84246E+00
  weight for this iteration     100.00

 eigenvalues of (default mixing * dielectric matrix)
  average eigenvalue GAMMA=   0.9803
  2.0795  2.0795  0.6706  0.3459  0.3459  0.3600

 Free energy of the ion-electron system (eV)
  ---------------------------------------------------
  alpha Z        PSCENC =       156.95040625
  Ewald energy   TEWEN  =     30375.91613925
  -Hartree energ DENC   =    -40518.37980365
  -exchange      EXHF   =         0.00000000
  -V(xc)+E(xc)   XCENC  =      1021.81331000
  PAW double counting   =     29980.58996310   -30081.11664433
  entropy T*S    EENTRO =        -0.02441022
  eigenvalues    EBANDS =     -3648.08709996
  atomic energy  EATOM  =     12065.75791449
  Solvation  Ediel_sol  =         0.00000000
  ---------------------------------------------------
  free energy    TOTEN  =      -646.58022506 eV

  energy without entropy =     -646.55581485  energy(sigma->0) =     -646.56801995


--------------------------------------------------------------------------------------------------------




--------------------------------------- Iteration      1(  12)  ---------------------------------------


    POTLOK:  cpu time    0.5383: real time    0.5438
    SETDIJ:  cpu time    0.0153: real time    0.0155
    EDDIAG:  cpu time    3.2223: real time    3.2469
  RMM-DIIS:  cpu time   12.8580: real time   12.9539
    ORTHCH:  cpu time    0.3448: real time    0.3616
       DOS:  cpu time    0.0009: real time    0.0009
    CHARGE:  cpu time    0.9879: real time    1.0011
    MIXING:  cpu time    0.0125: real time    0.0128
    --------------------------------------------
      LOOP:  cpu time   17.9800: real time   18.1364

 eigenvalue-minimisations  :  2944
 total energy-change (2. order) : 0.1758319E+00  (-0.1704644E-01)
 number of electron     293.0000002 magnetization       0.1695319
 augmentation part       12.8552433 magnetization      -0.1486014

 Broyden mixing:
  rms(total) = 0.58452E+00    rms(broyden)= 0.58429E+00
  rms(prec ) = 0.60082E+00
  weight for this iteration     100.00

 eigenvalues of (default mixing * dielectric matrix)
  average eigenvalue GAMMA=   0.8726
  2.1370  2.1370  0.5859  0.3474  0.3474  0.3683  0.1851

 Free energy of the ion-electron system (eV)
  ---------------------------------------------------
  alpha Z        PSCENC =       156.95040625
  Ewald energy   TEWEN  =     30375.91613925
  -Hartree energ DENC   =    -40545.61917493
  -exchange      EXHF   =         0.00000000
  -V(xc)+E(xc)   XCENC  =      1021.39444175
  PAW double counting   =     30452.88736097   -30551.83530547
  entropy T*S    EENTRO =        -0.06026007
  eigenvalues    EBANDS =     -3621.79591538
  atomic energy  EATOM  =     12065.75791449
  Solvation  Ediel_sol  =         0.00000000
  ---------------------------------------------------
  free energy    TOTEN  =      -646.40439314 eV

  energy without entropy =     -646.34413308  energy(sigma->0) =     -646.37426311


--------------------------------------------------------------------------------------------------------




--------------------------------------- Iteration      1(  13)  ---------------------------------------


    POTLOK:  cpu time    0.5091: real time    0.5131
    SETDIJ:  cpu time    0.0150: real time    0.0151
    EDDIAG:  cpu time    3.2692: real time    3.2989
  RMM-DIIS:  cpu time   13.0494: real time   13.1569
    ORTHCH:  cpu time    0.4558: real time    0.4573
       DOS:  cpu time    0.0010: real time    0.0010
    CHARGE:  cpu time    0.9896: real time    0.9988
    MIXING:  cpu time    0.0128: real time    0.0129
    --------------------------------------------
      LOOP:  cpu time   18.3018: real time   18.4539

 eigenvalue-minimisations  :  2988
 total energy-change (2. order) :-0.9859326E-01  (-0.2656192E-02)
 number of electron     293.0000002 magnetization       0.0941109
 augmentation part       12.9349304 magnetization      -0.3810782

 Broyden mixing:
  rms(total) = 0.71615E+00    rms(broyden)= 0.71607E+00
  rms(prec ) = 0.74216E+00
  weight for this iteration     100.00

 eigenvalues of (default mixing * dielectric matrix)
  average eigenvalue GAMMA=   0.8764
  2.2047  2.2047  0.7050  0.3462  0.3462  0.5704  0.3447  0.2892

 Free energy of the ion-electron system (eV)
  ---------------------------------------------------
  alpha Z        PSCENC =       156.95040625
  Ewald energy   TEWEN  =     30375.91613925
  -Hartree energ DENC   =    -40548.52173619
  -exchange      EXHF   =         0.00000000
  -V(xc)+E(xc)   XCENC  =      1021.42040707
  PAW double counting   =     30461.19288867   -30560.04567223
  entropy T*S    EENTRO =        -0.02943785
  eigenvalues    EBANDS =     -3619.14389587
  atomic energy  EATOM  =     12065.75791449
  Solvation  Ediel_sol  =         0.00000000
  ---------------------------------------------------
  free energy    TOTEN  =      -646.50298640 eV

  energy without entropy =     -646.47354856  energy(sigma->0) =     -646.48826748


--------------------------------------------------------------------------------------------------------




--------------------------------------- Iteration      1(  14)  ---------------------------------------


    POTLOK:  cpu time    0.5034: real time    0.5126
    SETDIJ:  cpu time    0.0156: real time    0.0158
    EDDIAG:  cpu time    3.2429: real time    3.2665
  RMM-DIIS:  cpu time   12.9972: real time   13.1037
    ORTHCH:  cpu time    0.3047: real time    0.3078
       DOS:  cpu time    0.0010: real time    0.0010
    CHARGE:  cpu time    1.0036: real time    1.0121
    MIXING:  cpu time    0.0127: real time    0.0128
    --------------------------------------------
      LOOP:  cpu time   18.0810: real time   18.2321

 eigenvalue-minimisations  :  2981
 total energy-change (2. order) : 0.1355875E+00  (-0.2437783E-02)
 number of electron     293.0000003 magnetization       0.0777218
 augmentation part       13.0209920 magnetization      -0.3275171

 Broyden mixing:
  rms(total) = 0.73892E+00    rms(broyden)= 0.73892E+00
  rms(prec ) = 0.78705E+00
  weight for this iteration     100.00

 eigenvalues of (default mixing * dielectric matrix)
  average eigenvalue GAMMA=   0.8221
  2.2298  2.2298  0.7040  0.3461  0.3461  0.5516  0.3466  0.3226  0.3226

 Free energy of the ion-electron system (eV)
  ---------------------------------------------------
  alpha Z        PSCENC =       156.95040625
  Ewald energy   TEWEN  =     30375.91613925
  -Hartree energ DENC   =    -40553.65279029
  -exchange      EXHF   =         0.00000000
  -V(xc)+E(xc)   XCENC  =      1021.47816948
  PAW double counting   =     30531.13069810   -30629.89154998
  entropy T*S    EENTRO =        -0.04879386
  eigenvalues    EBANDS =     -3614.00759233
  atomic energy  EATOM  =     12065.75791449
  Solvation  Ediel_sol  =         0.00000000
  ---------------------------------------------------
  free energy    TOTEN  =      -646.36739888 eV

  energy without entropy =     -646.31860502  energy(sigma->0) =     -646.34300195


--------------------------------------------------------------------------------------------------------




--------------------------------------- Iteration      1(  15)  ---------------------------------------


    POTLOK:  cpu time    0.5574: real time    0.5618
    SETDIJ:  cpu time    0.0154: real time    0.0154
    EDDIAG:  cpu time    3.2884: real time    3.3152
  RMM-DIIS:  cpu time   14.2128: real time   14.3228
    ORTHCH:  cpu time    0.2905: real time    0.3094
       DOS:  cpu time    0.0009: real time    0.0009
    CHARGE:  cpu time    0.9909: real time    0.9996
    MIXING:  cpu time    0.0136: real time    0.0137
    --------------------------------------------
      LOOP:  cpu time   19.3699: real time   19.5389

 eigenvalue-minimisations  :  3229
 total energy-change (2. order) : 0.1193506E-01  (-0.3993957E-03)
 number of electron     293.0000003 magnetization       0.0516738
 augmentation part       13.0176015 magnetization      -0.2518993

 Broyden mixing:
  rms(total) = 0.65261E+00    rms(broyden)= 0.65259E+00
  rms(prec ) = 0.70554E+00
  weight for this iteration     100.00

 eigenvalues of (default mixing * dielectric matrix)
  average eigenvalue GAMMA=   0.8158
  2.2102  2.2102  0.7293  0.5169  0.5169  0.5531  0.3461  0.3461  0.3457  0.3839

 Free energy of the ion-electron system (eV)
  ---------------------------------------------------
  alpha Z        PSCENC =       156.95040625
  Ewald energy   TEWEN  =     30375.91613925
  -Hartree energ DENC   =    -40554.49114359
  -exchange      EXHF   =         0.00000000
  -V(xc)+E(xc)   XCENC  =      1021.49109710
  PAW double counting   =     30530.37241579   -30629.15190418
  entropy T*S    EENTRO =        -0.06406949
  eigenvalues    EBANDS =     -3613.13631944
  atomic energy  EATOM  =     12065.75791449
  Solvation  Ediel_sol  =         0.00000000
  ---------------------------------------------------
  free energy    TOTEN  =      -646.35546381 eV

  energy without entropy =     -646.29139432  energy(sigma->0) =     -646.32342907


--------------------------------------------------------------------------------------------------------




--------------------------------------- Iteration      1(  16)  ---------------------------------------


    POTLOK:  cpu time    0.5267: real time    0.5311
    SETDIJ:  cpu time    0.0150: real time    0.0152
    EDDIAG:  cpu time    3.2080: real time    3.2419
  RMM-DIIS:  cpu time   12.7277: real time   12.8212
    ORTHCH:  cpu time    0.3936: real time    0.3950
       DOS:  cpu time    0.0009: real time    0.0009
    CHARGE:  cpu time    1.0219: real time    1.0315
    MIXING:  cpu time    0.0140: real time    0.0141
    --------------------------------------------
      LOOP:  cpu time   17.9078: real time   18.0508

 eigenvalue-minimisations  :  2944
 total energy-change (2. order) :-0.2033438E-01  (-0.1431922E-02)
 number of electron     293.0000003 magnetization      -0.0083825
 augmentation part       12.9768554 magnetization      -0.3416557

 Broyden mixing:
  rms(total) = 0.62565E+00    rms(broyden)= 0.62564E+00
  rms(prec ) = 0.66791E+00
  weight for this iteration     100.00

 eigenvalues of (default mixing * dielectric matrix)
  average eigenvalue GAMMA=   0.7811
  2.2103  2.2103  0.4100  0.6481  0.6481  0.7368  0.3460  0.3460  0.5319  0.3473
  0.1570

 Free energy of the ion-electron system (eV)
  ---------------------------------------------------
  alpha Z        PSCENC =       156.95040625
  Ewald energy   TEWEN  =     30375.91613925
  -Hartree energ DENC   =    -40569.04100160
  -exchange      EXHF   =         0.00000000
  -V(xc)+E(xc)   XCENC  =      1021.72255747
  PAW double counting   =     30488.46596288   -30587.27669056
  entropy T*S    EENTRO =        -0.05031247
  eigenvalues    EBANDS =     -3598.82077391
  atomic energy  EATOM  =     12065.75791449
  Solvation  Ediel_sol  =         0.00000000
  ---------------------------------------------------
  free energy    TOTEN  =      -646.37579819 eV

  energy without entropy =     -646.32548572  energy(sigma->0) =     -646.35064196


--------------------------------------------------------------------------------------------------------




--------------------------------------- Iteration      1(  17)  ---------------------------------------


    POTLOK:  cpu time    0.5457: real time    0.5501
    SETDIJ:  cpu time    0.0150: real time    0.0151
    EDDIAG:  cpu time    3.2130: real time    3.2378
  RMM-DIIS:  cpu time   12.9338: real time   13.0327
    ORTHCH:  cpu time    0.2614: real time    0.2644
       DOS:  cpu time    0.0010: real time    0.0010
    CHARGE:  cpu time    0.9887: real time    1.0009
    MIXING:  cpu time    0.0107: real time    0.0127
    --------------------------------------------
      LOOP:  cpu time   17.9694: real time   18.1146

 eigenvalue-minimisations  :  2950
 total energy-change (2. order) :-0.2610894E-01  (-0.7792936E-02)
 number of electron     293.0000002 magnetization      -0.0260426
 augmentation part       12.7528385 magnetization      -0.3693356

 Broyden mixing:
  rms(total) = 0.39780E+00    rms(broyden)= 0.39772E+00
  rms(prec ) = 0.40236E+00
  weight for this iteration     100.00

 eigenvalues of (default mixing * dielectric matrix)
  average eigenvalue GAMMA=   0.8705
  2.2107  2.2107  1.2141  1.2141  0.4404  0.7240  0.5930  0.3453  0.3453  0.3384
  0.4047  0.4047

 Free energy of the ion-electron system (eV)
  ---------------------------------------------------
  alpha Z        PSCENC =       156.95040625
  Ewald energy   TEWEN  =     30375.91613925
  -Hartree energ DENC   =    -40600.64913469
  -exchange      EXHF   =         0.00000000
  -V(xc)+E(xc)   XCENC  =      1022.10852252
  PAW double counting   =     30394.48836759   -30493.18779842
  entropy T*S    EENTRO =        -0.03528740
  eigenvalues    EBANDS =     -3567.75103673
  atomic energy  EATOM  =     12065.75791449
  Solvation  Ediel_sol  =         0.00000000
  ---------------------------------------------------
  free energy    TOTEN  =      -646.40190713 eV

  energy without entropy =     -646.36661974  energy(sigma->0) =     -646.38426344


--------------------------------------------------------------------------------------------------------




--------------------------------------- Iteration      1(  18)  ---------------------------------------


    POTLOK:  cpu time    0.5281: real time    0.5324
    SETDIJ:  cpu time    0.0150: real time    0.0150
    EDDIAG:  cpu time    3.2412: real time    3.2655
  RMM-DIIS:  cpu time   12.9466: real time   13.0471
    ORTHCH:  cpu time    0.4821: real time    0.4835
       DOS:  cpu time    0.0010: real time    0.0010
    CHARGE:  cpu time    1.0262: real time    1.0355
    MIXING:  cpu time    0.0147: real time    0.0147
    --------------------------------------------
      LOOP:  cpu time   18.2548: real time   18.3948

 eigenvalue-minimisations  :  2982
 total energy-change (2. order) :-0.5631924E-01  (-0.6204223E-02)
 number of electron     293.0000002 magnetization      -0.0676889
 augmentation part       12.8470859 magnetization      -0.4894020

 Broyden mixing:
  rms(total) = 0.39786E+00    rms(broyden)= 0.39784E+00
  rms(prec ) = 0.41328E+00
  weight for this iteration     100.00

 eigenvalues of (default mixing * dielectric matrix)
  average eigenvalue GAMMA=   0.9042
  2.2273  2.2273  1.5464  1.5464  0.4451  0.7189  0.3456  0.3456  0.5452  0.5452
  0.5743  0.3647  0.3230

 Free energy of the ion-electron system (eV)
  ---------------------------------------------------
  alpha Z        PSCENC =       156.95040625
  Ewald energy   TEWEN  =     30375.91613925
  -Hartree energ DENC   =    -40621.45977262
  -exchange      EXHF   =         0.00000000
  -V(xc)+E(xc)   XCENC  =      1022.34066854
  PAW double counting   =     30343.53481016   -30442.12010654
  entropy T*S    EENTRO =        -0.02861993
  eigenvalues    EBANDS =     -3547.34966598
  atomic energy  EATOM  =     12065.75791449
  Solvation  Ediel_sol  =         0.00000000
  ---------------------------------------------------
  free energy    TOTEN  =      -646.45822638 eV

  energy without entropy =     -646.42960645  energy(sigma->0) =     -646.44391641


--------------------------------------------------------------------------------------------------------




--------------------------------------- Iteration      1(  19)  ---------------------------------------


    POTLOK:  cpu time    0.4452: real time    0.4502
    SETDIJ:  cpu time    0.0139: real time    0.0150
    EDDIAG:  cpu time    3.2512: real time    3.2751
  RMM-DIIS:  cpu time   13.8611: real time   13.9648
    ORTHCH:  cpu time    0.3911: real time    0.3938
       DOS:  cpu time    0.0010: real time    0.0010
    CHARGE:  cpu time    1.0541: real time    1.0689
    MIXING:  cpu time    0.0135: real time    0.0136
    --------------------------------------------
      LOOP:  cpu time   19.0312: real time   19.1824

 eigenvalue-minimisations  :  3170
 total energy-change (2. order) : 0.3462725E-01  (-0.2241108E-02)
 number of electron     293.0000002 magnetization      -0.0622491
 augmentation part       12.7715524 magnetization      -0.4555809

 Broyden mixing:
  rms(total) = 0.34222E+00    rms(broyden)= 0.34220E+00
  rms(prec ) = 0.34561E+00
  weight for this iteration     100.00

 eigenvalues of (default mixing * dielectric matrix)
  average eigenvalue GAMMA=   0.8671
  2.2401  2.2401  1.5230  1.5230  0.7287  0.3455  0.3455  0.5942  0.5180  0.5180
  0.3754  0.3287  0.4297  0.4297

 Free energy of the ion-electron system (eV)
  ---------------------------------------------------
  alpha Z        PSCENC =       156.95040625
  Ewald energy   TEWEN  =     30375.91613925
  -Hartree energ DENC   =    -40632.58336572
  -exchange      EXHF   =         0.00000000
  -V(xc)+E(xc)   XCENC  =      1022.43458943
  PAW double counting   =     30337.16540169   -30435.67350175
  entropy T*S    EENTRO =        -0.03466220
  eigenvalues    EBANDS =     -3536.35652057
  atomic energy  EATOM  =     12065.75791449
  Solvation  Ediel_sol  =         0.00000000
  ---------------------------------------------------
  free energy    TOTEN  =      -646.42359913 eV

  energy without entropy =     -646.38893693  energy(sigma->0) =     -646.40626803


--------------------------------------------------------------------------------------------------------




--------------------------------------- Iteration      1(  20)  ---------------------------------------


    POTLOK:  cpu time    0.5308: real time    0.5365
    SETDIJ:  cpu time    0.0153: real time    0.0153
    EDDIAG:  cpu time    3.2909: real time    3.3208
  RMM-DIIS:  cpu time   14.0399: real time   14.1403
    ORTHCH:  cpu time    0.3609: real time    0.3635
       DOS:  cpu time    0.0010: real time    0.0010
    CHARGE:  cpu time    0.9894: real time    0.9995
    MIXING:  cpu time    0.0141: real time    0.0157
    --------------------------------------------
      LOOP:  cpu time   19.2423: real time   19.3926

 eigenvalue-minimisations  :  3205
 total energy-change (2. order) :-0.1406522E-01  (-0.3698327E-03)
 number of electron     293.0000002 magnetization      -0.1547608
 augmentation part       12.7748948 magnetization      -0.5480044

 Broyden mixing:
  rms(total) = 0.34400E+00    rms(broyden)= 0.34400E+00
  rms(prec ) = 0.34777E+00
  weight for this iteration     100.00

 eigenvalues of (default mixing * dielectric matrix)
  average eigenvalue GAMMA=   0.8830
  2.4026  2.4026  1.4560  1.4560  0.4464  0.7022  0.7022  0.6853  0.5290  0.5290
  0.3455  0.3455  0.5135  0.3986  0.3310

 Free energy of the ion-electron system (eV)
  ---------------------------------------------------
  alpha Z        PSCENC =       156.95040625
  Ewald energy   TEWEN  =     30375.91613925
  -Hartree energ DENC   =    -40632.26824834
  -exchange      EXHF   =         0.00000000
  -V(xc)+E(xc)   XCENC  =      1022.43017860
  PAW double counting   =     30335.74646361   -30434.25133771
  entropy T*S    EENTRO =        -0.03431451
  eigenvalues    EBANDS =     -3536.68486598
  atomic energy  EATOM  =     12065.75791449
  Solvation  Ediel_sol  =         0.00000000
  ---------------------------------------------------
  free energy    TOTEN  =      -646.43766435 eV

  energy without entropy =     -646.40334984  energy(sigma->0) =     -646.42050710


[...]
  Direction    XX          YY          ZZ          XY          YZ          ZX
  --------------------------------------------------------------------------------------
  Alpha Z   157.46682   157.46682   157.46682
  Ewald   40602.46761 40622.31231-50721.98286    -7.85983     3.18553    -0.41690
  Hartree 40058.82337 40027.41958-39261.56043    -4.71197     2.67185    -0.97707
  E(xc)   -1110.67323 -1110.30956 -1149.86368    -0.01117     0.00141    -0.00105
  Local  -83862.00326-83842.52068 86187.02660    12.06633    -5.62391     1.14594
  n-local  -289.75098  -285.66637  -273.21508     0.10285     0.02401     0.07341
  augment    64.64233    64.23692    67.66735     0.04964    -0.03410     0.03765
  Kinetic  4380.58010  4368.76820  4993.73240     0.41802    -0.22522     0.09203
  Fock        0.00000     0.00000     0.00000     0.00000     0.00000     0.00000
  vdW        -1.42991    -1.61004    -0.03846    -0.00124    -0.00036     0.01304
  -------------------------------------------------------------------------------------
  Total       0.12284     0.09718    -0.76734     0.05262    -0.00080    -0.03293
  in kB       0.06933     0.05485    -0.43307     0.02970    -0.00045    -0.01859
  external pressure =       -0.10 kB  Pullay stress =        0.00 kB


 VOLUME and BASIS-vectors are now :
 -----------------------------------------------------------------------------
  energy-cutoff  :      550.00
  volume of cell :     2838.87
      direct lattice vectors                 reciprocal lattice vectors
    14.840819483  0.001624541  0.000000000     0.067377432  0.039207918  0.000000000
    -7.420409742 12.751714014  0.000000000    -0.000008584  0.078415835  0.000000000
     0.000000000  0.000000000 15.000000000     0.000000000  0.000000000  0.066666667

  length of vectors
    14.840819572 14.753599256 15.000000000     0.077954982  0.078415836  0.066666667


 FORCES acting on ions
    electron-ion (+dipol)            ewald-force                    non-local-force                 convergence-correction
 -----------------------------------------------------------------------------------------------
   0.167E+01 0.254E+00 0.785E+01   -.172E+01 -.308E+00 -.786E+01   0.331E-01 0.635E-01 0.166E-01   0.133E-03 -.361E-05 0.200E-04
   -.252E+01 0.782E+00 0.757E+01   0.268E+01 -.760E+00 -.759E+01   -.174E+00 -.252E-01 0.141E-01   -.504E-05 -.381E-04 0.364E-04
   0.628E+00 0.887E+00 0.749E+01   -.655E+00 -.798E+00 -.752E+01   0.458E-01 -.853E-01 0.306E-01   -.133E-03 -.164E-03 -.272E-04
   -.133E+01 0.174E+01 0.728E+01   0.128E+01 -.168E+01 -.729E+01   0.688E-01 -.665E-01 0.101E-01   -.966E-04 -.630E-04 -.191E-04
   0.201E+01 0.133E+01 0.712E+01   -.211E+01 -.139E+01 -.714E+01   0.956E-01 0.631E-01 0.226E-01   -.601E-04 -.116E-03 -.592E-04
   0.538E+01 0.367E+01 0.711E+01   -.585E+01 -.381E+01 -.711E+01   0.464E+00 0.140E+00 -.587E-03   -.128E-03 -.485E-04 -.636E-04
   0.117E+01 0.243E+01 0.759E+01   -.112E+01 -.312E+01 -.761E+01   -.467E-01 0.702E+00 0.175E-01   0.551E-04 -.227E-03 0.469E-04
   0.626E+01 0.105E+02 0.796E+01   -.739E+01 -.114E+02 -.799E+01   0.112E+01 0.898E+00 0.297E-01   0.467E-04 -.781E-04 0.333E-04
   -.437E+01 0.158E+01 0.713E+01   0.445E+01 -.232E+01 -.713E+01   -.694E-01 0.753E+00 -.214E-02   -.101E-03 -.147E-03 0.343E-04
   -.454E+01 0.953E+01 0.722E+01   0.557E+01 -.106E+02 -.724E+01   -.101E+01 0.108E+01 0.203E-01   -.243E-04 0.456E-04 0.357E-04
   -.320E+00 -.494E+00 0.693E+01   0.379E+00 0.242E+00 -.693E+01   -.620E-01 0.259E+00 -.110E-02   0.114E-03 0.708E-04 -.251E-04
   -.386E+01 0.201E+01 0.713E+01   0.429E+01 -.235E+01 -.716E+01   -.431E+00 0.343E+00 0.267E-01   0.186E-03 0.791E-04 -.126E-04
   -.532E+00 0.470E+01 0.744E+01   0.700E+00 -.475E+01 -.745E+01   -.169E+00 0.514E-01 0.104E-01   0.513E-04 -.212E-04 0.223E-04
   -.470E+00 0.204E+01 0.667E+01   0.735E+00 -.210E+01 -.670E+01   -.257E+00 0.639E-01 0.239E-01   0.572E-04 0.108E-03 0.680E-04
   0.262E+01 0.504E+01 0.804E+01   -.256E+01 -.489E+01 -.805E+01   -.637E-01 -.159E+00 0.126E-01   -.136E-03 0.305E-04 0.203E-04
   -.145E+01 0.722E+01 0.926E+01   0.189E+01 -.702E+01 -.935E+01   -.456E+00 -.201E+00 0.849E-01   -.521E-04 0.289E-03 0.538E-04
   0.233E+01 0.751E+01 0.715E+01   -.251E+01 -.716E+01 -.718E+01   0.178E+00 -.373E+00 0.235E-01   -.609E-05 -.100E-03 -.580E-04
   0.122E+01 0.814E+01 0.675E+01   -.141E+01 -.758E+01 -.643E+01   0.176E+00 -.604E+00 -.323E+00   -.438E-04 0.434E-03 0.727E-04
   0.495E+01 0.806E+01 0.882E+01   -.574E+01 -.833E+01 -.885E+01   0.796E+00 0.258E+00 0.238E-01   -.628E-04 0.202E-04 -.213E-04
   0.124E+02 0.597E+01 0.980E+01   -.142E+02 -.610E+01 -.989E+01   0.189E+01 0.116E+00 0.969E-01   -.764E-04 0.355E-03 0.362E-04
   -.156E+01 0.305E+02 0.761E+01   0.152E+01 -.367E+02 -.764E+01   0.460E-01 0.625E+01 0.314E-01   0.435E-04 0.771E-04 0.570E-04
   -.212E+01 0.402E+01 0.899E+01   0.201E+01 -.393E+01 -.912E+01   0.115E+00 -.813E-01 0.126E+00   0.111E-03 0.220E-03 0.107E-03
   -.682E+01 0.628E+01 0.626E+01   0.755E+01 -.676E+01 -.625E+01   -.725E+00 0.471E+00 -.158E-01   0.131E-03 0.116E-03 -.534E-05
   -.108E+02 0.526E+00 0.645E+01   0.122E+02 -.955E+00 -.647E+01   -.136E+01 0.429E+00 0.203E-01   0.113E-04 0.148E-03 -.610E-05
   -.180E+01 0.354E+01 0.593E+01   0.242E+01 -.325E+01 -.590E+01   -.619E+00 -.284E+00 -.275E-01   0.101E-03 0.119E-03 0.235E-04
   -.559E+00 0.175E+01 0.636E+01   0.861E+00 -.160E+01 -.638E+01   -.298E+00 -.149E+00 0.267E-01   0.275E-03 0.280E-04 0.595E-04
   0.459E+01 0.107E+02 0.599E+01   -.429E+01 -.107E+02 -.598E+01   -.317E+00 0.173E-01 -.137E-01   0.127E-03 0.257E-03 0.138E-03
   0.113E+02 0.618E+01 0.302E+01   -.111E+02 -.611E+01 -.308E+01   -.256E+00 -.892E-01 0.687E-01   0.268E-03 0.269E-03 0.198E-03
   0.158E+01 0.189E+02 0.135E+02   -.141E+01 -.181E+02 -.137E+02   -.174E+00 -.844E+00 0.251E+00   -.921E-04 0.641E-03 0.118E-03
   -.523E+01 0.379E+02 0.346E+02   0.111E+02 -.346E+02 -.341E+02   -.590E+01 -.327E+01 -.526E+00   0.814E-03 0.162E-02 0.761E-03
   0.260E+01 0.181E+02 0.109E+02   -.340E+01 -.168E+02 -.111E+02   0.820E+00 -.128E+01 0.171E+00   -.647E-04 0.724E-03 0.196E-03
   0.983E+01 0.328E+02 0.237E+02   -.161E+02 -.291E+02 -.228E+02   0.630E+01 -.368E+01 -.839E+00   -.842E-03 0.181E-02 0.939E-03
   0.185E+02 -.350E+01 0.632E+01   -.240E+02 0.667E+01 -.612E+01   0.551E+01 -.317E+01 -.195E+00   -.583E-04 0.329E-03 0.690E-04
   -.504E+01 -.290E+01 0.587E+01   0.447E+01 0.442E+01 -.597E+01   0.594E+00 -.151E+01 0.107E+00   -.394E-03 0.396E-03 0.690E-04
   -.252E+02 -.103E+02 0.666E+01   0.306E+02 0.134E+02 -.667E+01   -.535E+01 -.309E+01 0.488E-02   0.226E-04 0.393E-04 0.217E-04
   -.104E+02 -.527E+01 0.778E+01   0.107E+02 0.665E+01 -.783E+01   -.260E+00 -.137E+01 0.432E-01   -.142E-03 -.486E-04 0.239E-04
   -.734E+00 -.283E+01 0.751E+01   0.129E+01 0.318E+01 -.753E+01   -.552E+00 -.349E+00 0.143E-01   0.146E-03 0.366E-04 0.611E-05
   -.149E+01 -.192E+01 0.753E+01   0.157E+01 0.214E+01 -.755E+01   -.878E-01 -.206E+00 0.163E-01   0.632E-04 0.780E-04 -.473E-05
   0.502E+01 0.640E+00 0.315E+01   -.482E+01 -.561E+00 -.309E+01   -.208E+00 -.815E-01 -.567E-01   0.224E-03 0.651E-04 0.151E-03
   0.491E+01 -.164E+01 0.318E+01   -.482E+01 0.169E+01 -.312E+01   -.829E-01 -.496E-01 -.513E-01   0.277E-03 -.101E-03 0.150E-03
   0.280E+02 0.109E+02 0.133E+02   -.274E+02 -.113E+02 -.141E+02   -.613E+00 0.451E+00 0.810E+00   0.681E-03 0.409E-03 0.601E-03
   0.278E+02 -.105E+02 0.129E+02   -.272E+02 0.109E+02 -.137E+02   -.602E+00 -.470E+00 0.822E+00   0.680E-03 -.377E-03 0.621E-03
   -.247E+02 0.631E+01 0.120E+02   0.233E+02 -.640E+01 -.125E+02   0.139E+01 0.855E-01 0.546E+00   -.823E-03 0.571E-03 0.584E-03
   -.247E+02 -.112E+02 0.127E+02   0.238E+02 0.118E+02 -.133E+02   0.914E+00 -.589E+00 0.647E+00   -.732E-03 -.478E-03 0.527E-03
   -.538E+01 -.768E+01 0.605E+01   0.531E+01 0.853E+01 -.602E+01   0.648E-01 -.841E+00 -.243E-01   -.295E-03 0.252E-03 0.208E-04
   -.549E+01 -.517E+01 0.572E+01   0.540E+01 0.565E+01 -.569E+01   0.881E-01 -.490E+00 -.306E-01   -.322E-03 -.253E-04 0.196E-04
   -.356E+01 -.579E+01 0.775E+01   0.359E+01 0.597E+01 -.779E+01   -.296E-01 -.167E+00 0.389E-01   -.192E-03 0.773E-04 -.710E-06
   -.197E+01 -.412E+01 0.682E+01   0.193E+01 0.422E+01 -.680E+01   0.368E-01 -.122E+00 -.192E-01   -.314E-04 0.166E-04 -.217E-04
   0.371E+01 -.480E+01 0.658E+01   -.359E+01 0.488E+01 -.661E+01   -.123E+00 -.816E-01 0.357E-01   0.152E-03 0.737E-04 0.401E-04
   0.135E+01 -.247E+01 0.596E+01   -.131E+01 0.250E+01 -.594E+01   -.239E-01 -.354E-01 -.222E-01   0.341E-04 -.462E-04 -.109E-04
   0.127E+02 -.631E+01 0.299E+01   -.125E+02 0.623E+01 -.306E+01   -.223E+00 0.907E-01 0.789E-01   0.293E-03 -.226E-03 0.206E-03
   0.542E+01 -.912E+01 0.596E+01   -.525E+01 0.912E+01 -.595E+01   -.177E+00 0.114E-01 -.150E-01   0.430E-04 -.284E-03 0.147E-03
   -.543E+01 -.380E+02 0.327E+02   0.113E+02 0.348E+02 -.321E+02   -.589E+01 0.323E+01 -.655E+00   0.811E-03 -.157E-02 0.789E-03
   0.350E+00 -.178E+02 0.136E+02   -.828E-01 0.169E+02 -.139E+02   -.266E+00 0.859E+00 0.257E+00   -.683E-04 -.691E-03 0.159E-03
   0.544E+01 -.367E+02 0.280E+02   -.114E+02 0.334E+02 -.272E+02   0.595E+01 0.336E+01 -.724E+00   -.808E-03 -.174E-02 0.848E-03
   -.101E+01 -.165E+02 0.118E+02   0.801E+00 0.156E+02 -.120E+02   0.218E+00 0.927E+00 0.210E+00   0.365E-04 -.672E-03 0.122E-03
   -.112E+02 -.847E+01 0.561E+01   0.109E+02 0.851E+01 -.571E+01   0.349E+00 -.475E-01 0.994E-01   -.309E-03 -.300E-03 0.349E-04
   -.485E+01 -.108E+02 0.688E+01   0.463E+01 0.109E+02 -.686E+01   0.230E+00 -.141E+00 -.290E-01   -.282E-04 -.239E-03 0.365E-04
   -.150E+01 -.388E+01 0.775E+01   0.145E+01 0.392E+01 -.778E+01   0.489E-01 -.640E-01 0.307E-01   -.120E-04 -.219E-04 0.209E-04
   -.180E+01 -.333E+01 0.791E+01   0.183E+01 0.337E+01 -.792E+01   -.234E-01 -.439E-01 0.134E-01   -.312E-04 -.503E-04 0.849E-05
   0.104E+01 -.221E+01 0.657E+01   -.102E+01 0.222E+01 -.660E+01   -.227E-01 -.139E-01 0.229E-01   -.153E-04 -.809E-04 -.600E-04
   0.104E+01 -.165E+01 0.621E+01   -.111E+01 0.164E+01 -.619E+01   0.802E-01 0.140E-01 -.228E-01   -.799E-04 -.164E-03 -.681E-04
   0.263E+01 -.265E+01 0.681E+01   -.262E+01 0.257E+01 -.683E+01   -.160E-01 0.880E-01 0.244E-01   0.799E-05 -.171E-03 0.532E-04
   0.163E+01 -.167E+01 0.742E+01   -.181E+01 0.152E+01 -.744E+01   0.172E+00 0.150E+00 0.144E-01   0.179E-04 -.220E-03 0.383E-05
   -.107E+01 -.709E+01 0.945E+01   0.149E+01 0.670E+01 -.954E+01   -.429E+00 0.406E+00 0.934E-01   -.319E-04 -.265E-03 0.841E-04
   0.227E+01 -.303E-01 0.793E+01   -.220E+01 -.411E+00 -.794E+01   -.679E-01 0.442E+00 0.739E-02   -.985E-04 -.169E-03 0.546E-04
   -.124E+01 -.888E+01 0.705E+01   0.131E+01 0.821E+01 -.673E+01   -.768E-01 0.697E+00 -.331E+00   -.111E-04 -.494E-03 0.845E-04
   0.102E-01 -.445E+01 0.695E+01   0.143E+00 0.394E+01 -.698E+01   -.155E+00 0.522E+00 0.202E-01   -.137E-04 0.626E-05 -.153E-04
   0.960E+00 -.777E+01 0.933E+01   -.142E+01 0.751E+01 -.941E+01   0.486E+00 0.261E+00 0.820E-01   0.662E-04 -.323E-03 0.177E-05
   -.382E+01 -.374E+01 0.812E+01   0.381E+01 0.352E+01 -.815E+01   0.711E-02 0.228E+00 0.218E-01   0.183E-03 -.103E-04 -.179E-04
   -.386E+01 -.363E+00 -.643E+03   0.476E+01 0.456E+00 0.624E+03   -.965E+00 -.882E-01 0.194E+02   0.389E-03 -.731E-04 -.701E-03
 -----------------------------------------------------------------------------------------------
   0.347E+00 0.455E+00 -.207E+02   0.959E-13 0.366E-14 0.114E-12   -.352E+00 -.446E+00 0.207E+02   0.234E-03 -.374E-04 0.744E-02
 
 
 POSITION                                       TOTAL-FORCE (eV/Angst)
 -----------------------------------------------------------------------------------
     -7.42008     12.74932      7.46497        -0.014477      0.009775      0.001009
      0.00168      1.42125      7.46627        -0.010117     -0.004146      0.001128
      2.47786      0.02393      7.46257         0.019180      0.004569      0.001513
      2.47769      1.44544      7.47435         0.017146     -0.000640     -0.002926
      4.94970      0.02270      7.46414        -0.002692      0.000376     -0.001024
      4.95086      1.44628      7.47469        -0.007201     -0.001181     -0.003738
      7.42947      0.00587      7.46638        -0.006948      0.011960      0.000574
      7.42529      1.43414      7.46504        -0.007691     -0.000597      0.000458
      2.47076     12.73490      7.47517         0.013469      0.013119     -0.000578
      9.89299      1.40871      7.46400         0.011172      0.004309      0.004323
      4.94567     12.72682      7.47554        -0.003273      0.005242     -0.002852
     12.36484      1.39859      7.46456        -0.004202      0.002074      0.000835
     13.59984      2.11652      7.46590         0.000588      0.007334      0.004451
     -1.24887      3.53203      7.47710         0.008961      0.000648      0.001689
      1.23922      2.14534      7.47738         0.000656     -0.009343     -0.002233
      1.23957      3.56898      7.50293        -0.016492     -0.001431     -0.000959
      3.71475      2.17048      7.49055        -0.004372     -0.016478     -0.009514
      3.71940      3.58793      7.53447        -0.009555     -0.032018     -0.001189
      6.18456      2.14405      7.47504        -0.000032     -0.011179     -0.003119
      6.19913      3.56706      7.50058         0.013304     -0.014761      0.008448
      8.66400      2.12732      7.46460         0.005169      0.007624      0.006492
      8.66819      3.53231      7.47324        -0.003906      0.008054      0.002015
     11.13454      2.10651      7.46356         0.008098     -0.004979     -0.004145
     11.12011      3.52462      7.46526         0.004427      0.000074     -0.005452
     12.35519      4.24157      7.47300         0.008313     -0.000822      0.001084
     -2.48421      5.66026      7.47996         0.002198     -0.004206      0.001901
     -0.01221      4.24774      7.50379        -0.019464      0.000703     -0.001776
     -0.03171      5.66282      7.53388        -0.022611     -0.025595      0.007639
      2.47959      4.30960      7.54604         0.008549     -0.015157     -0.010788
      2.44418      5.72416      7.62575         0.000362     -0.010827     -0.023307
      4.95979      4.31418      7.55320        -0.000963     -0.013564      0.006672
      4.98637      5.72791      7.64555         0.009084      0.005644     -0.000972
      7.44838      4.24126      7.49832         0.010840     -0.000180     -0.002376
      7.46567      5.65360      7.52262         0.017575     -0.003796      0.005919
      9.88919      4.23340      7.46921        -0.004409      0.005296      0.001046
      9.89659      5.65248      7.47342        -0.000925      0.001612      0.001648
     -3.71055      6.36578      7.47099        -0.000015     -0.003024     -0.001007
     -3.71028      7.78969      7.47077        -0.006465      0.011161     -0.001196
     -1.26035      6.37419      7.50860        -0.008037     -0.003744      0.007657
     -1.26034      7.79472      7.50849        -0.007287      0.002853      0.006881
      1.19106      6.37030      7.58090         0.008351     -0.010060      0.004809
      1.19082      7.80209      7.58222        -0.004672     -0.000959      0.008934
      6.23961      6.35971      7.58102         0.015461     -0.010547      0.012299
      6.23558      7.79478      7.57913         0.021396      0.022876      0.008932
      8.68530      6.37712      7.49600         0.003223      0.005341      0.002613
      8.68349      7.79350      7.49668         0.002524     -0.009747      0.001553
     -4.93413      8.50634      7.47312         0.005094      0.008984      0.002138
     -4.94015      9.92884      7.46797        -0.006207     -0.017414      0.001320
     -2.48212      8.50585      7.47938        -0.003030     -0.003669      0.001402
     -2.47658      9.93132      7.47250         0.012137     -0.004597     -0.001033
     -0.03061      8.50830      7.53430        -0.019034      0.012741      0.011013
     -0.01045      9.92425      7.50394        -0.008958      0.013842     -0.001369
      2.44300      8.45047      7.63049        -0.002123     -0.001571     -0.024010
      2.47431      9.86478      7.54614         0.013793      0.026954     -0.006082
      4.98056      8.43540      7.63777         0.018880     -0.006069     -0.002068
      4.94692      9.85703      7.55014        -0.006796      0.012241      0.001950
      7.45374      8.50568      7.52359        -0.000462      0.002148      0.001271
      7.43387      9.92176      7.49795         0.003568     -0.001634     -0.004624
     -6.17410     10.63656      7.47138         0.002588     -0.017386      0.002725
     -6.17719     12.05718      7.46276         0.005372     -0.012506      0.006429
     -3.70668     10.64285      7.46430        -0.000229     -0.003762     -0.007915
     -3.70642     12.06442      7.46289         0.007748      0.005803     -0.007887
     -1.24164     10.64067      7.47676        -0.003836      0.008080      0.001043
     -1.23685     12.06173      7.46572        -0.011629     -0.003061      0.002782
      1.23878     10.60437      7.50285        -0.010816      0.012637      0.002206
      1.23826     12.03089      7.47782         0.002169      0.000621     -0.001284
      3.71209     10.58697      7.53350        -0.011429      0.016771     -0.003661
      3.70963     12.00852      7.49102        -0.000924      0.010875     -0.008541
      6.18218     10.59941      7.50170         0.019832      0.001939      0.002947
      6.18227     12.02567      7.47669        -0.005459      0.011181     -0.002897
      3.68920      7.08769      8.32740        -0.044491      0.005191      0.000777
 -----------------------------------------------------------------------------------
    total drift:                               -0.004728      0.009328     -0.034619


--------------------------------------------------------------------------------------------------------



  FREE ENERGIE OF THE ION-ELECTRON SYSTEM (eV)
  ---------------------------------------------------
  free  energy   TOTEN  =      -652.92957009 eV

  energy  without entropy=     -652.87959389  energy(sigma->0) =     -652.90458199
 
 d Force = 0.4825452E-04[ 0.482E-04, 0.484E-04]  d Energy =-0.6891895E-04 0.117E-03
 d Force =-0.5095170E-01[-0.509E-01,-0.510E-01]  d Ewald  =-0.4974169E+00 0.446E+00


--------------------------------------------------------------------------------------------------------


    POTLOK:  cpu time    0.4732: real time    0.4767


--------------------------------------------------------------------------------------------------------




--------------------------------------------------------------------------------------------------------


  
 reached required accuracy - stopping structural energy minimisation
     LOOP+:  cpu time  187.4163: real time  188.9249
    4ORBIT:  cpu time    0.0000: real time    0.0000

 total amount of memory used by VASP MPI-rank0   135475. kBytes
=======================================================================

   base      :      30000. kBytes
   nonlr-proj:      10486. kBytes
   fftplans  :      14072. kBytes
   grid      :      39398. kBytes
   one-center:        186. kBytes
   wavefun   :      41333. kBytes
 
  
  
 General timing and accounting informations for this job:
 ========================================================
  
                  Total CPU time used (sec):     4413.528
                            User time (sec):     4374.618
                          System time (sec):       38.910
                         Elapsed time (sec):     4456.319
  
                   Maximum memory used (kb):      665548.
                   Average memory used (kb):           0.
  
                          Minor page faults:      7245635
                          Major page faults:           34
                 Voluntary context switches:        34783
