 running on   48 total cores
 distrk:  each k-point on   48 cores,    1 groups
 distr:  one band on   12 cores,    4 groups
 using from now: INCAR     
 vasp.5.4.4.18Apr17-6-g9f103f2a35 (build Sep 02 2021 13:24:58) complex          
  
 POSCAR found type information on POSCAR  C  N  C  Cr
 POSCAR found :  4 types and      71 ions
 scaLAPACK will be used
 LDA part: xc-table for Pade appr. of Perdew
 POSCAR, INCAR and KPOINTS ok, starting setup
 FFT: planning ...
 WAVECAR not read
 entering main loop
       N       E                     dE             d eps       ncg     rms          rms(c)
DAV:   1     0.274372580427E+04    0.27437E+04   -0.11731E+05  3248   0.127E+03
DAV:   2    -0.171579759001E+03   -0.29153E+04   -0.27869E+04  4312   0.296E+02
DAV:   3    -0.684269530309E+03   -0.51269E+03   -0.50967E+03  3552   0.129E+02
DAV:   4    -0.703763485363E+03   -0.19494E+02   -0.19342E+02  3560   0.311E+01
DAV:   5    -0.704381487042E+03   -0.61800E+00   -0.61606E+00  4064   0.477E+00    0.465E+01
RMM:   6    -0.732347404830E+03   -0.27966E+02   -0.53429E+02  4113   0.396E+01    0.838E+01
RMM:   7    -0.662067178872E+03    0.70280E+02   -0.53634E+01  3029   0.136E+01    0.317E+01
RMM:   8    -0.662245596523E+03   -0.17842E+00   -0.21404E+01  3141   0.700E+00    0.282E+01
RMM:   9    -0.647147638034E+03    0.15098E+02   -0.19861E+01  2968   0.838E+00    0.114E+01
RMM:  10    -0.647570444573E+03   -0.42281E+00   -0.29121E+00  2994   0.306E+00    0.143E+01
RMM:  11    -0.646580225063E+03    0.99022E+00   -0.42608E-01  3121   0.104E+00    0.782E+00
RMM:  12    -0.646404393145E+03    0.17583E+00   -0.17046E-01  2944   0.966E-01    0.585E+00
RMM:  13    -0.646502986401E+03   -0.98593E-01   -0.26562E-02  2988   0.311E-01    0.716E+00
RMM:  14    -0.646367398876E+03    0.13559E+00   -0.24378E-02  2981   0.364E-01    0.739E+00
RMM:  15    -0.646355463815E+03    0.11935E-01   -0.39940E-03  3229   0.828E-02    0.653E+00
RMM:  16    -0.646375798192E+03   -0.20334E-01   -0.14319E-02  2944   0.223E-01    0.626E+00
RMM:  17    -0.646401907134E+03   -0.26109E-01   -0.77929E-02  2950   0.430E-01    0.398E+00
RMM:  18    -0.646458226379E+03   -0.56319E-01   -0.62042E-02  2982   0.327E-01    0.398E+00
RMM:  19    -0.646423599129E+03    0.34627E-01   -0.22411E-02  3170   0.174E-01    0.342E+00
RMM:  20    -0.646437664351E+03   -0.14065E-01   -0.36983E-03  3205   0.905E-02    0.344E+00
RMM:  21    -0.646371383675E+03    0.66281E-01   -0.27829E-02  2968   0.252E-01    0.298E+00
RMM:  22    -0.646343725361E+03    0.27658E-01   -0.28232E-02  2984   0.258E-01    0.159E+00
RMM:  23    -0.646393887685E+03   -0.50162E-01   -0.66893E-03  2969   0.265E-01    0.309E+00
RMM:  24    -0.646399556316E+03   -0.56686E-02   -0.25987E-03  2950   0.154E-01    0.393E+00
RMM:  25    -0.646389376805E+03    0.10180E-01   -0.30312E-03  2968   0.119E-01    0.449E+00
RMM:  26    -0.646345250730E+03    0.44126E-01   -0.53592E-03  2971   0.140E-01    0.413E+00
RMM:  27    -0.646407184450E+03   -0.61934E-01   -0.12496E-02  2955   0.221E-01    0.439E+00
RMM:  28    -0.646412482927E+03   -0.52985E-02   -0.50069E-02  2972   0.334E-01    0.456E+00
RMM:  29    -0.646439295005E+03   -0.26812E-01   -0.10353E-02  2974   0.192E-01    0.451E+00
RMM:  30    -0.646415902505E+03    0.23393E-01   -0.11397E-02  2970   0.160E-01    0.369E+00
RMM:  31    -0.646413596031E+03    0.23065E-02   -0.13738E-02  3014   0.147E-01    0.257E+00
RMM:  32    -0.646433217153E+03   -0.19621E-01   -0.67120E-03  2982   0.137E-01    0.201E+00
RMM:  33    -0.646443246827E+03   -0.10030E-01   -0.31196E-03  2951   0.717E-02    0.191E+00
RMM:  34    -0.646442939443E+03    0.30738E-03   -0.56442E-04  2383   0.275E-02    0.192E+00
RMM:  35    -0.646482867727E+03   -0.39928E-01   -0.10519E-01  2954   0.581E-01    0.202E+00
RMM:  36    -0.646517117619E+03   -0.34250E-01   -0.42839E-02  2995   0.241E-01    0.262E+00
RMM:  37    -0.646521302834E+03   -0.41852E-02   -0.71937E-03  3596   0.917E-02    0.287E+00
RMM:  38    -0.646518299548E+03    0.30033E-02   -0.18284E-03  2952   0.831E-02    0.291E+00
RMM:  39    -0.646494302952E+03    0.23997E-01   -0.17180E-02  2964   0.222E-01    0.270E+00
RMM:  40    -0.646491872469E+03    0.24305E-02   -0.32584E-03  3057   0.634E-02    0.243E+00
RMM:  41    -0.646482217642E+03    0.96548E-02   -0.27719E-03  2980   0.800E-02    0.209E+00
RMM:  42    -0.646471363769E+03    0.10854E-01   -0.29503E-03  2967   0.722E-02    0.179E+00
RMM:  43    -0.646473703992E+03   -0.23402E-02   -0.98902E-04  2807   0.492E-02    0.168E+00
RMM:  44    -0.646471655848E+03    0.20481E-02   -0.51792E-04  2810   0.294E-02    0.168E+00
RMM:  45    -0.646469714953E+03    0.19409E-02   -0.68522E-04  2817   0.373E-02    0.161E+00
RMM:  46    -0.646463870834E+03    0.58441E-02   -0.34905E-03  2941   0.865E-02    0.138E+00
RMM:  47    -0.646458429893E+03    0.54409E-02   -0.22750E-03  2960   0.601E-02    0.113E+00
RMM:  48    -0.646458093079E+03    0.33681E-03   -0.98526E-04  2964   0.419E-02    0.991E-01
RMM:  49    -0.646457428101E+03    0.66498E-03   -0.37098E-04  2793   0.272E-02    0.914E-01
RMM:  50    -0.646455625395E+03    0.18027E-02   -0.43552E-04  2788   0.288E-02
   1 F= -.65285160E+03 E0= -.65282947E+03  d E =-.652852E+03  mag=    -0.0676
 Constraining cell:  1  0  0  |  1  1  0  |  0  0  0
 curvature:   0.00 expect dE= 0.000E+00 dE for cont linesearch  0.000E+00
 trial: gam= 0.00000 g(F)=  0.114E+00 g(S)=  0.184E-01 ort = 0.000E+00 (trialstep = 0.100E+01)
 search vector abs. value=  0.132E+00
 bond charge predicted
       N       E                     dE             d eps       ncg     rms          rms(c)
DAV:   1    -0.646466597235E+03   -0.91691E-02   -0.89285E+00  3072   0.822E+00    0.127E+00
RMM:   2    -0.646533347478E+03   -0.66750E-01   -0.27537E-01  3053   0.132E+00    0.358E+00
RMM:   3    -0.646512745518E+03    0.20602E-01   -0.22586E-02  3493   0.330E-01    0.272E+00
RMM:   4    -0.646489472907E+03    0.23273E-01   -0.70077E-03  3258   0.170E-01    0.200E+00
RMM:   5    -0.646458535575E+03    0.30937E-01   -0.22726E-02  2959   0.250E-01    0.939E-01
RMM:   6    -0.646477140539E+03   -0.18605E-01   -0.11437E-02  2997   0.211E-01    0.101E+00
RMM:   7    -0.646472803066E+03    0.43375E-02   -0.16012E-02  2992   0.225E-01    0.967E-01
RMM:   8    -0.646468297271E+03    0.45058E-02   -0.50798E-03  3004   0.120E-01    0.525E-01
RMM:   9    -0.646470825505E+03   -0.25282E-02   -0.21142E-03  2989   0.104E-01    0.466E-01
RMM:  10    -0.646472004778E+03   -0.11793E-02   -0.14098E-03  2953   0.649E-02    0.830E-02
RMM:  11    -0.646473933243E+03   -0.19285E-02   -0.53323E-04  2799   0.337E-02    0.186E-01
RMM:  12    -0.646473738388E+03    0.19485E-03   -0.14637E-04  2353   0.308E-02    0.118E-01
RMM:  13    -0.646473807268E+03   -0.68879E-04   -0.44302E-05  1938   0.107E-02    0.403E-02
RMM:  14    -0.646474210156E+03   -0.40289E-03   -0.26389E-05  1860   0.966E-03    0.275E-02
RMM:  15    -0.646474683585E+03   -0.47343E-03   -0.28329E-05  1868   0.654E-03    0.290E-02
RMM:  16    -0.646474833521E+03   -0.14994E-03   -0.11998E-05  1718   0.426E-03    0.463E-02
RMM:  17    -0.646474842256E+03   -0.87349E-05   -0.51977E-06  1772   0.448E-03
   2 F= -.65287726E+03 E0= -.65285368E+03  d E =-.256675E-01  mag=    -0.0339
 Constraining cell:  1  0  0  |  1  1  0  |  0  0  0
 trial-energy change:   -0.025667  1 .order   -0.020371   -0.132005    0.091263
 step:   0.6246(harm=  0.5912)  dis= 0.00998  next Energy=  -652.894113 (dE=-0.425E-01)
 bond charge predicted
       N       E                     dE             d eps       ncg     rms          rms(c)
DAV:   1    -0.646494993297E+03   -0.20160E-01   -0.12601E+00  3104   0.308E+00    0.401E-01
RMM:   2    -0.646506228434E+03   -0.11235E-01   -0.45293E-02  3059   0.501E-01    0.119E+00
RMM:   3    -0.646496626091E+03    0.96023E-02   -0.97509E-03  3137   0.186E-01    0.323E-01
RMM:   4    -0.646495631677E+03    0.99441E-03   -0.21543E-03  3097   0.885E-02    0.187E-01
RMM:   5    -0.646495735807E+03   -0.10413E-03   -0.44478E-04  2964   0.412E-02    0.337E-01
RMM:   6    -0.646495319715E+03    0.41609E-03   -0.24493E-04  2903   0.397E-02    0.250E-01
RMM:   7    -0.646494813880E+03    0.50583E-03   -0.44819E-04  2833   0.340E-02    0.959E-02
RMM:   8    -0.646495275791E+03   -0.46191E-03   -0.11899E-04  2578   0.298E-02    0.134E-01
RMM:   9    -0.646495197297E+03    0.78495E-04   -0.13794E-04  2293   0.232E-02    0.248E-02
RMM:  10    -0.646495217750E+03   -0.20453E-04   -0.21307E-05  1857   0.971E-03    0.350E-02
RMM:  11    -0.646495309469E+03   -0.91720E-04   -0.71731E-06  1790   0.728E-03    0.223E-02
RMM:  12    -0.646495377364E+03   -0.67894E-04   -0.92695E-06  1712   0.445E-03    0.120E-02
RMM:  13    -0.646495387700E+03   -0.10336E-04   -0.17788E-06  1549   0.348E-03    0.200E-02
RMM:  14    -0.646495380823E+03    0.68763E-05   -0.62256E-07  1128   0.220E-03
   3 F= -.65289554E+03 E0= -.65287245E+03  d E =-.439468E-01  mag=    -0.0357
 Constraining cell:  1  0  0  |  1  1  0  |  0  0  0
 curvature:  -0.29 expect dE=-0.161E-01 dE for cont linesearch -0.737E-04
 trial: gam= 0.46001 g(F)=  0.544E-01 g(S)=  0.611E-03 ort =-0.576E-02 (trialstep = 0.925E+00)
 search vector abs. value=  0.776E-01
 bond charge predicted
       N       E                     dE             d eps       ncg     rms          rms(c)
DAV:   1    -0.646496324873E+03   -0.93717E-03   -0.41146E+00  3120   0.619E+00    0.620E-01
RMM:   2    -0.646515158711E+03   -0.18834E-01   -0.16158E-01  3125   0.954E-01    0.116E+00
RMM:   3    -0.646513289695E+03    0.18690E-02   -0.13919E-02  3465   0.242E-01    0.101E+00
RMM:   4    -0.646513509515E+03   -0.21982E-03   -0.15657E-03  3915   0.715E-02    0.115E+00
RMM:   5    -0.646509980644E+03    0.35289E-02   -0.12681E-03  2962   0.728E-02    0.112E+00
RMM:   6    -0.646506880256E+03    0.31004E-02   -0.18800E-03  2976   0.835E-02    0.764E-01
RMM:   7    -0.646507158332E+03   -0.27808E-03   -0.68949E-04  2949   0.481E-02    0.412E-01
RMM:   8    -0.646507899939E+03   -0.74161E-03   -0.20270E-04  2280   0.373E-02    0.395E-01
RMM:   9    -0.646507862733E+03    0.37206E-04   -0.58477E-04  2962   0.401E-02    0.474E-01
RMM:  10    -0.646508123592E+03   -0.26086E-03   -0.10711E-03  2989   0.533E-02    0.810E-01
RMM:  11    -0.646509136604E+03   -0.10130E-02   -0.51514E-04  2952   0.465E-02    0.102E+00
RMM:  12    -0.646509645796E+03   -0.50919E-03   -0.22917E-04  2525   0.318E-02    0.108E+00
RMM:  13    -0.646509743748E+03   -0.97952E-04   -0.22702E-04  2688   0.240E-02    0.106E+00
RMM:  14    -0.646509610439E+03    0.13331E-03   -0.25259E-04  2942   0.252E-02    0.103E+00
RMM:  15    -0.646508578921E+03    0.10315E-02   -0.17267E-04  2578   0.226E-02    0.897E-01
RMM:  16    -0.646508129806E+03    0.44912E-03   -0.10810E-04  2143   0.170E-02    0.726E-01
RMM:  17    -0.646507886163E+03    0.24364E-03   -0.79276E-05  2082   0.179E-02    0.570E-01
RMM:  18    -0.646507725673E+03    0.16049E-03   -0.11021E-04  2412   0.194E-02    0.442E-01
RMM:  19    -0.646507544172E+03    0.18150E-03   -0.11994E-04  2374   0.184E-02    0.290E-01
RMM:  20    -0.646507542546E+03    0.16268E-05   -0.67128E-05  2023   0.157E-02
   4 F= -.65291123E+03 E0= -.65288679E+03  d E =-.156875E-01  mag=    -0.0319
 Constraining cell:  1  0  0  |  1  1  0  |  0  0  0
 trial-energy change:   -0.015688  1 .order   -0.015527   -0.048391    0.017337
 step:   0.6836(harm=  0.6810)  dis= 0.00901  next Energy=  -652.913490 (dE=-0.179E-01)
 bond charge predicted
       N       E                     dE             d eps       ncg     rms          rms(c)
DAV:   1    -0.646509960506E+03   -0.24163E-02   -0.28032E-01  3224   0.161E+00    0.187E-01
RMM:   2    -0.646511497757E+03   -0.15373E-02   -0.11064E-02  3117   0.249E-01    0.361E-01
RMM:   3    -0.646511563196E+03   -0.65438E-04   -0.75941E-04  3609   0.574E-02    0.439E-01
RMM:   4    -0.646510947405E+03    0.61579E-03   -0.59859E-04  2899   0.462E-02    0.356E-01
RMM:   5    -0.646510596001E+03    0.35140E-03   -0.23887E-04  2764   0.290E-02    0.149E-01
RMM:   6    -0.646510676376E+03   -0.80375E-04   -0.14898E-04  2773   0.261E-02    0.109E-01
RMM:   7    -0.646510737017E+03   -0.60641E-04   -0.99447E-05  2237   0.243E-02    0.313E-02
RMM:   8    -0.646510735603E+03    0.14143E-05   -0.40498E-05  1932   0.132E-02
   5 F= -.65291357E+03 E0= -.65288941E+03  d E =-.180241E-01  mag=    -0.0361
 Constraining cell:  1  0  0  |  1  1  0  |  0  0  0
 curvature:  -0.50 expect dE=-0.927E-02 dE for cont linesearch -0.395E-06
 trial: gam= 0.23319 g(F)=  0.156E-01 g(S)=  0.281E-02 ort = 0.246E-03 (trialstep = 0.877E+00)
 search vector abs. value=  0.227E-01
 bond charge predicted
       N       E                     dE             d eps       ncg     rms          rms(c)
DAV:   1    -0.646514693581E+03   -0.39566E-02   -0.12455E+00  3352   0.377E+00    0.571E-01
RMM:   2    -0.646564233399E+03   -0.49540E-01   -0.12815E-01  3042   0.641E-01    0.252E+00
RMM:   3    -0.646521825008E+03    0.42408E-01   -0.26911E-02  3196   0.271E-01    0.524E-01
RMM:   4    -0.646521907815E+03   -0.82807E-04   -0.24151E-03  3407   0.800E-02    0.744E-01
RMM:   5    -0.646519413957E+03    0.24939E-02   -0.86574E-04  2932   0.656E-02    0.446E-01
RMM:   6    -0.646519362893E+03    0.51064E-04   -0.51984E-04  2917   0.385E-02    0.178E-01
RMM:   7    -0.646519867255E+03   -0.50436E-03   -0.23986E-04  2864   0.421E-02    0.134E-01
RMM:   8    -0.646519444589E+03    0.42267E-03   -0.45767E-04  2959   0.423E-02    0.148E-01
RMM:   9    -0.646519663826E+03   -0.21924E-03   -0.87863E-05  2111   0.228E-02    0.128E-01
RMM:  10    -0.646519783403E+03   -0.11958E-03   -0.41382E-05  1954   0.113E-02    0.253E-02
RMM:  11    -0.646519853107E+03   -0.69704E-04   -0.14373E-05  1806   0.806E-03    0.428E-02
RMM:  12    -0.646519856954E+03   -0.38468E-05   -0.46353E-06  1745   0.675E-03
   6 F= -.65292162E+03 E0= -.65289715E+03  d E =-.805653E-02  mag=    -0.0347
 Constraining cell:  1  0  0  |  1  1  0  |  0  0  0
 trial-energy change:   -0.008057  1 .order   -0.007996   -0.016143    0.000150
 step:   0.8687(harm=  0.8686)  dis= 0.00634  next Energy=  -652.921624 (dE=-0.806E-02)
 bond charge predicted
       N       E                     dE             d eps       ncg     rms          rms(c)
DAV:   1    -0.646519824255E+03    0.28852E-04   -0.10974E-04  3224   0.344E-02    0.286E-02
RMM:   2    -0.646519880500E+03   -0.56245E-04   -0.27603E-05  1844   0.100E-02    0.850E-02
RMM:   3    -0.646519890780E+03   -0.10280E-04   -0.18587E-05  1810   0.804E-03    0.107E-01
RMM:   4    -0.646519765067E+03    0.12571E-03   -0.33185E-05  1856   0.978E-03    0.137E-02
RMM:   5    -0.646519776000E+03   -0.10933E-04   -0.59984E-06  1658   0.518E-03    0.298E-02
RMM:   6    -0.646519814612E+03   -0.38612E-04   -0.29255E-06  1686   0.492E-03    0.227E-02
RMM:   7    -0.646519848241E+03   -0.33629E-04   -0.33715E-06  1356   0.296E-03    0.657E-03
RMM:   8    -0.646519858954E+03   -0.10714E-04   -0.93390E-07  1106   0.227E-03    0.193E-02
RMM:   9    -0.646519857627E+03    0.13269E-05   -0.47435E-07  1117   0.216E-03
   7 F= -.65292163E+03 E0= -.65289714E+03  d E =-.806763E-02  mag=    -0.0369
 Constraining cell:  1  0  0  |  1  1  0  |  0  0  0
 curvature:  -0.53 expect dE=-0.396E-02 dE for cont linesearch -0.797E-07
 trial: gam= 0.41650 g(F)=  0.708E-02 g(S)=  0.328E-03 ort = 0.582E-04 (trialstep = 0.875E+00)
 search vector abs. value=  0.114E-01
 bond charge predicted
       N       E                     dE             d eps       ncg     rms          rms(c)
DAV:   1    -0.646519704632E+03    0.15432E-03   -0.63984E-01  3344   0.268E+00    0.259E-01
RMM:   2    -0.646526171503E+03   -0.64669E-02   -0.45432E-02  3004   0.401E-01    0.700E-01
RMM:   3    -0.646523353326E+03    0.28182E-02   -0.45450E-03  3427   0.120E-01    0.376E-01
RMM:   4    -0.646523545148E+03   -0.19182E-03   -0.39244E-04  3018   0.357E-02    0.510E-01
RMM:   5    -0.646522368149E+03    0.11770E-02   -0.35333E-04  2782   0.451E-02    0.265E-01
RMM:   6    -0.646522424383E+03   -0.56234E-04   -0.22543E-04  2632   0.254E-02    0.107E-01
RMM:   7    -0.646522698823E+03   -0.27444E-03   -0.13453E-04  2794   0.310E-02    0.124E-01
RMM:   8    -0.646522576413E+03    0.12241E-03   -0.12992E-04  2572   0.233E-02    0.236E-02
RMM:   9    -0.646522634935E+03   -0.58523E-04   -0.14325E-05  1835   0.951E-03    0.154E-02
RMM:  10    -0.646522685123E+03   -0.50188E-04   -0.41872E-06  1767   0.527E-03    0.454E-03
RMM:  11    -0.646522712792E+03   -0.27669E-04   -0.18841E-06  1321   0.267E-03    0.102E-02
RMM:  12    -0.646522719390E+03   -0.65982E-05   -0.77778E-07  1156   0.218E-03
   8 F= -.65292474E+03 E0= -.65290004E+03  d E =-.310151E-02  mag=    -0.0368
 Constraining cell:  1  0  0  |  1  1  0  |  0  0  0
 trial-energy change:   -0.003102  1 .order   -0.003104   -0.006507    0.000300
 step:   0.8365(harm=  0.8365)  dis= 0.00403  next Energy=  -652.924745 (dE=-0.311E-02)
 bond charge predicted
       N       E                     dE             d eps       ncg     rms          rms(c)
DAV:   1    -0.646522731392E+03   -0.18600E-04   -0.12350E-03  3384   0.118E-01    0.114E-02
RMM:   2    -0.646522751351E+03   -0.19959E-04   -0.81998E-05  1953   0.179E-02    0.362E-02
RMM:   3    -0.646522744965E+03    0.63863E-05   -0.98736E-06  1738   0.739E-03
   9 F= -.65292475E+03 E0= -.65290007E+03  d E =-.311756E-02  mag=    -0.0374
 Constraining cell:  1  0  0  |  1  1  0  |  0  0  0
 curvature:  -0.64 expect dE=-0.267E-02 dE for cont linesearch -0.103E-06
 trial: gam= 0.56201 g(F)=  0.375E-02 g(S)=  0.413E-03 ort = 0.429E-04 (trialstep = 0.867E+00)
 search vector abs. value=  0.781E-02
 bond charge predicted
       N       E                     dE             d eps       ncg     rms          rms(c)
DAV:   1    -0.646522353306E+03    0.39805E-03   -0.38805E-01  3232   0.202E+00    0.206E-01
RMM:   2    -0.646525581317E+03   -0.32280E-02   -0.19788E-02  3060   0.283E-01    0.611E-01
RMM:   3    -0.646524562750E+03    0.10186E-02   -0.16918E-03  3423   0.774E-02    0.505E-01
RMM:   4    -0.646523882871E+03    0.67988E-03   -0.31004E-04  2650   0.355E-02    0.401E-01
RMM:   5    -0.646523152491E+03    0.73038E-03   -0.40944E-04  2825   0.337E-02    0.118E-01
RMM:   6    -0.646523679734E+03   -0.52724E-03   -0.16361E-04  2773   0.335E-02    0.146E-01
RMM:   7    -0.646523467033E+03    0.21270E-03   -0.29131E-04  2837   0.344E-02    0.641E-02
RMM:   8    -0.646523562889E+03   -0.95856E-04   -0.39095E-05  1955   0.144E-02    0.117E-01
RMM:   9    -0.646523660091E+03   -0.97202E-04   -0.30867E-05  1917   0.123E-02    0.469E-02
RMM:  10    -0.646523726123E+03   -0.66032E-04   -0.13525E-05  1804   0.593E-03    0.227E-02
RMM:  11    -0.646523744764E+03   -0.18640E-04   -0.38671E-06  1732   0.596E-03    0.396E-02
RMM:  12    -0.646523731932E+03    0.12831E-04   -0.13294E-06  1545   0.337E-03    0.299E-02
RMM:  13    -0.646523720828E+03    0.11104E-04   -0.10540E-06   954   0.210E-03    0.948E-03
RMM:  14    -0.646523728742E+03   -0.79141E-05   -0.68651E-07   931   0.189E-03
  10 F= -.65292660E+03 E0= -.65290174E+03  d E =-.184417E-02  mag=    -0.0365
 Constraining cell:  1  0  0  |  1  1  0  |  0  0  0
 trial-energy change:   -0.001844  1 .order   -0.001862   -0.003634   -0.000090
 step:   0.8894(harm=  0.8894)  dis= 0.00331  next Energy=  -652.926616 (dE=-0.186E-02)
 bond charge predicted
       N       E                     dE             d eps       ncg     rms          rms(c)
DAV:   1    -0.646523721632E+03   -0.80415E-06   -0.25327E-04  3280   0.516E-02    0.873E-03
RMM:   2    -0.646523725866E+03   -0.42339E-05   -0.12661E-05  1750   0.753E-03
  11 F= -.65292661E+03 E0= -.65290170E+03  d E =-.186256E-02  mag=    -0.0367
 Constraining cell:  1  0  0  |  1  1  0  |  0  0  0
 curvature:  -0.83 expect dE=-0.201E-02 dE for cont linesearch -0.113E-06
 trial: gam= 0.58614 g(F)=  0.212E-02 g(S)=  0.306E-03 ort =-0.326E-04 (trialstep = 0.872E+00)
 search vector abs. value=  0.507E-02
 bond charge predicted
       N       E                     dE             d eps       ncg     rms          rms(c)
DAV:   1    -0.646524171349E+03   -0.44972E-03   -0.26779E-01  3272   0.163E+00    0.176E-01
RMM:   2    -0.646527151687E+03   -0.29803E-02   -0.12966E-02  2967   0.236E-01    0.611E-01
RMM:   3    -0.646525404270E+03    0.17474E-02   -0.16142E-03  3457   0.750E-02    0.423E-01
RMM:   4    -0.646524851945E+03    0.55233E-03   -0.26044E-04  2630   0.351E-02    0.341E-01
RMM:   5    -0.646524301083E+03    0.55086E-03   -0.25195E-04  2455   0.246E-02    0.946E-02
RMM:   6    -0.646524656137E+03   -0.35505E-03   -0.13056E-04  2690   0.272E-02    0.123E-01
RMM:   7    -0.646524561880E+03    0.94256E-04   -0.27618E-04  2865   0.326E-02    0.646E-02
RMM:   8    -0.646524652210E+03   -0.90330E-04   -0.29387E-05  1912   0.133E-02    0.825E-02
RMM:   9    -0.646524727296E+03   -0.75086E-04   -0.17926E-05  1857   0.942E-03    0.306E-02
RMM:  10    -0.646524770432E+03   -0.43136E-04   -0.81937E-06  1769   0.490E-03    0.220E-02
RMM:  11    -0.646524778523E+03   -0.80902E-05   -0.23303E-06  1701   0.478E-03
  12 F= -.65292766E+03 E0= -.65290269E+03  d E =-.104286E-02  mag=    -0.0343
 Constraining cell:  1  0  0  |  1  1  0  |  0  0  0
 trial-energy change:   -0.001043  1 .order   -0.001040   -0.002099    0.000018
 step:   0.8643(harm=  0.8643)  dis= 0.00211  next Energy=  -652.927655 (dE=-0.104E-02)
 bond charge predicted
       N       E                     dE             d eps       ncg     rms          rms(c)
DAV:   1    -0.646524761840E+03    0.85923E-05   -0.23884E-05  2264   0.146E-02    0.173E-02
RMM:   2    -0.646524783840E+03   -0.22000E-04   -0.59123E-06  1730   0.593E-03    0.504E-02
RMM:   3    -0.646524747844E+03    0.35996E-04   -0.78146E-06  1740   0.688E-03    0.238E-02
RMM:   4    -0.646524750189E+03   -0.23447E-05   -0.26331E-06  1128   0.329E-03
  13 F= -.65292763E+03 E0= -.65290266E+03  d E =-.101470E-02  mag=    -0.0353
 Constraining cell:  1  0  0  |  1  1  0  |  0  0  0
 curvature:  -0.91 expect dE=-0.115E-02 dE for cont linesearch -0.168E-06
 trial: gam= 0.51113 g(F)=  0.125E-02 g(S)=  0.132E-04 ort = 0.306E-04 (trialstep = 0.870E+00)
 search vector abs. value=  0.262E-02
 bond charge predicted
       N       E                     dE             d eps       ncg     rms          rms(c)
DAV:   1    -0.646525141099E+03   -0.39325E-03   -0.14256E-01  3392   0.126E+00    0.117E-01
RMM:   2    -0.646526399143E+03   -0.12580E-02   -0.80005E-03  2986   0.174E-01    0.335E-01
RMM:   3    -0.646525854485E+03    0.54466E-03   -0.84721E-04  3392   0.521E-02    0.247E-01
RMM:   4    -0.646525808104E+03    0.46380E-04   -0.88869E-05  2182   0.181E-02    0.265E-01
RMM:   5    -0.646525777977E+03    0.30127E-04   -0.30406E-05  1932   0.103E-02    0.300E-01
RMM:   6    -0.646525767151E+03    0.10826E-04   -0.44882E-06  1771   0.639E-03    0.313E-01
RMM:   7    -0.646525791441E+03   -0.24290E-04   -0.30660E-04  2790   0.267E-02    0.502E-01
RMM:   8    -0.646526189796E+03   -0.39835E-03   -0.11455E-04  2177   0.178E-02    0.698E-01
RMM:   9    -0.646525357883E+03    0.83191E-03   -0.12641E-04  2278   0.271E-02    0.606E-01
RMM:  10    -0.646524558052E+03    0.79983E-03   -0.76060E-04  2847   0.405E-02    0.163E-01
RMM:  11    -0.646525463931E+03   -0.90588E-03   -0.13124E-04  2106   0.303E-02    0.813E-02
RMM:  12    -0.646525593826E+03   -0.12989E-03   -0.56987E-05  1964   0.232E-02    0.123E-01
RMM:  13    -0.646525674431E+03   -0.80606E-04   -0.16924E-05  1819   0.943E-03    0.144E-01
RMM:  14    -0.646525594161E+03    0.80270E-04   -0.17013E-05  1865   0.870E-03    0.991E-02
RMM:  15    -0.646525618938E+03   -0.24777E-04   -0.52235E-06  1670   0.433E-03    0.565E-02
RMM:  16    -0.646525659007E+03   -0.40070E-04   -0.25545E-06  1629   0.348E-03    0.326E-02
RMM:  17    -0.646525679783E+03   -0.20776E-04   -0.20137E-06  1424   0.275E-03    0.116E-02
RMM:  18    -0.646525689738E+03   -0.99551E-05   -0.70776E-07  1346   0.249E-03
  14 F= -.65292833E+03 E0= -.65290330E+03  d E =-.696542E-03  mag=    -0.0341
 Constraining cell:  1  0  0  |  1  1  0  |  0  0  0
 trial-energy change:   -0.000697  1 .order   -0.000676   -0.001115   -0.000236
 step:   1.1044(harm=  1.1044)  dis= 0.00237  next Energy=  -652.928337 (dE=-0.708E-03)
 bond charge predicted
       N       E                     dE             d eps       ncg     rms          rms(c)
DAV:   1    -0.646525755241E+03   -0.75458E-04   -0.10320E-02  3416   0.339E-01    0.292E-02
RMM:   2    -0.646525844554E+03   -0.89313E-04   -0.57695E-04  2984   0.468E-02    0.874E-02
RMM:   3    -0.646525799907E+03    0.44648E-04   -0.63484E-05  1984   0.144E-02    0.291E-02
RMM:   4    -0.646525795845E+03    0.40618E-05   -0.67542E-06  1743   0.673E-03
  15 F= -.65292836E+03 E0= -.65290332E+03  d E =-.735181E-03  mag=    -0.0344
 Constraining cell:  1  0  0  |  1  1  0  |  0  0  0
 curvature:  -1.13 expect dE=-0.128E-02 dE for cont linesearch -0.160E-06
 trial: gam= 0.90542 g(F)=  0.107E-02 g(S)=  0.578E-04 ort = 0.192E-04 (trialstep = 0.726E+00)
 search vector abs. value=  0.331E-02
 bond charge predicted
       N       E                     dE             d eps       ncg     rms          rms(c)
DAV:   1    -0.646525600863E+03    0.19904E-03   -0.13631E-01  3472   0.130E+00    0.110E-01
RMM:   2    -0.646526878767E+03   -0.12779E-02   -0.10375E-02  3002   0.178E-01    0.269E-01
RMM:   3    -0.646526464302E+03    0.41446E-03   -0.83059E-04  3343   0.524E-02    0.154E-01
RMM:   4    -0.646526498148E+03   -0.33846E-04   -0.69831E-05  2071   0.154E-02    0.227E-01
RMM:   5    -0.646526305545E+03    0.19260E-03   -0.63424E-05  2014   0.205E-02    0.132E-01
RMM:   6    -0.646526255837E+03    0.49708E-04   -0.49819E-05  1947   0.118E-02    0.450E-02
RMM:   7    -0.646526350993E+03   -0.95156E-04   -0.26576E-05  1890   0.145E-02    0.676E-02
RMM:   8    -0.646526326377E+03    0.24616E-04   -0.34651E-05  1935   0.119E-02    0.157E-02
RMM:   9    -0.646526351928E+03   -0.25551E-04   -0.56126E-06  1762   0.621E-03    0.143E-02
RMM:  10    -0.646526371088E+03   -0.19160E-04   -0.12146E-06  1664   0.315E-03    0.641E-03
RMM:  11    -0.646526383448E+03   -0.12360E-04   -0.96098E-07   894   0.190E-03    0.909E-03
RMM:  12    -0.646526385670E+03   -0.22223E-05   -0.31451E-07   820   0.179E-03
  16 F= -.65292894E+03 E0= -.65290393E+03  d E =-.579776E-03  mag=    -0.0331
 Constraining cell:  1  0  0  |  1  1  0  |  0  0  0
 trial-energy change:   -0.000580  1 .order   -0.000576   -0.000832   -0.000321
 step:   1.1812(harm=  1.1812)  dis= 0.00211  next Energy=  -652.929042 (dE=-0.677E-03)
 bond charge predicted
       N       E                     dE             d eps       ncg     rms          rms(c)
DAV:   1    -0.646526189749E+03    0.19370E-03   -0.53706E-02  3504   0.817E-01    0.672E-02
RMM:   2    -0.646526681672E+03   -0.49192E-03   -0.40620E-03  3003   0.111E-01    0.153E-01
RMM:   3    -0.646526533829E+03    0.14784E-03   -0.34754E-04  2752   0.336E-02    0.835E-02
RMM:   4    -0.646526501430E+03    0.32398E-04   -0.32775E-05  1916   0.125E-02    0.635E-02
RMM:   5    -0.646526501769E+03   -0.33879E-06   -0.49063E-06  1763   0.642E-03
  17 F= -.65292905E+03 E0= -.65290400E+03  d E =-.684610E-03  mag=    -0.0356
 Constraining cell:  1  0  0  |  1  1  0  |  0  0  0
 curvature:  -1.71 expect dE=-0.196E-02 dE for cont linesearch -0.157E-05
 trial: gam= 1.01454 g(F)=  0.114E-02 g(S)=  0.104E-04 ort = 0.552E-04 (trialstep = 0.579E+00)
 search vector abs. value=  0.467E-02
 bond charge predicted
       N       E                     dE             d eps       ncg     rms          rms(c)
DAV:   1    -0.646526085396E+03    0.41603E-03   -0.13184E-01  3552   0.131E+00    0.161E-01
RMM:   2    -0.646527993342E+03   -0.19079E-02   -0.11956E-02  2998   0.183E-01    0.514E-01
RMM:   3    -0.646528151456E+03   -0.15811E-03   -0.71664E-04  3354   0.534E-02    0.651E-01
RMM:   4    -0.646526910670E+03    0.12408E-02   -0.43837E-04  2579   0.384E-02    0.461E-01
RMM:   5    -0.646527303596E+03   -0.39293E-03   -0.13106E-04  2221   0.217E-02    0.571E-01
RMM:   6    -0.646527617386E+03   -0.31379E-03   -0.25668E-04  2709   0.236E-02    0.759E-01
RMM:   7    -0.646527170955E+03    0.44643E-03   -0.48448E-05  1953   0.204E-02    0.757E-01
RMM:   8    -0.646528285686E+03   -0.11147E-02   -0.16152E-04  2307   0.206E-02    0.925E-01
RMM:   9    -0.646525685084E+03    0.26006E-02   -0.57810E-04  2781   0.446E-02    0.628E-01
RMM:  10    -0.646525627552E+03    0.57532E-04   -0.10655E-03  2917   0.457E-02    0.827E-02
RMM:  11    -0.646526875406E+03   -0.12479E-02   -0.22103E-04  2443   0.467E-02    0.213E-01
RMM:  12    -0.646527311485E+03   -0.43608E-03   -0.10860E-04  2119   0.227E-02    0.374E-01
RMM:  13    -0.646527082181E+03    0.22930E-03   -0.46164E-05  1930   0.206E-02    0.370E-01
RMM:  14    -0.646527091786E+03   -0.96046E-05   -0.19005E-05  1878   0.904E-03
  18 F= -.65292964E+03 E0= -.65290495E+03  d E =-.589682E-03  mag=    -0.0294
 Constraining cell:  1  0  0  |  1  1  0  |  0  0  0
 trial-energy change:   -0.000590  1 .order   -0.000470   -0.000699   -0.000242
 step:   0.6867(harm=  0.8865)  dis= 0.00145  next Energy=  -652.929662 (dE=-0.613E-03)
 bond charge predicted
       N       E                     dE             d eps       ncg     rms          rms(c)
DAV:   1    -0.646526633439E+03    0.44874E-03   -0.53183E-03  3456   0.248E-01    0.136E-01
RMM:   2    -0.646527481424E+03   -0.84798E-03   -0.71045E-04  2934   0.533E-02    0.347E-01
RMM:   3    -0.646526212268E+03    0.12692E-02   -0.47964E-04  2705   0.494E-02    0.574E-02
RMM:   4    -0.646526701052E+03   -0.48878E-03   -0.12509E-04  2051   0.241E-02    0.158E-01
RMM:   5    -0.646526814192E+03   -0.11314E-03   -0.60569E-05  1929   0.209E-02    0.204E-01
RMM:   6    -0.646526858980E+03   -0.44787E-04   -0.34631E-05  1920   0.134E-02    0.140E-01
RMM:   7    -0.646526963666E+03   -0.10469E-03   -0.39960E-05  1973   0.897E-03    0.302E-02
RMM:   8    -0.646527028907E+03   -0.65240E-04   -0.14822E-05  1790   0.806E-03    0.469E-02
RMM:   9    -0.646527052666E+03   -0.23759E-04   -0.48996E-06  1741   0.725E-03    0.527E-02
RMM:  10    -0.646527018686E+03    0.33980E-04   -0.61508E-06  1737   0.465E-03    0.174E-02
RMM:  11    -0.646527023872E+03   -0.51863E-05   -0.11515E-06  1116   0.254E-03
  19 F= -.65292957E+03 E0= -.65290458E+03  d E =-.520764E-03  mag=    -0.0319
 Constraining cell:  1  0  0  |  1  1  0  |  0  0  0
 curvature:  -0.99 expect dE=-0.566E-03 dE for cont linesearch -0.405E-04
 trial: gam= 0.12339 g(F)=  0.560E-03 g(S)=  0.111E-04 ort = 0.437E-03 (trialstep = 0.601E+00)
 search vector abs. value=  0.750E-03
 reached required accuracy - stopping structural energy minimisation
