       N       E                     dE             d eps       ncg     rms          ort
DAV:   1     0.254715336398E+04    0.25472E+04   -0.11644E+05   768   0.110E+03
DAV:   2    -0.240399596979E+03   -0.27876E+04   -0.26641E+04   768   0.281E+02
DAV:   3    -0.702701483819E+03   -0.46230E+03   -0.45896E+03   768   0.121E+02
DAV:   4    -0.719441744566E+03   -0.16740E+02   -0.16595E+02   768   0.282E+01
DAV:   5    -0.719985994689E+03   -0.54425E+00   -0.54245E+00   768   0.428E+00
SDA:   6    -0.549747290953E+03    0.17024E+03   -0.54245E+00   768   0.501E+03 0.000E+00
CGA:   7    -0.603619441455E+03   -0.53872E+02   -0.26098E+02   768   0.332E+03 0.469E+03
CGA:   8    -0.638587116287E+03   -0.34968E+02   -0.15318E+02   768   0.158E+03 0.292E+03
CGA:   9    -0.651303873667E+03   -0.12717E+02   -0.86802E+01   768   0.362E+02 0.358E+02
CGA:  10    -0.658722909673E+03   -0.74190E+01   -0.74020E+01   768   0.215E+02-0.549E+00
CGA:  11    -0.660402196998E+03   -0.16793E+01   -0.15361E+01   768   0.561E+01 0.197E+01
CGA:  12    -0.661217578797E+03   -0.81538E+00   -0.80915E+00   768   0.662E+01-0.415E-01
CGA:  13    -0.661776125366E+03   -0.55855E+00   -0.41730E+00   768   0.250E+01 0.208E+01
CGA:  14    -0.661946801748E+03   -0.17068E+00   -0.15038E+00   768   0.102E+01 0.301E+00
CGA:  15    -0.662064934745E+03   -0.11813E+00   -0.11691E+00   768   0.181E+01 0.345E-02
CGA:  16    -0.662166224098E+03   -0.10129E+00   -0.72971E-01   768   0.134E+01 0.709E+00
CGA:  17    -0.662247940008E+03   -0.81716E-01   -0.64906E-01   768   0.441E+00 0.484E+00
CGA:  18    -0.662286394523E+03   -0.38455E-01   -0.40406E-01   768   0.498E+00-0.131E-01
CGA:  19    -0.662320454453E+03   -0.34060E-01   -0.23591E-01   768   0.595E+00 0.203E+00
CGA:  20    -0.662351468141E+03   -0.31014E-01   -0.18799E-01   768   0.394E+00 0.530E+00
CGA:  21    -0.662383516889E+03   -0.32049E-01   -0.32997E-01   768   0.123E+00 0.618E-03
CGA:  22    -0.662421864177E+03   -0.38347E-01   -0.33491E-01   768   0.317E-01 0.288E-01
CGA:  23    -0.662446370132E+03   -0.24506E-01   -0.23016E-01   768   0.471E-01 0.329E-02
CGA:  24    -0.662454996753E+03   -0.86266E-02   -0.86276E-02   768   0.447E-01 0.216E-03
CGA:  25    -0.662463183300E+03   -0.81865E-02   -0.81917E-02   768   0.107E-01-0.209E-03
CGA:  26    -0.662468151700E+03   -0.49684E-02   -0.48742E-02   768   0.149E-01 0.293E-03
CGA:  27    -0.662469781839E+03   -0.16301E-02   -0.16140E-02   768   0.584E-02 0.161E-04
CGA:  28    -0.662472671419E+03   -0.28896E-02   -0.28832E-02   768   0.499E-02-0.104E-04
CGA:  29    -0.662473536491E+03   -0.86507E-03   -0.86763E-03   768   0.519E-02 0.619E-04
CGA:  30    -0.662474689581E+03   -0.11531E-02   -0.11588E-02   768   0.136E-02-0.101E-03
CGA:  31    -0.662475249886E+03   -0.56030E-03   -0.55074E-03   768   0.511E-03 0.413E-04
CGA:  32    -0.662475490394E+03   -0.24051E-03   -0.23329E-03   768   0.273E-03 0.299E-04
CGA:  33    -0.662475642527E+03   -0.15213E-03   -0.14751E-03   768   0.160E-03 0.152E-04
CGA:  34    -0.662475691457E+03   -0.48930E-04   -0.49209E-04   768   0.248E-03-0.410E-05
   1 F= -.66901334E+03 E0= -.66899538E+03  d E =-.669013E+03  mag=     1.5847
       N       E                     dE             d eps       ncg     rms          ort
SDA:   1    -0.661432729483E+03    0.10429E+01    0.00000E+00   768   0.345E+01 0.000E+00
CGA:   2    -0.661922670443E+03   -0.48994E+00   -0.49259E+00   768   0.154E+01-0.188E-02
CGA:   3    -0.662216377165E+03   -0.29371E+00   -0.29285E+00   768   0.980E+00-0.122E-01
CGA:   4    -0.662390062538E+03   -0.17369E+00   -0.17433E+00   768   0.341E+00 0.437E-02
CGA:   5    -0.662450956670E+03   -0.60894E-01   -0.60817E-01   768   0.114E+00-0.424E-03
CGA:   6    -0.662472707502E+03   -0.21751E-01   -0.21773E-01   768   0.497E-01 0.385E-03
CGA:   7    -0.662482285026E+03   -0.95775E-02   -0.95695E-02   768   0.261E-01-0.137E-03
CGA:   8    -0.662486605172E+03   -0.43201E-02   -0.43246E-02   768   0.104E-01 0.373E-04
CGA:   9    -0.662488554103E+03   -0.19489E-02   -0.19484E-02   768   0.324E-02-0.238E-05
CGA:  10    -0.662489184729E+03   -0.63063E-03   -0.63078E-03   768   0.120E-02 0.905E-05
CGA:  11    -0.662489389690E+03   -0.20496E-03   -0.20495E-03   768   0.546E-03 0.270E-06
CGA:  12    -0.662489488081E+03   -0.98391E-04   -0.98407E-04   768   0.192E-03 0.900E-06
   2 F= -.66902704E+03 E0= -.66900956E+03  d E =-.137045E-01  mag=     1.5052
       N       E                     dE             d eps       ncg     rms          ort
SDA:   1    -0.662382244425E+03    0.10715E+00    0.00000E+00   768   0.358E+00 0.000E+00
CGA:   2    -0.662434824004E+03   -0.52580E-01   -0.52536E-01   768   0.160E+00-0.186E-03
CGA:   3    -0.662465636887E+03   -0.30813E-01   -0.30821E-01   768   0.993E-01 0.294E-03
CGA:   4    -0.662483391142E+03   -0.17754E-01   -0.17741E-01   768   0.372E-01-0.217E-03
CGA:   5    -0.662489749698E+03   -0.63586E-02   -0.63605E-02   768   0.124E-01 0.935E-05
CGA:   6    -0.662492085272E+03   -0.23356E-02   -0.23351E-02   768   0.562E-02-0.149E-04
CGA:   7    -0.662493110444E+03   -0.10252E-02   -0.10253E-02   768   0.284E-02 0.323E-05
CGA:   8    -0.662493590310E+03   -0.47987E-03   -0.47956E-03   768   0.111E-02-0.729E-05
CGA:   9    -0.662493801928E+03   -0.21162E-03   -0.21160E-03   768   0.360E-03-0.377E-05
CGA:  10    -0.662493869260E+03   -0.67333E-04   -0.67303E-04   768   0.135E-03-0.290E-05
   3 F= -.66903146E+03 E0= -.66901385E+03  d E =-.181216E-01  mag=     1.5180
       N       E                     dE             d eps       ncg     rms          ort
SDA:   1    -0.662232813846E+03    0.26099E+00    0.00000E+00   768   0.985E+00 0.000E+00
CGA:   2    -0.662359395699E+03   -0.12658E+00   -0.12693E+00   768   0.371E+00-0.124E-04
CGA:   3    -0.662431354200E+03   -0.71959E-01   -0.71969E-01   768   0.263E+00-0.281E-02
CGA:   4    -0.662481935636E+03   -0.50581E-01   -0.50576E-01   768   0.112E+00 0.159E-02
CGA:   5    -0.662502462930E+03   -0.20527E-01   -0.20522E-01   768   0.381E-01-0.231E-03
CGA:   6    -0.662509100473E+03   -0.66375E-02   -0.66405E-02   768   0.141E-01 0.835E-04
CGA:   7    -0.662511621741E+03   -0.25213E-02   -0.25209E-02   768   0.701E-02-0.912E-05
CGA:   8    -0.662512786158E+03   -0.11644E-02   -0.11649E-02   768   0.270E-02 0.152E-04
CGA:   9    -0.662513294857E+03   -0.50870E-03   -0.50870E-03   768   0.849E-03 0.406E-05
CGA:  10    -0.662513455148E+03   -0.16029E-03   -0.16029E-03   768   0.337E-03 0.327E-05
CGA:  11    -0.662513511719E+03   -0.56571E-04   -0.56561E-04   768   0.153E-03-0.412E-06
   4 F= -.66905080E+03 E0= -.66903362E+03  d E =-.193410E-01  mag=     1.4707
       N       E                     dE             d eps       ncg     rms          ort
SDA:   1    -0.660027640618E+03    0.24858E+01    0.00000E+00   768   0.918E+01 0.000E+00
CGA:   2    -0.661155461509E+03   -0.11278E+01   -0.11383E+01   768   0.342E+01-0.194E-01
CGA:   3    -0.661799150580E+03   -0.64369E+00   -0.64415E+00   768   0.247E+01-0.889E-01
CGA:   4    -0.662269882686E+03   -0.47073E+00   -0.46988E+00   768   0.962E+00 0.505E-01
CGA:   5    -0.662457411621E+03   -0.18753E+00   -0.18758E+00   768   0.332E+00-0.529E-02
CGA:   6    -0.662516792121E+03   -0.59380E-01   -0.59409E-01   768   0.120E+00 0.231E-02
CGA:   7    -0.662539425682E+03   -0.22634E-01   -0.22635E-01   768   0.619E-01-0.534E-03
CGA:   8    -0.662549449352E+03   -0.10024E-01   -0.10031E-01   768   0.247E-01 0.157E-03
CGA:   9    -0.662553960513E+03   -0.45112E-02   -0.45109E-02   768   0.782E-02-0.505E-04
CGA:  10    -0.662555492643E+03   -0.15321E-02   -0.15319E-02   768   0.293E-02 0.147E-04
CGA:  11    -0.662556021397E+03   -0.52875E-03   -0.52872E-03   768   0.157E-02-0.535E-05
CGA:  12    -0.662556310754E+03   -0.28936E-03   -0.28936E-03   768   0.706E-03-0.115E-05
CGA:  13    -0.662556503314E+03   -0.19256E-03   -0.19291E-03   768   0.548E-03-0.409E-05
CGA:  14    -0.662556617554E+03   -0.11424E-03   -0.11426E-03   768   0.471E-03-0.949E-07
CGA:  15    -0.662556732079E+03   -0.11452E-03   -0.11456E-03   768   0.283E-03-0.789E-06
CGA:  16    -0.662556807155E+03   -0.75076E-04   -0.74982E-04   768   0.224E-03 0.163E-05
   5 F= -.66909359E+03 E0= -.66907932E+03  d E =-.621283E-01  mag=     1.3274
       N       E                     dE             d eps       ncg     rms          ort
SDA:   1    -0.652380507167E+03    0.10176E+02    0.00000E+00   768   0.395E+02 0.000E+00
CGA:   2    -0.656844127182E+03   -0.44636E+01   -0.45779E+01   768   0.146E+02-0.566E+00
CGA:   3    -0.659408268319E+03   -0.25641E+01   -0.25474E+01   768   0.102E+02-0.607E+00
CGA:   4    -0.661383323613E+03   -0.19751E+01   -0.19675E+01   768   0.361E+01 0.438E+00
CGA:   5    -0.662145969485E+03   -0.76265E+00   -0.76251E+00   768   0.128E+01 0.134E-01
CGA:   6    -0.662390928077E+03   -0.24496E+00   -0.24497E+00   768   0.454E+00 0.395E-02
CGA:   7    -0.662489919914E+03   -0.98992E-01   -0.98863E-01   768   0.185E+00 0.345E-02
CGA:   8    -0.662529212683E+03   -0.39293E-01   -0.39336E-01   768   0.807E-01-0.144E-02
CGA:   9    -0.662542079502E+03   -0.12867E-01   -0.12889E-01   768   0.338E-01 0.249E-03
CGA:  10    -0.662547393324E+03   -0.53138E-02   -0.53059E-02   768   0.112E-01-0.656E-04
CGA:  11    -0.662549930263E+03   -0.25369E-02   -0.25361E-02   768   0.424E-02 0.159E-04
CGA:  12    -0.662550938704E+03   -0.10084E-02   -0.10096E-02   768   0.310E-02-0.218E-04
CGA:  13    -0.662551452121E+03   -0.51342E-03   -0.51328E-03   768   0.182E-02-0.181E-05
CGA:  14    -0.662551947355E+03   -0.49523E-03   -0.49597E-03   768   0.106E-02-0.885E-05
CGA:  15    -0.662552238210E+03   -0.29086E-03   -0.29076E-03   768   0.103E-02 0.205E-05
CGA:  16    -0.662552410082E+03   -0.17187E-03   -0.17179E-03   768   0.463E-03-0.157E-05
CGA:  17    -0.662552537360E+03   -0.12728E-03   -0.12719E-03   768   0.238E-03 0.151E-05
CGA:  18    -0.662552588413E+03   -0.51053E-04   -0.51061E-04   768   0.195E-03-0.104E-05
   6 F= -.66909150E+03 E0= -.66907965E+03  d E =-.600443E-01  mag=     1.2751
       N       E                     dE             d eps       ncg     rms          ort
SDA:   1    -0.659475330903E+03    0.30772E+01    0.00000E+00   768   0.106E+02 0.000E+00
CGA:   2    -0.660922179234E+03   -0.14468E+01   -0.14442E+01   768   0.394E+01-0.383E-01
CGA:   3    -0.661714634341E+03   -0.79246E+00   -0.79231E+00   768   0.275E+01 0.235E-01
CGA:   4    -0.662237946722E+03   -0.52331E+00   -0.52234E+00   768   0.126E+01-0.478E-01
CGA:   5    -0.662450605626E+03   -0.21266E+00   -0.21314E+00   768   0.407E+00 0.460E-02
CGA:   6    -0.662523256669E+03   -0.72651E-01   -0.72507E-01   768   0.163E+00-0.322E-02
CGA:   7    -0.662550701373E+03   -0.27445E-01   -0.27475E-01   768   0.734E-01 0.342E-03
CGA:   8    -0.662563424081E+03   -0.12723E-01   -0.12706E-01   768   0.300E-01-0.319E-03
CGA:   9    -0.662568849746E+03   -0.54257E-02   -0.54270E-02   768   0.922E-02 0.365E-04
CGA:  10    -0.662570520412E+03   -0.16707E-02   -0.16701E-02   768   0.350E-02-0.266E-04
CGA:  11    -0.662571086350E+03   -0.56594E-03   -0.56598E-03   768   0.137E-02-0.440E-06
CGA:  12    -0.662571345946E+03   -0.25960E-03   -0.25959E-03   768   0.534E-03-0.116E-05
CGA:  13    -0.662571459295E+03   -0.11335E-03   -0.11330E-03   768   0.325E-03 0.255E-05
CGA:  14    -0.662571520277E+03   -0.60982E-04   -0.60987E-04   768   0.200E-03 0.576E-06
   7 F= -.66910879E+03 E0= -.66909685E+03  d E =-.773312E-01  mag=     1.2667
       N       E                     dE             d eps       ncg     rms          ort
SDA:   1    -0.661979822228E+03    0.59164E+00    0.00000E+00   768   0.210E+01 0.000E+00
CGA:   2    -0.662258976462E+03   -0.27915E+00   -0.27994E+00   768   0.932E+00-0.861E-03
CGA:   3    -0.662430051933E+03   -0.17108E+00   -0.17095E+00   768   0.588E+00-0.860E-02
CGA:   4    -0.662537879103E+03   -0.10783E+00   -0.10788E+00   768   0.208E+00 0.403E-02
CGA:   5    -0.662575537697E+03   -0.37659E-01   -0.37650E-01   768   0.697E-01-0.235E-03
CGA:   6    -0.662588258039E+03   -0.12720E-01   -0.12725E-01   768   0.315E-01 0.302E-03
CGA:   7    -0.662593806315E+03   -0.55483E-02   -0.55467E-02   768   0.161E-01-0.334E-04
CGA:   8    -0.662596613843E+03   -0.28075E-02   -0.28086E-02   768   0.635E-02 0.428E-04
CGA:   9    -0.662597828603E+03   -0.12148E-02   -0.12148E-02   768   0.200E-02-0.513E-05
CGA:  10    -0.662598182925E+03   -0.35432E-03   -0.35439E-03   768   0.808E-03 0.466E-05
CGA:  11    -0.662598311231E+03   -0.12831E-03   -0.12830E-03   768   0.291E-03-0.775E-07
CGA:  12    -0.662598367274E+03   -0.56043E-04   -0.56039E-04   768   0.105E-03 0.840E-06
   8 F= -.66913646E+03 E0= -.66912412E+03  d E =-.276651E-01  mag=     1.2755
       N       E                     dE             d eps       ncg     rms          ort
SDA:   1    -0.658627437627E+03    0.39709E+01    0.00000E+00   768   0.142E+02 0.000E+00
CGA:   2    -0.660386643260E+03   -0.17592E+01   -0.17725E+01   768   0.625E+01-0.613E-01
CGA:   3    -0.661498376385E+03   -0.11117E+01   -0.11103E+01   768   0.396E+01-0.141E+00
CGA:   4    -0.662226650102E+03   -0.72827E+00   -0.72781E+00   768   0.130E+01 0.805E-01
CGA:   5    -0.662473461792E+03   -0.24681E+00   -0.24683E+00   768   0.453E+00-0.298E-02
CGA:   6    -0.662556676336E+03   -0.83215E-01   -0.83220E-01   768   0.205E+00 0.538E-02
CGA:   7    -0.662592378420E+03   -0.35702E-01   -0.35676E-01   768   0.113E+00-0.817E-03
CGA:   8    -0.662611299661E+03   -0.18921E-01   -0.18937E-01   768   0.435E-01 0.481E-03
CGA:   9    -0.662619884776E+03   -0.85851E-02   -0.85887E-02   768   0.136E-01-0.167E-03
CGA:  10    -0.662622338408E+03   -0.24536E-02   -0.24538E-02   768   0.595E-02 0.284E-04
CGA:  11    -0.662623240868E+03   -0.90246E-03   -0.90210E-03   768   0.230E-02-0.477E-05
CGA:  12    -0.662623690425E+03   -0.44956E-03   -0.44955E-03   768   0.850E-03 0.124E-05
CGA:  13    -0.662623876197E+03   -0.18577E-03   -0.18587E-03   768   0.616E-03-0.301E-05
CGA:  14    -0.662623976400E+03   -0.10020E-03   -0.10018E-03   768   0.317E-03-0.230E-06
CGA:  15    -0.662624066071E+03   -0.89672E-04   -0.89749E-04   768   0.231E-03-0.911E-06
   9 F= -.66916498E+03 E0= -.66915017E+03  d E =-.561856E-01  mag=     1.3327
       N       E                     dE             d eps       ncg     rms          ort
SDA:   1    -0.662025648537E+03    0.59833E+00    0.00000E+00   768   0.190E+01 0.000E+00
CGA:   2    -0.662319997861E+03   -0.29435E+00   -0.29412E+00   768   0.129E+01-0.351E-02
CGA:   3    -0.662521934428E+03   -0.20194E+00   -0.20192E+00   768   0.552E+00-0.105E-02
CGA:   4    -0.662620212098E+03   -0.98278E-01   -0.98305E-01   768   0.129E+00 0.199E-02
CGA:   5    -0.662642183481E+03   -0.21971E-01   -0.21972E-01   768   0.417E-01 0.914E-04
CGA:   6    -0.662650225983E+03   -0.80425E-02   -0.80412E-02   768   0.198E-01 0.136E-03
CGA:   7    -0.662653502154E+03   -0.32762E-02   -0.32760E-02   768   0.107E-01 0.905E-05
CGA:   8    -0.662655389158E+03   -0.18870E-02   -0.18873E-02   768   0.477E-02 0.227E-04
CGA:   9    -0.662656358605E+03   -0.96945E-03   -0.96962E-03   768   0.176E-02-0.655E-05
CGA:  10    -0.662656700543E+03   -0.34194E-03   -0.34187E-03   768   0.918E-03 0.588E-05
CGA:  11    -0.662656837911E+03   -0.13737E-03   -0.13741E-03   768   0.337E-03 0.128E-05
CGA:  12    -0.662656905151E+03   -0.67240E-04   -0.67210E-04   768   0.121E-03 0.190E-05
  10 F= -.66919960E+03 E0= -.66918395E+03  d E =-.346250E-01  mag=     1.3593
       N       E                     dE             d eps       ncg     rms          ort
SDA:   1    -0.657064166360E+03    0.55927E+01    0.00000E+00   768   0.175E+02 0.000E+00
CGA:   2    -0.659610141884E+03   -0.25460E+01   -0.25559E+01   768   0.118E+02 0.259E-01
CGA:   3    -0.661487363862E+03   -0.18772E+01   -0.18758E+01   768   0.496E+01-0.388E-01
CGA:   4    -0.662365821697E+03   -0.87846E+00   -0.87883E+00   768   0.113E+01 0.563E-01
CGA:   5    -0.662564850487E+03   -0.19903E+00   -0.19903E+00   768   0.376E+00 0.222E-02
CGA:   6    -0.662641683784E+03   -0.76833E-01   -0.76746E-01   768   0.169E+00 0.308E-02
CGA:   7    -0.662673881005E+03   -0.32197E-01   -0.32203E-01   768   0.993E-01-0.395E-03
CGA:   8    -0.662689617006E+03   -0.15736E-01   -0.15763E-01   768   0.484E-01 0.519E-03
CGA:   9    -0.662698530936E+03   -0.89139E-02   -0.89143E-02   768   0.158E-01-0.116E-03
CGA:  10    -0.662701974244E+03   -0.34433E-02   -0.34404E-02   768   0.688E-02 0.600E-04
CGA:  11    -0.662703062063E+03   -0.10878E-02   -0.10876E-02   768   0.338E-02-0.272E-05
CGA:  12    -0.662703615955E+03   -0.55389E-03   -0.55398E-03   768   0.103E-02 0.443E-05
CGA:  13    -0.662703850871E+03   -0.23492E-03   -0.23501E-03   768   0.515E-03-0.215E-05
CGA:  14    -0.662703934340E+03   -0.83469E-04   -0.83477E-04   768   0.331E-03 0.808E-06
  11 F= -.66925218E+03 E0= -.66923340E+03  d E =-.872016E-01  mag=     1.4745
       N       E                     dE             d eps       ncg     rms          ort
SDA:   1    -0.661905459570E+03    0.79839E+00    0.00000E+00   768   0.220E+01 0.000E+00
CGA:   2    -0.662316478288E+03   -0.41102E+00   -0.41098E+00   768   0.191E+01 0.789E-02
CGA:   3    -0.662589834215E+03   -0.27336E+00   -0.27346E+00   768   0.653E+00 0.649E-03
CGA:   4    -0.662708063692E+03   -0.11823E+00   -0.11823E+00   768   0.121E+00 0.119E-02
CGA:   5    -0.662730585630E+03   -0.22522E-01   -0.22522E-01   768   0.442E-01 0.134E-04
CGA:   6    -0.662738486698E+03   -0.79011E-02   -0.79014E-02   768   0.170E-01 0.756E-04
CGA:   7    -0.662741665791E+03   -0.31791E-02   -0.31791E-02   768   0.104E-01-0.465E-05
CGA:   8    -0.662743418841E+03   -0.17530E-02   -0.17533E-02   768   0.531E-02 0.101E-04
CGA:   9    -0.662744452660E+03   -0.10338E-02   -0.10340E-02   768   0.197E-02-0.104E-04
CGA:  10    -0.662744899346E+03   -0.44669E-03   -0.44662E-03   768   0.944E-03 0.117E-05
CGA:  11    -0.662745047598E+03   -0.14825E-03   -0.14823E-03   768   0.452E-03-0.106E-05
CGA:  12    -0.662745127791E+03   -0.80192E-04   -0.80196E-04   768   0.152E-03 0.818E-06
  12 F= -.66929573E+03 E0= -.66927612E+03  d E =-.435495E-01  mag=     1.5359
       N       E                     dE             d eps       ncg     rms          ort
SDA:   1    -0.662684434100E+03    0.60613E-01    0.00000E+00   768   0.167E+00 0.000E+00
CGA:   2    -0.662715160918E+03   -0.30727E-01   -0.30728E-01   768   0.141E+00 0.334E-03
CGA:   3    -0.662735795042E+03   -0.20634E-01   -0.20632E-01   768   0.488E-01-0.214E-04
CGA:   4    -0.662744684784E+03   -0.88897E-02   -0.88897E-02   768   0.879E-02-0.421E-04
CGA:   5    -0.662746317156E+03   -0.16324E-02   -0.16323E-02   768   0.322E-02 0.109E-04
CGA:   6    -0.662746866845E+03   -0.54969E-03   -0.54981E-03   768   0.127E-02 0.884E-05
CGA:   7    -0.662747096520E+03   -0.22967E-03   -0.22968E-03   768   0.758E-03 0.152E-05
CGA:   8    -0.662747231267E+03   -0.13475E-03   -0.13475E-03   768   0.388E-03-0.538E-06
CGA:   9    -0.662747310319E+03   -0.79052E-04   -0.79102E-04   768   0.157E-03-0.227E-05
  13 F= -.66929855E+03 E0= -.66927883E+03  d E =-.463690E-01  mag=     1.5510
       N       E                     dE             d eps       ncg     rms          ort
SDA:   1    -0.661665851961E+03    0.10814E+01    0.00000E+00   768   0.293E+01 0.000E+00
CGA:   2    -0.662246679562E+03   -0.58083E+00   -0.58045E+00   768   0.198E+01 0.130E-01
CGA:   3    -0.662575677249E+03   -0.32900E+00   -0.32814E+00   768   0.991E+00-0.194E-01
CGA:   4    -0.662720321057E+03   -0.14464E+00   -0.14484E+00   768   0.225E+00 0.503E-03
CGA:   5    -0.662760496463E+03   -0.40175E-01   -0.40167E-01   768   0.882E-01-0.850E-03
CGA:   6    -0.662776346816E+03   -0.15850E-01   -0.15852E-01   768   0.418E-01 0.339E-03
CGA:   7    -0.662783393864E+03   -0.70470E-02   -0.70435E-02   768   0.216E-01-0.108E-03
CGA:   8    -0.662787392339E+03   -0.39985E-02   -0.39982E-02   768   0.896E-02 0.427E-04
CGA:   9    -0.662789172518E+03   -0.17802E-02   -0.17809E-02   768   0.376E-02-0.315E-04
CGA:  10    -0.662789809753E+03   -0.63723E-03   -0.63734E-03   768   0.171E-02 0.459E-05
CGA:  11    -0.662790088183E+03   -0.27843E-03   -0.27843E-03   768   0.545E-03 0.611E-06
CGA:  12    -0.662790198554E+03   -0.11037E-03   -0.11032E-03   768   0.245E-03 0.256E-05
CGA:  13    -0.662790239944E+03   -0.41390E-04   -0.41392E-04   768   0.130E-03 0.115E-06
  14 F= -.66934280E+03 E0= -.66932357E+03  d E =-.442547E-01  mag=     1.5335
       N       E                     dE             d eps       ncg     rms          ort
SDA:   1    -0.661634104230E+03    0.11561E+01    0.00000E+00   768   0.304E+01 0.000E+00
CGA:   2    -0.662239845963E+03   -0.60574E+00   -0.60522E+00   768   0.206E+01 0.152E-01
CGA:   3    -0.662581250718E+03   -0.34140E+00   -0.34053E+00   768   0.104E+01-0.228E-01
CGA:   4    -0.662732938535E+03   -0.15169E+00   -0.15189E+00   768   0.236E+00 0.709E-03
CGA:   5    -0.662774861602E+03   -0.41923E-01   -0.41918E-01   768   0.917E-01-0.938E-03
CGA:   6    -0.662791238048E+03   -0.16376E-01   -0.16377E-01   768   0.439E-01 0.359E-03
CGA:   7    -0.662798634582E+03   -0.73965E-02   -0.73930E-02   768   0.228E-01-0.127E-03
CGA:   8    -0.662802839454E+03   -0.42049E-02   -0.42044E-02   768   0.953E-02 0.465E-04
CGA:   9    -0.662804727031E+03   -0.18876E-02   -0.18884E-02   768   0.400E-02-0.346E-04
CGA:  10    -0.662805398861E+03   -0.67183E-03   -0.67193E-03   768   0.184E-02 0.441E-05
CGA:  11    -0.662805701874E+03   -0.30301E-03   -0.30300E-03   768   0.599E-03 0.308E-06
CGA:  12    -0.662805824642E+03   -0.12277E-03   -0.12270E-03   768   0.288E-03 0.278E-05
CGA:  13    -0.662805874126E+03   -0.49484E-04   -0.49486E-04   768   0.163E-03 0.226E-06
  15 F= -.66935969E+03 E0= -.66934103E+03  d E =-.611414E-01  mag=     1.4951
       N       E                     dE             d eps       ncg     rms          ort
SDA:   1    -0.662167247521E+03    0.63858E+00    0.00000E+00   768   0.183E+01 0.000E+00
CGA:   2    -0.662498915298E+03   -0.33167E+00   -0.33167E+00   768   0.102E+01 0.217E-03
CGA:   3    -0.662696703325E+03   -0.19779E+00   -0.19791E+00   768   0.601E+00-0.692E-02
CGA:   4    -0.662787711546E+03   -0.91008E-01   -0.91085E-01   768   0.172E+00 0.240E-03
CGA:   5    -0.662818121797E+03   -0.30410E-01   -0.30406E-01   768   0.659E-01-0.627E-03
CGA:   6    -0.662829768569E+03   -0.11647E-01   -0.11648E-01   768   0.336E-01 0.153E-03
CGA:   7    -0.662835223540E+03   -0.54550E-02   -0.54506E-02   768   0.181E-01-0.102E-03
CGA:   8    -0.662838320713E+03   -0.30972E-02   -0.30976E-02   768   0.681E-02 0.195E-04
CGA:   9    -0.662839681714E+03   -0.13610E-02   -0.13616E-02   768   0.241E-02-0.198E-04
CGA:  10    -0.662840084326E+03   -0.40261E-03   -0.40267E-03   768   0.112E-02 0.307E-05
CGA:  11    -0.662840247480E+03   -0.16315E-03   -0.16315E-03   768   0.361E-03 0.437E-06
CGA:  12    -0.662840322143E+03   -0.74663E-04   -0.74603E-04   768   0.150E-03 0.214E-05
  16 F= -.66939434E+03 E0= -.66937425E+03  d E =-.346530E-01  mag=     1.5107
       N       E                     dE             d eps       ncg     rms          ort
SDA:   1    -0.661158072377E+03    0.16822E+01    0.00000E+00   768   0.463E+01 0.000E+00
CGA:   2    -0.661995423289E+03   -0.83735E+00   -0.83733E+00   768   0.259E+01 0.286E-02
CGA:   3    -0.662493803607E+03   -0.49838E+00   -0.49911E+00   768   0.158E+01-0.389E-01
CGA:   4    -0.662726124969E+03   -0.23232E+00   -0.23280E+00   768   0.452E+00 0.190E-02
CGA:   5    -0.662802965849E+03   -0.76841E-01   -0.76782E-01   768   0.188E+00-0.331E-02
CGA:   6    -0.662832525566E+03   -0.29560E-01   -0.29590E-01   768   0.936E-01 0.512E-03
CGA:   7    -0.662848109725E+03   -0.15584E-01   -0.15572E-01   768   0.451E-01-0.486E-03
CGA:   8    -0.662856491225E+03   -0.83815E-02   -0.83793E-02   768   0.185E-01 0.120E-03
CGA:   9    -0.662859856140E+03   -0.33649E-02   -0.33654E-02   768   0.827E-02-0.646E-04
CGA:  10    -0.662861047101E+03   -0.11910E-02   -0.11916E-02   768   0.302E-02 0.677E-05
CGA:  11    -0.662861581148E+03   -0.53405E-03   -0.53405E-03   768   0.103E-02-0.105E-05
CGA:  12    -0.662861768452E+03   -0.18730E-03   -0.18728E-03   768   0.545E-03 0.337E-05
CGA:  13    -0.662861855637E+03   -0.87185E-04   -0.87192E-04   768   0.263E-03 0.364E-06
  17 F= -.66941600E+03 E0= -.66939354E+03  d E =-.563064E-01  mag=     1.5451
       N       E                     dE             d eps       ncg     rms          ort
SDA:   1    -0.662293572705E+03    0.56820E+00    0.00000E+00   768   0.159E+01 0.000E+00
CGA:   2    -0.662584556181E+03   -0.29098E+00   -0.29098E+00   768   0.889E+00-0.766E-03
CGA:   3    -0.662759695265E+03   -0.17514E+00   -0.17520E+00   768   0.536E+00-0.234E-02
CGA:   4    -0.662843061024E+03   -0.83366E-01   -0.83367E-01   768   0.149E+00-0.263E-03
CGA:   5    -0.662869460216E+03   -0.26399E-01   -0.26399E-01   768   0.505E-01-0.150E-03
CGA:   6    -0.662879715178E+03   -0.10255E-01   -0.10254E-01   768   0.232E-01 0.906E-05
CGA:   7    -0.662884845631E+03   -0.51305E-02   -0.51346E-02   768   0.114E-01-0.703E-04
CGA:   8    -0.662886789443E+03   -0.19438E-02   -0.19441E-02   768   0.698E-02 0.116E-04
CGA:   9    -0.662887700248E+03   -0.91080E-03   -0.90985E-03   768   0.204E-02-0.648E-05
CGA:  10    -0.662888109333E+03   -0.40909E-03   -0.40902E-03   768   0.601E-03 0.243E-05
CGA:  11    -0.662888237777E+03   -0.12844E-03   -0.12843E-03   768   0.317E-03 0.386E-06
CGA:  12    -0.662888281143E+03   -0.43366E-04   -0.43421E-04   768   0.176E-03 0.126E-05
  18 F= -.66944246E+03 E0= -.66941843E+03  d E =-.264619E-01  mag=     1.5888
       N       E                     dE             d eps       ncg     rms          ort
SDA:   1    -0.661668569118E+03    0.12197E+01    0.00000E+00   768   0.329E+01 0.000E+00
CGA:   2    -0.662271661169E+03   -0.60309E+00   -0.60308E+00   768   0.184E+01-0.130E-02
CGA:   3    -0.662634091980E+03   -0.36243E+00   -0.36269E+00   768   0.112E+01-0.119E-01
CGA:   4    -0.662806557373E+03   -0.17247E+00   -0.17257E+00   768   0.313E+00 0.121E-03
CGA:   5    -0.662860823251E+03   -0.54266E-01   -0.54251E-01   768   0.115E+00-0.121E-02
CGA:   6    -0.662880785716E+03   -0.19962E-01   -0.19966E-01   768   0.645E-01 0.310E-03
CGA:   7    -0.662890675462E+03   -0.98897E-02   -0.98757E-02   768   0.359E-01-0.193E-03
CGA:   8    -0.662896639305E+03   -0.59638E-02   -0.59655E-02   768   0.132E-01 0.572E-04
CGA:   9    -0.662899394941E+03   -0.27556E-02   -0.27571E-02   768   0.470E-02-0.343E-04
CGA:  10    -0.662900151663E+03   -0.75672E-03   -0.75689E-03   768   0.244E-02 0.504E-05
CGA:  11    -0.662900488755E+03   -0.33709E-03   -0.33699E-03   768   0.751E-03-0.100E-05
CGA:  12    -0.662900648820E+03   -0.16007E-03   -0.15998E-03   768   0.327E-03 0.226E-05
CGA:  13    -0.662900710935E+03   -0.62115E-04   -0.62116E-04   768   0.267E-03-0.131E-06
  19 F= -.66945482E+03 E0= -.66942920E+03  d E =-.388288E-01  mag=     1.6215
       N       E                     dE             d eps       ncg     rms          ort
SDA:   1    -0.662652250366E+03    0.24840E+00    0.00000E+00   768   0.696E+00 0.000E+00
CGA:   2    -0.662789962265E+03   -0.13771E+00   -0.13773E+00   768   0.416E+00-0.504E-03
CGA:   3    -0.662865711254E+03   -0.75749E-01   -0.75746E-01   768   0.223E+00 0.582E-03
CGA:   4    -0.662899760642E+03   -0.34049E-01   -0.34033E-01   768   0.621E-01-0.191E-03
CGA:   5    -0.662909723028E+03   -0.99624E-02   -0.99662E-02   768   0.260E-01 0.847E-04
CGA:   6    -0.662913652074E+03   -0.39290E-02   -0.39263E-02   768   0.146E-01-0.387E-04
CGA:   7    -0.662916055253E+03   -0.24032E-02   -0.24035E-02   768   0.648E-02 0.123E-04
CGA:   8    -0.662917357638E+03   -0.13024E-02   -0.13029E-02   768   0.282E-02-0.164E-04
CGA:   9    -0.662917877022E+03   -0.51938E-03   -0.51936E-03   768   0.143E-02 0.206E-05
CGA:  10    -0.662918067059E+03   -0.19004E-03   -0.18997E-03   768   0.529E-03-0.426E-06
CGA:  11    -0.662918167667E+03   -0.10061E-03   -0.10057E-03   768   0.180E-03 0.269E-05
CGA:  12    -0.662918202013E+03   -0.34345E-04   -0.34339E-04   768   0.119E-03 0.446E-06
  20 F= -.66947220E+03 E0= -.66944685E+03  d E =-.173798E-01  mag=     1.5863
       N       E                     dE             d eps       ncg     rms          ort
SDA:   1    -0.660561844285E+03    0.23563E+01    0.00000E+00   768   0.624E+01 0.000E+00
CGA:   2    -0.661799350936E+03   -0.12375E+01   -0.12375E+01   768   0.373E+01-0.669E-02
CGA:   3    -0.662482550464E+03   -0.68320E+00   -0.68317E+00   768   0.198E+01-0.109E-02
CGA:   4    -0.662786735292E+03   -0.30418E+00   -0.30404E+00   768   0.535E+00-0.388E-02
CGA:   5    -0.662878338917E+03   -0.91604E-01   -0.91613E-01   768   0.195E+00 0.767E-03
CGA:   6    -0.662914855701E+03   -0.36517E-01   -0.36544E-01   768   0.120E+00-0.140E-02
CGA:   7    -0.662932064564E+03   -0.17209E-01   -0.17228E-01   768   0.633E-01 0.145E-03
CGA:   8    -0.662942695550E+03   -0.10631E-01   -0.10628E-01   768   0.246E-01-0.244E-03
CGA:   9    -0.662947748158E+03   -0.50526E-02   -0.50500E-02   768   0.889E-02 0.560E-04
CGA:  10    -0.662949203096E+03   -0.14549E-02   -0.14547E-02   768   0.516E-02-0.812E-05
CGA:  11    -0.662949905874E+03   -0.70278E-03   -0.70309E-03   768   0.154E-02 0.671E-05
CGA:  12    -0.662950244412E+03   -0.33854E-03   -0.33847E-03   768   0.715E-03 0.134E-05
CGA:  13    -0.662950377192E+03   -0.13278E-03   -0.13277E-03   768   0.632E-03 0.178E-05
CGA:  14    -0.662950488448E+03   -0.11126E-03   -0.11126E-03   768   0.330E-03-0.187E-07
CGA:  15    -0.662950592917E+03   -0.10447E-03   -0.10441E-03   768   0.352E-03 0.553E-06
CGA:  16    -0.662950654262E+03   -0.61344E-04   -0.61349E-04   768   0.290E-03-0.840E-07
  21 F= -.66950418E+03 E0= -.66948207E+03  d E =-.493515E-01  mag=     1.3924
       N       E                     dE             d eps       ncg     rms          ort
SDA:   1    -0.653410326220E+03    0.95403E+01    0.00000E+00   768   0.250E+02 0.000E+00
CGA:   2    -0.658358114645E+03   -0.49478E+01   -0.49455E+01   768   0.147E+02 0.151E-01
CGA:   3    -0.661084770590E+03   -0.27267E+01   -0.27266E+01   768   0.802E+01-0.187E+00
CGA:   4    -0.662278566019E+03   -0.11938E+01   -0.11964E+01   768   0.209E+01-0.744E-02
CGA:   5    -0.662645796687E+03   -0.36723E+00   -0.36698E+00   768   0.778E+00-0.207E-01
CGA:   6    -0.662794084604E+03   -0.14829E+00   -0.14823E+00   768   0.418E+00 0.227E-02
CGA:   7    -0.662861165249E+03   -0.67081E-01   -0.66896E-01   768   0.247E+00-0.320E-02
CGA:   8    -0.662899004167E+03   -0.37839E-01   -0.37876E-01   768   0.929E-01 0.351E-03
CGA:   9    -0.662918434631E+03   -0.19430E-01   -0.19445E-01   768   0.301E-01-0.357E-03
CGA:  10    -0.662924516203E+03   -0.60816E-02   -0.60793E-02   768   0.153E-01 0.790E-04
CGA:  11    -0.662926526428E+03   -0.20102E-02   -0.20103E-02   768   0.620E-02-0.165E-05
CGA:  12    -0.662927718810E+03   -0.11924E-02   -0.11924E-02   768   0.222E-02 0.480E-05
CGA:  13    -0.662928273784E+03   -0.55497E-03   -0.55466E-03   768   0.172E-02 0.297E-05
CGA:  14    -0.662928536448E+03   -0.26266E-03   -0.26260E-03   768   0.114E-02 0.154E-05
CGA:  15    -0.662928845210E+03   -0.30876E-03   -0.30851E-03   768   0.705E-03 0.187E-05
CGA:  16    -0.662929036883E+03   -0.19167E-03   -0.19178E-03   768   0.757E-03-0.294E-06
CGA:  17    -0.662929148538E+03   -0.11166E-03   -0.11172E-03   768   0.330E-03-0.952E-06
CGA:  18    -0.662929241525E+03   -0.92987E-04   -0.92995E-04   768   0.185E-03 0.163E-06
  22 F= -.66948132E+03 E0= -.66946714E+03  d E =-.264984E-01  mag=     1.1581
       N       E                     dE             d eps       ncg     rms          ort
SDA:   1    -0.658118325606E+03    0.48108E+01    0.00000E+00   768   0.128E+02 0.000E+00
CGA:   2    -0.660626259760E+03   -0.25079E+01   -0.25075E+01   768   0.768E+01 0.430E-01
CGA:   3    -0.661963691862E+03   -0.13374E+01   -0.13327E+01   768   0.443E+01-0.120E+00
CGA:   4    -0.662612567446E+03   -0.64888E+00   -0.65123E+00   768   0.122E+01-0.201E-03
CGA:   5    -0.662794276301E+03   -0.18171E+00   -0.18085E+00   768   0.517E+00-0.699E-02
CGA:   6    -0.662874138156E+03   -0.79862E-01   -0.80012E-01   768   0.248E+00 0.106E-02
CGA:   7    -0.662918877578E+03   -0.44739E-01   -0.44725E-01   768   0.117E+00-0.123E-02
CGA:   8    -0.662940564195E+03   -0.21687E-01   -0.21687E-01   768   0.591E-01 0.402E-03
CGA:   9    -0.662949780573E+03   -0.92164E-02   -0.92056E-02   768   0.260E-01-0.131E-03
CGA:  10    -0.662953950049E+03   -0.41695E-02   -0.41701E-02   768   0.888E-02 0.140E-04
CGA:  11    -0.662955510598E+03   -0.15605E-02   -0.15603E-02   768   0.381E-02-0.189E-04
CGA:  12    -0.662956073505E+03   -0.56291E-03   -0.56271E-03   768   0.158E-02-0.233E-05
CGA:  13    -0.662956367603E+03   -0.29410E-03   -0.29412E-03   768   0.745E-03-0.401E-05
CGA:  14    -0.662956507129E+03   -0.13953E-03   -0.13953E-03   768   0.514E-03-0.347E-06
CGA:  15    -0.662956601593E+03   -0.94464E-04   -0.94465E-04   768   0.307E-03-0.142E-05
  23 F= -.66950976E+03 E0= -.66949143E+03  d E =-.549338E-01  mag=     1.2540
       N       E                     dE             d eps       ncg     rms          ort
SDA:   1    -0.662749456732E+03    0.20705E+00    0.00000E+00   768   0.579E+00 0.000E+00
CGA:   2    -0.662891027349E+03   -0.14157E+00   -0.14154E+00   768   0.354E+00 0.362E-03
CGA:   3    -0.662950247510E+03   -0.59220E-01   -0.59216E-01   768   0.163E+00-0.454E-04
CGA:   4    -0.662973741610E+03   -0.23494E-01   -0.23510E-01   768   0.374E-01 0.829E-04
CGA:   5    -0.662980147728E+03   -0.64061E-02   -0.64055E-02   768   0.147E-01-0.150E-04
CGA:   6    -0.662982747355E+03   -0.25996E-02   -0.25998E-02   768   0.791E-02 0.146E-04
CGA:   7    -0.662983883160E+03   -0.11358E-02   -0.11352E-02   768   0.400E-02-0.542E-05
CGA:   8    -0.662984616933E+03   -0.73377E-03   -0.73376E-03   768   0.164E-02 0.140E-05
CGA:   9    -0.662984970455E+03   -0.35352E-03   -0.35359E-03   768   0.729E-03-0.168E-05
CGA:  10    -0.662985087713E+03   -0.11726E-03   -0.11732E-03   768   0.403E-03 0.259E-05
CGA:  11    -0.662985146788E+03   -0.59076E-04   -0.59100E-04   768   0.121E-03 0.673E-06
  24 F= -.66953845E+03 E0= -.66952186E+03  d E =-.286917E-01  mag=     1.2129
       N       E                     dE             d eps       ncg     rms          ort
SDA:   1    -0.662457288306E+03    0.52780E+00    0.00000E+00   768   0.133E+01 0.000E+00
CGA:   2    -0.662783587361E+03   -0.32630E+00   -0.32616E+00   768   0.818E+00 0.182E-02
CGA:   3    -0.662919644274E+03   -0.13606E+00   -0.13602E+00   768   0.382E+00-0.749E-03
CGA:   4    -0.662974216274E+03   -0.54572E-01   -0.54650E-01   768   0.892E-01 0.388E-03
CGA:   5    -0.662988829664E+03   -0.14613E-01   -0.14609E-01   768   0.378E-01-0.905E-04
CGA:   6    -0.662994862774E+03   -0.60331E-02   -0.60351E-02   768   0.192E-01 0.416E-04
CGA:   7    -0.662997874988E+03   -0.30122E-02   -0.30112E-02   768   0.871E-02-0.178E-04
CGA:   8    -0.662999625706E+03   -0.17507E-02   -0.17503E-02   768   0.390E-02 0.988E-05
CGA:   9    -0.663000401032E+03   -0.77533E-03   -0.77541E-03   768   0.207E-02-0.359E-05
CGA:  10    -0.663000703643E+03   -0.30261E-03   -0.30280E-03   768   0.876E-03 0.407E-05
CGA:  11    -0.663000863420E+03   -0.15978E-03   -0.15977E-03   768   0.298E-03 0.128E-05
CGA:  12    -0.663000921027E+03   -0.57607E-04   -0.57587E-04   768   0.164E-03 0.157E-05
  25 F= -.66955438E+03 E0= -.66954038E+03  d E =-.446241E-01  mag=     1.1576
       N       E                     dE             d eps       ncg     rms          ort
SDA:   1    -0.662751756651E+03    0.24911E+00    0.00000E+00   768   0.697E+00 0.000E+00
CGA:   2    -0.662898058184E+03   -0.14630E+00   -0.14624E+00   768   0.457E+00 0.115E-02
CGA:   3    -0.662967868381E+03   -0.69810E-01   -0.69753E-01   768   0.242E+00-0.887E-03
CGA:   4    -0.663003974621E+03   -0.36106E-01   -0.36135E-01   768   0.633E-01 0.291E-03
CGA:   5    -0.663013938522E+03   -0.99639E-02   -0.99622E-02   768   0.231E-01-0.222E-04
CGA:   6    -0.663017801324E+03   -0.38628E-02   -0.38635E-02   768   0.105E-01 0.495E-04
CGA:   7    -0.663019649161E+03   -0.18478E-02   -0.18478E-02   768   0.563E-02 0.194E-05
CGA:   8    -0.663020654929E+03   -0.10058E-02   -0.10057E-02   768   0.272E-02 0.110E-04
CGA:   9    -0.663021179463E+03   -0.52453E-03   -0.52458E-03   768   0.124E-02-0.249E-05
CGA:  10    -0.663021384868E+03   -0.20540E-03   -0.20543E-03   768   0.545E-03 0.170E-05
CGA:  11    -0.663021477922E+03   -0.93055E-04   -0.93051E-04   768   0.217E-03-0.697E-06
  26 F= -.66957546E+03 E0= -.66956275E+03  d E =-.210783E-01  mag=     1.1296
       N       E                     dE             d eps       ncg     rms          ort
SDA:   1    -0.662914001814E+03    0.10738E+00    0.00000E+00   768   0.285E+00 0.000E+00
CGA:   2    -0.662975002233E+03   -0.61000E-01   -0.60985E-01   768   0.181E+00 0.261E-03
CGA:   3    -0.663003657610E+03   -0.28655E-01   -0.28644E-01   768   0.963E-01-0.266E-03
CGA:   4    -0.663017845575E+03   -0.14188E-01   -0.14195E-01   768   0.253E-01 0.517E-04
CGA:   5    -0.663021778524E+03   -0.39329E-02   -0.39326E-02   768   0.925E-02-0.225E-05
CGA:   6    -0.663023344507E+03   -0.15660E-02   -0.15661E-02   768   0.424E-02 0.185E-04
CGA:   7    -0.663024106279E+03   -0.76177E-03   -0.76176E-03   768   0.223E-02 0.354E-05
CGA:   8    -0.663024514401E+03   -0.40812E-03   -0.40808E-03   768   0.112E-02 0.433E-05
CGA:   9    -0.663024725254E+03   -0.21085E-03   -0.21087E-03   768   0.508E-03-0.101E-05
CGA:  10    -0.663024811871E+03   -0.86617E-04   -0.86622E-04   768   0.224E-03 0.896E-06
  27 F= -.66957911E+03 E0= -.66956710E+03  d E =-.247247E-01  mag=     1.1150
       N       E                     dE             d eps       ncg     rms          ort
SDA:   1    -0.662802417169E+03    0.22231E+00    0.00000E+00   768   0.626E+00 0.000E+00
CGA:   2    -0.662937262192E+03   -0.13485E+00   -0.13478E+00   768   0.411E+00 0.110E-02
CGA:   3    -0.662998605339E+03   -0.61343E-01   -0.61321E-01   768   0.205E+00-0.450E-03
CGA:   4    -0.663029602718E+03   -0.30997E-01   -0.31014E-01   768   0.502E-01 0.207E-03
CGA:   5    -0.663037772658E+03   -0.81699E-02   -0.81692E-02   768   0.187E-01-0.168E-04
CGA:   6    -0.663041021686E+03   -0.32490E-02   -0.32490E-02   768   0.858E-02 0.372E-04
CGA:   7    -0.663042519245E+03   -0.14976E-02   -0.14976E-02   768   0.453E-02-0.129E-05
CGA:   8    -0.663043340243E+03   -0.82100E-03   -0.82093E-03   768   0.207E-02 0.622E-05
CGA:   9    -0.663043746023E+03   -0.40578E-03   -0.40582E-03   768   0.936E-03-0.150E-05
CGA:  10    -0.663043903437E+03   -0.15741E-03   -0.15744E-03   768   0.418E-03 0.282E-05
CGA:  11    -0.663043974068E+03   -0.70631E-04   -0.70637E-04   768   0.151E-03 0.748E-06
  28 F= -.66959859E+03 E0= -.66958710E+03  d E =-.194853E-01  mag=     1.1071
       N       E                     dE             d eps       ncg     rms          ort
SDA:   1    -0.662493152044E+03    0.55075E+00    0.00000E+00   768   0.145E+01 0.000E+00
CGA:   2    -0.662808525540E+03   -0.31537E+00   -0.31512E+00   768   0.933E+00 0.389E-02
CGA:   3    -0.662950911644E+03   -0.14239E+00   -0.14231E+00   768   0.470E+00-0.170E-02
CGA:   4    -0.663021186092E+03   -0.70274E-01   -0.70338E-01   768   0.113E+00 0.703E-03
CGA:   5    -0.663040137058E+03   -0.18951E-01   -0.18949E-01   768   0.414E-01-0.914E-04
CGA:   6    -0.663047414475E+03   -0.72774E-02   -0.72772E-02   768   0.194E-01 0.100E-03
CGA:   7    -0.663050826385E+03   -0.34119E-02   -0.34119E-02   768   0.101E-01-0.134E-04
CGA:   8    -0.663052678727E+03   -0.18523E-02   -0.18521E-02   768   0.459E-02 0.179E-04
CGA:   9    -0.663053583575E+03   -0.90485E-03   -0.90496E-03   768   0.200E-02-0.385E-05
CGA:  10    -0.663053925921E+03   -0.34235E-03   -0.34237E-03   768   0.890E-03 0.470E-05
CGA:  11    -0.663054074846E+03   -0.14893E-03   -0.14893E-03   768   0.311E-03 0.906E-06
CGA:  12    -0.663054134961E+03   -0.60115E-04   -0.60090E-04   768   0.143E-03 0.153E-05
  29 F= -.66960918E+03 E0= -.66959823E+03  d E =-.300691E-01  mag=     1.0998
       N       E                     dE             d eps       ncg     rms          ort
SDA:   1    -0.662899932564E+03    0.15414E+00    0.00000E+00   768   0.397E+00 0.000E+00
CGA:   2    -0.663010299142E+03   -0.11037E+00   -0.11029E+00   768   0.223E+00 0.673E-03
CGA:   3    -0.663043036623E+03   -0.32737E-01   -0.32748E-01   768   0.994E-01 0.319E-04
CGA:   4    -0.663056773074E+03   -0.13736E-01   -0.13743E-01   768   0.231E-01 0.320E-05
CGA:   5    -0.663060851720E+03   -0.40786E-02   -0.40786E-02   768   0.796E-02 0.424E-06
CGA:   6    -0.663062161772E+03   -0.13101E-02   -0.13101E-02   768   0.321E-02 0.232E-05
CGA:   7    -0.663062726743E+03   -0.56497E-03   -0.56497E-03   768   0.158E-02-0.359E-05
CGA:   8    -0.663063013968E+03   -0.28723E-03   -0.28723E-03   768   0.770E-03-0.867E-06
CGA:   9    -0.663063170054E+03   -0.15609E-03   -0.15609E-03   768   0.366E-03-0.356E-06
CGA:  10    -0.663063238311E+03   -0.68257E-04   -0.68238E-04   768   0.184E-03 0.238E-05
  30 F= -.66961839E+03 E0= -.66960767E+03  d E =-.921364E-02  mag=     1.1005
       N       E                     dE             d eps       ncg     rms          ort
SDA:   1    -0.663053645858E+03    0.95242E-02    0.00000E+00   768   0.244E-01 0.000E+00
CGA:   2    -0.663060295208E+03   -0.66493E-02   -0.66485E-02   768   0.144E-01 0.597E-05
CGA:   3    -0.663062311639E+03   -0.20164E-02   -0.20167E-02   768   0.615E-02-0.945E-06
CGA:   4    -0.663063207156E+03   -0.89552E-03   -0.89543E-03   768   0.142E-02-0.398E-05
CGA:   5    -0.663063444628E+03   -0.23747E-03   -0.23750E-03   768   0.527E-03 0.241E-05
CGA:   6    -0.663063538475E+03   -0.93847E-04   -0.93847E-04   768   0.205E-03 0.148E-06
  31 F= -.66961872E+03 E0= -.66960805E+03  d E =-.953916E-02  mag=     1.1009
       N       E                     dE             d eps       ncg     rms          ort
SDA:   1    -0.662971333078E+03    0.92112E-01    0.00000E+00   768   0.248E+00 0.000E+00
CGA:   2    -0.663036997246E+03   -0.65664E-01   -0.65648E-01   768   0.152E+00 0.130E-03
CGA:   3    -0.663058147646E+03   -0.21150E-01   -0.21144E-01   768   0.617E-01-0.789E-04
CGA:   4    -0.663067324259E+03   -0.91766E-02   -0.91762E-02   768   0.161E-01-0.281E-04
CGA:   5    -0.663070128120E+03   -0.28039E-02   -0.28039E-02   768   0.536E-02 0.463E-05
CGA:   6    -0.663071032837E+03   -0.90472E-03   -0.90479E-03   768   0.209E-02 0.633E-05
CGA:   7    -0.663071402561E+03   -0.36972E-03   -0.36972E-03   768   0.109E-02-0.721E-07
CGA:   8    -0.663071604734E+03   -0.20217E-03   -0.20218E-03   768   0.540E-03-0.311E-06
CGA:   9    -0.663071715637E+03   -0.11090E-03   -0.11094E-03   768   0.248E-03-0.145E-05
CGA:  10    -0.663071763186E+03   -0.47549E-04   -0.47540E-04   768   0.130E-03 0.756E-06
  32 F= -.66962738E+03 E0= -.66961681E+03  d E =-.866175E-02  mag=     1.0980
       N       E                     dE             d eps       ncg     rms          ort
SDA:   1    -0.662960490493E+03    0.11123E+00    0.00000E+00   768   0.281E+00 0.000E+00
CGA:   2    -0.663035329004E+03   -0.74839E-01   -0.74822E-01   768   0.169E+00 0.136E-03
CGA:   3    -0.663059294985E+03   -0.23966E-01   -0.23955E-01   768   0.692E-01-0.108E-03
CGA:   4    -0.663069477750E+03   -0.10183E-01   -0.10183E-01   768   0.177E-01-0.306E-04
CGA:   5    -0.663072526253E+03   -0.30485E-02   -0.30485E-02   768   0.595E-02 0.362E-05
CGA:   6    -0.663073540115E+03   -0.10139E-02   -0.10139E-02   768   0.230E-02 0.697E-05
CGA:   7    -0.663073949109E+03   -0.40899E-03   -0.40899E-03   768   0.120E-02-0.223E-06
CGA:   8    -0.663074170646E+03   -0.22154E-03   -0.22154E-03   768   0.592E-03-0.383E-06
CGA:   9    -0.663074292295E+03   -0.12165E-03   -0.12169E-03   768   0.274E-03-0.156E-05
CGA:  10    -0.663074345543E+03   -0.53247E-04   -0.53236E-04   768   0.145E-03 0.765E-06
  33 F= -.66963041E+03 E0= -.66961994E+03  d E =-.116993E-01  mag=     1.0949
       N       E                     dE             d eps       ncg     rms          ort
SDA:   1    -0.662926800205E+03    0.14749E+00    0.00000E+00   768   0.412E+00 0.000E+00
CGA:   2    -0.663022471980E+03   -0.95672E-01   -0.95644E-01   768   0.241E+00 0.345E-03
CGA:   3    -0.663060462977E+03   -0.37991E-01   -0.37970E-01   768   0.102E+00-0.379E-03
CGA:   4    -0.663075802586E+03   -0.15340E-01   -0.15343E-01   768   0.283E-01-0.125E-04
CGA:   5    -0.663080741351E+03   -0.49388E-02   -0.49385E-02   768   0.101E-01-0.217E-04
CGA:   6    -0.663082541234E+03   -0.17999E-02   -0.17999E-02   768   0.427E-02 0.567E-05
CGA:   7    -0.663083293767E+03   -0.75253E-03   -0.75250E-03   768   0.234E-02-0.500E-05
CGA:   8    -0.663083718218E+03   -0.42445E-03   -0.42445E-03   768   0.107E-02-0.393E-06
CGA:   9    -0.663083934958E+03   -0.21674E-03   -0.21680E-03   768   0.426E-03-0.250E-05
CGA:  10    -0.663084017654E+03   -0.82696E-04   -0.82684E-04   768   0.209E-03 0.893E-06
  34 F= -.66964047E+03 E0= -.66963004E+03  d E =-.100591E-01  mag=     1.0921
       N       E                     dE             d eps       ncg     rms          ort
SDA:   1    -0.661929028646E+03    0.11549E+01    0.00000E+00   768   0.305E+01 0.000E+00
CGA:   2    -0.662637351251E+03   -0.70832E+00   -0.70774E+00   768   0.178E+01 0.700E-02
CGA:   3    -0.662920308528E+03   -0.28296E+00   -0.28255E+00   768   0.755E+00-0.762E-02
CGA:   4    -0.663033435623E+03   -0.11313E+00   -0.11320E+00   768   0.208E+00-0.742E-04
CGA:   5    -0.663070358961E+03   -0.36923E-01   -0.36920E-01   768   0.728E-01-0.590E-03
CGA:   6    -0.663083534002E+03   -0.13175E-01   -0.13175E-01   768   0.300E-01 0.769E-04
CGA:   7    -0.663089006456E+03   -0.54725E-02   -0.54727E-02   768   0.168E-01-0.778E-04
CGA:   8    -0.663091964427E+03   -0.29580E-02   -0.29581E-02   768   0.783E-02 0.165E-04
CGA:   9    -0.663093529131E+03   -0.15647E-02   -0.15651E-02   768   0.296E-02-0.157E-04
CGA:  10    -0.663094132951E+03   -0.60382E-03   -0.60369E-03   768   0.140E-02 0.453E-05
CGA:  11    -0.663094352387E+03   -0.21944E-03   -0.21941E-03   768   0.556E-03-0.783E-06
CGA:  12    -0.663094457053E+03   -0.10467E-03   -0.10465E-03   768   0.203E-03 0.168E-05
CGA:  13    -0.663094500818E+03   -0.43764E-04   -0.43761E-04   768   0.115E-03 0.663E-07
  35 F= -.66965198E+03 E0= -.66964159E+03  d E =-.215614E-01  mag=     1.0863
       N       E                     dE             d eps       ncg     rms          ort
SDA:   1    -0.662825265702E+03    0.26919E+00    0.00000E+00   768   0.708E+00 0.000E+00
CGA:   2    -0.663005923036E+03   -0.18066E+00   -0.18060E+00   768   0.393E+00 0.620E-03
CGA:   3    -0.663066673248E+03   -0.60750E-01   -0.60747E-01   768   0.157E+00-0.955E-04
CGA:   4    -0.663090070080E+03   -0.23397E-01   -0.23396E-01   768   0.422E-01-0.191E-04
CGA:   5    -0.663097614926E+03   -0.75448E-02   -0.75449E-02   768   0.135E-01 0.829E-05
CGA:   6    -0.663100151999E+03   -0.25371E-02   -0.25371E-02   768   0.503E-02-0.859E-05
CGA:   7    -0.663101233058E+03   -0.10811E-02   -0.10811E-02   768   0.261E-02-0.179E-05
CGA:   8    -0.663101715181E+03   -0.48212E-03   -0.48212E-03   768   0.155E-02-0.515E-05
CGA:   9    -0.663101966753E+03   -0.25157E-03   -0.25161E-03   768   0.604E-03 0.945E-06
CGA:  10    -0.663102099798E+03   -0.13305E-03   -0.13303E-03   768   0.212E-03 0.600E-06
CGA:  11    -0.663102145088E+03   -0.45290E-04   -0.45251E-04   768   0.103E-03 0.139E-05
  36 F= -.66965986E+03 E0= -.66964954E+03  d E =-.788022E-02  mag=     1.0893
       N       E                     dE             d eps       ncg     rms          ort
SDA:   1    -0.663088099203E+03    0.14001E-01    0.00000E+00   768   0.366E-01 0.000E+00
CGA:   2    -0.663097392226E+03   -0.92930E-02   -0.92924E-02   768   0.207E-01 0.481E-05
CGA:   3    -0.663100524988E+03   -0.31328E-02   -0.31322E-02   768   0.827E-02-0.851E-05
CGA:   4    -0.663101757844E+03   -0.12329E-02   -0.12329E-02   768   0.224E-02-0.826E-06
CGA:   5    -0.663102153743E+03   -0.39590E-03   -0.39591E-03   768   0.681E-03 0.102E-05
CGA:   6    -0.663102288525E+03   -0.13478E-03   -0.13480E-03   768   0.275E-03-0.103E-05
CGA:   7    -0.663102344844E+03   -0.56319E-04   -0.56346E-04   768   0.155E-03-0.131E-05
  37 F= -.66966011E+03 E0= -.66964980E+03  d E =-.813260E-02  mag=     1.0899
       N       E                     dE             d eps       ncg     rms          ort
SDA:   1    -0.662983142360E+03    0.11915E+00    0.00000E+00   768   0.305E+00 0.000E+00
CGA:   2    -0.663072325958E+03   -0.89184E-01   -0.89183E-01   768   0.140E+00-0.165E-04
CGA:   3    -0.663095451734E+03   -0.23126E-01   -0.23120E-01   768   0.609E-01-0.100E-03
CGA:   4    -0.663103703836E+03   -0.82521E-02   -0.82566E-02   768   0.163E-01-0.197E-06
CGA:   5    -0.663106545734E+03   -0.28419E-02   -0.28419E-02   768   0.497E-02 0.456E-05
CGA:   6    -0.663107416920E+03   -0.87119E-03   -0.87123E-03   768   0.214E-02 0.261E-05
CGA:   7    -0.663107796117E+03   -0.37920E-03   -0.37918E-03   768   0.107E-02-0.165E-05
CGA:   8    -0.663107994479E+03   -0.19836E-03   -0.19836E-03   768   0.534E-03 0.173E-06
CGA:   9    -0.663108105491E+03   -0.11101E-03   -0.11101E-03   768   0.245E-03 0.278E-06
CGA:  10    -0.663108154338E+03   -0.48847E-04   -0.48827E-04   768   0.122E-03 0.159E-05
  38 F= -.66966621E+03 E0= -.66965598E+03  d E =-.609932E-02  mag=     1.0894
       N       E                     dE             d eps       ncg     rms          ort
SDA:   1    -0.663030494895E+03    0.77611E-01    0.00000E+00   768   0.193E+00 0.000E+00
CGA:   2    -0.663086587144E+03   -0.56092E-01   -0.56090E-01   768   0.913E-01 0.560E-05
CGA:   3    -0.663101125972E+03   -0.14539E-01   -0.14534E-01   768   0.408E-01-0.560E-04
CGA:   4    -0.663106685783E+03   -0.55598E-02   -0.55615E-02   768   0.103E-01-0.417E-05
CGA:   5    -0.663108450898E+03   -0.17651E-02   -0.17651E-02   768   0.332E-02 0.556E-05
CGA:   6    -0.663109028387E+03   -0.57749E-03   -0.57752E-03   768   0.133E-02 0.185E-05
CGA:   7    -0.663109274127E+03   -0.24574E-03   -0.24574E-03   768   0.682E-03-0.127E-05
CGA:   8    -0.663109398930E+03   -0.12480E-03   -0.12480E-03   768   0.343E-03 0.390E-07
CGA:   9    -0.663109469505E+03   -0.70575E-04   -0.70571E-04   768   0.162E-03 0.225E-06
  39 F= -.66966775E+03 E0= -.66965759E+03  d E =-.764062E-02  mag=     1.0889
       N       E                     dE             d eps       ncg     rms          ort
SDA:   1    -0.663015724896E+03    0.93674E-01    0.00000E+00   768   0.248E+00 0.000E+00
CGA:   2    -0.663082025380E+03   -0.66300E-01   -0.66298E-01   768   0.129E+00 0.108E-04
CGA:   3    -0.663102635678E+03   -0.20610E-01   -0.20605E-01   768   0.550E-01-0.647E-04
CGA:   4    -0.663110580099E+03   -0.79444E-02   -0.79468E-02   768   0.141E-01 0.622E-05
CGA:   5    -0.663113116031E+03   -0.25359E-02   -0.25359E-02   768   0.479E-02 0.746E-06
CGA:   6    -0.663114006604E+03   -0.89057E-03   -0.89058E-03   768   0.204E-02 0.184E-05
CGA:   7    -0.663114401629E+03   -0.39503E-03   -0.39504E-03   768   0.113E-02-0.150E-05
CGA:   8    -0.663114591528E+03   -0.18990E-03   -0.18992E-03   768   0.568E-03 0.854E-06
CGA:   9    -0.663114704753E+03   -0.11323E-03   -0.11322E-03   768   0.219E-03 0.321E-06
CGA:  10    -0.663114751173E+03   -0.46421E-04   -0.46387E-04   768   0.909E-04 0.137E-05
  40 F= -.66967311E+03 E0= -.66966295E+03  d E =-.536534E-02  mag=     1.0885
       N       E                     dE             d eps       ncg     rms          ort
SDA:   1    -0.662821393024E+03    0.29331E+00    0.00000E+00   768   0.744E+00 0.000E+00
CGA:   2    -0.663019653873E+03   -0.19826E+00   -0.19823E+00   768   0.392E+00 0.230E-03
CGA:   3    -0.663081439688E+03   -0.61786E-01   -0.61738E-01   768   0.168E+00-0.497E-03
CGA:   4    -0.663105405864E+03   -0.23966E-01   -0.23984E-01   768   0.441E-01 0.304E-04
CGA:   5    -0.663113138662E+03   -0.77328E-02   -0.77320E-02   768   0.147E-01-0.274E-04
CGA:   6    -0.663115805877E+03   -0.26672E-02   -0.26673E-02   768   0.642E-02 0.871E-05
CGA:   7    -0.663116989277E+03   -0.11834E-02   -0.11834E-02   768   0.342E-02-0.539E-05
CGA:   8    -0.663117593870E+03   -0.60459E-03   -0.60463E-03   768   0.164E-02 0.272E-05
CGA:   9    -0.663117933421E+03   -0.33955E-03   -0.33956E-03   768   0.675E-03 0.512E-07
CGA:  10    -0.663118067729E+03   -0.13431E-03   -0.13428E-03   768   0.306E-03 0.246E-05
CGA:  11    -0.663118118029E+03   -0.50301E-04   -0.50300E-04   768   0.129E-03-0.106E-07
  41 F= -.66967662E+03 E0= -.66966644E+03  d E =-.887467E-02  mag=     1.0874
       N       E                     dE             d eps       ncg     rms          ort
SDA:   1    -0.663052574036E+03    0.65494E-01    0.00000E+00   768   0.179E+00 0.000E+00
CGA:   2    -0.663096787119E+03   -0.44213E-01   -0.44211E-01   768   0.985E-01 0.206E-04
CGA:   3    -0.663112083897E+03   -0.15297E-01   -0.15299E-01   768   0.426E-01 0.156E-04
CGA:   4    -0.663118406065E+03   -0.63222E-02   -0.63218E-02   768   0.112E-01 0.354E-05
CGA:   5    -0.663120390291E+03   -0.19842E-02   -0.19843E-02   768   0.371E-02 0.328E-05
CGA:   6    -0.663121122854E+03   -0.73256E-03   -0.73263E-03   768   0.164E-02-0.407E-05
CGA:   7    -0.663121450773E+03   -0.32792E-03   -0.32793E-03   768   0.910E-03-0.103E-05
CGA:   8    -0.663121604614E+03   -0.15384E-03   -0.15382E-03   768   0.470E-03-0.732E-06
CGA:   9    -0.663121690283E+03   -0.85668E-04   -0.85673E-04   768   0.169E-03 0.134E-05
  42 F= -.66968011E+03 E0= -.66966992E+03  d E =-.348459E-02  mag=     1.0895
       N       E                     dE             d eps       ncg     rms          ort
SDA:   1    -0.662862612335E+03    0.25899E+00    0.00000E+00   768   0.676E+00 0.000E+00
CGA:   2    -0.663029930414E+03   -0.16732E+00   -0.16729E+00   768   0.371E+00 0.361E-03
CGA:   3    -0.663088152021E+03   -0.58222E-01   -0.58222E-01   768   0.160E+00-0.299E-04
CGA:   4    -0.663111974510E+03   -0.23822E-01   -0.23824E-01   768   0.414E-01 0.523E-05
CGA:   5    -0.663119394087E+03   -0.74196E-02   -0.74196E-02   768   0.143E-01 0.264E-05
CGA:   6    -0.663122210972E+03   -0.28169E-02   -0.28171E-02   768   0.582E-02-0.110E-04
CGA:   7    -0.663123519527E+03   -0.13086E-02   -0.13085E-02   768   0.275E-02 0.296E-07
CGA:   8    -0.663124089279E+03   -0.56975E-03   -0.56982E-03   768   0.154E-02-0.239E-05
CGA:   9    -0.663124329434E+03   -0.24015E-03   -0.24026E-03   768   0.678E-03 0.251E-05
CGA:  10    -0.663124452409E+03   -0.12298E-03   -0.12298E-03   768   0.203E-03 0.790E-06
CGA:  11    -0.663124498053E+03   -0.45644E-04   -0.45598E-04   768   0.746E-04 0.121E-05
  43 F= -.66968275E+03 E0= -.66967255E+03  d E =-.612794E-02  mag=     1.0937
       N       E                     dE             d eps       ncg     rms          ort
SDA:   1    -0.663001768001E+03    0.12268E+00    0.00000E+00   768   0.344E+00 0.000E+00
CGA:   2    -0.663075828726E+03   -0.74061E-01   -0.74060E-01   768   0.197E+00-0.129E-04
CGA:   3    -0.663107249951E+03   -0.31421E-01   -0.31421E-01   768   0.897E-01-0.205E-04
CGA:   4    -0.663121207747E+03   -0.13958E-01   -0.13957E-01   768   0.253E-01-0.521E-05
CGA:   5    -0.663125812143E+03   -0.46044E-02   -0.46044E-02   768   0.880E-02 0.335E-05
CGA:   6    -0.663127582130E+03   -0.17700E-02   -0.17702E-02   768   0.396E-02-0.974E-05
CGA:   7    -0.663128423854E+03   -0.84172E-03   -0.84165E-03   768   0.207E-02 0.108E-05
CGA:   8    -0.663128780267E+03   -0.35641E-03   -0.35637E-03   768   0.111E-02-0.129E-05
CGA:   9    -0.663128961478E+03   -0.18121E-03   -0.18126E-03   768   0.370E-03 0.155E-05
CGA:  10    -0.663129037561E+03   -0.76083E-04   -0.76083E-04   768   0.117E-03 0.126E-07
  44 F= -.66968721E+03 E0= -.66967703E+03  d E =-.445556E-02  mag=     1.0947
       N       E                     dE             d eps       ncg     rms          ort
SDA:   1    -0.662531644340E+03    0.59732E+00    0.00000E+00   768   0.162E+01 0.000E+00
CGA:   2    -0.662881785201E+03   -0.35014E+00   -0.35014E+00   768   0.929E+00-0.193E-03
CGA:   3    -0.663030257509E+03   -0.14847E+00   -0.14850E+00   768   0.423E+00 0.733E-04
CGA:   4    -0.663096063053E+03   -0.65806E-01   -0.65792E-01   768   0.120E+00-0.178E-03
CGA:   5    -0.663117741457E+03   -0.21678E-01   -0.21679E-01   768   0.424E-01 0.420E-04
CGA:   6    -0.663126135084E+03   -0.83936E-02   -0.83952E-02   768   0.192E-01-0.855E-04
CGA:   7    -0.663130052105E+03   -0.39170E-02   -0.39163E-02   768   0.105E-01 0.224E-04
CGA:   8    -0.663131791577E+03   -0.17395E-02   -0.17388E-02   768   0.519E-02-0.119E-04
CGA:   9    -0.663132713857E+03   -0.92228E-03   -0.92237E-03   768   0.172E-02 0.627E-05
CGA:  10    -0.663133071199E+03   -0.35734E-03   -0.35737E-03   768   0.581E-03-0.931E-06
CGA:  11    -0.663133178650E+03   -0.10745E-03   -0.10745E-03   768   0.293E-03 0.127E-05
CGA:  12    -0.663133223037E+03   -0.44388E-04   -0.44377E-04   768   0.105E-03-0.321E-06
  45 F= -.66969122E+03 E0= -.66968108E+03  d E =-.847039E-02  mag=     1.0971
       N       E                     dE             d eps       ncg     rms          ort
SDA:   1    -0.662987738894E+03    0.14544E+00    0.00000E+00   768   0.422E+00 0.000E+00
CGA:   2    -0.663068945333E+03   -0.81206E-01   -0.81207E-01   768   0.235E+00-0.131E-03
CGA:   3    -0.663107767177E+03   -0.38822E-01   -0.38831E-01   768   0.116E+00 0.160E-03
CGA:   4    -0.663126346289E+03   -0.18579E-01   -0.18575E-01   768   0.349E-01-0.409E-04
CGA:   5    -0.663132708845E+03   -0.63626E-02   -0.63627E-02   768   0.128E-01 0.220E-04
CGA:   6    -0.663135159564E+03   -0.24507E-02   -0.24509E-02   768   0.615E-02-0.210E-04
CGA:   7    -0.663136324925E+03   -0.11654E-02   -0.11653E-02   768   0.344E-02 0.199E-05
CGA:   8    -0.663136891323E+03   -0.56640E-03   -0.56626E-03   768   0.144E-02-0.328E-05
CGA:   9    -0.663137166832E+03   -0.27551E-03   -0.27549E-03   768   0.472E-03 0.174E-05
CGA:  10    -0.663137260208E+03   -0.93377E-04   -0.93383E-04   768   0.183E-03-0.442E-06
  46 F= -.66969526E+03 E0= -.66968512E+03  d E =-.403405E-02  mag=     1.0962
       N       E                     dE             d eps       ncg     rms          ort
SDA:   1    -0.662639343387E+03    0.49782E+00    0.00000E+00   768   0.142E+01 0.000E+00
CGA:   2    -0.662911646727E+03   -0.27230E+00   -0.27231E+00   768   0.784E+00-0.657E-03
CGA:   3    -0.663041789676E+03   -0.13014E+00   -0.13018E+00   768   0.386E+00 0.716E-03
CGA:   4    -0.663103767102E+03   -0.61977E-01   -0.61958E-01   768   0.117E+00-0.337E-03
CGA:   5    -0.663124899645E+03   -0.21133E-01   -0.21133E-01   768   0.433E-01 0.107E-03
CGA:   6    -0.663133287099E+03   -0.83875E-02   -0.83895E-02   768   0.205E-01-0.116E-03
CGA:   7    -0.663137185826E+03   -0.38987E-02   -0.38984E-02   768   0.114E-01 0.238E-04
CGA:   8    -0.663139050137E+03   -0.18643E-02   -0.18636E-02   768   0.482E-02-0.155E-04
CGA:   9    -0.663139960527E+03   -0.91039E-03   -0.91033E-03   768   0.157E-02 0.599E-05
CGA:  10    -0.663140272847E+03   -0.31232E-03   -0.31235E-03   768   0.585E-03-0.156E-05
CGA:  11    -0.663140367897E+03   -0.95049E-04   -0.95072E-04   768   0.269E-03 0.101E-05
  47 F= -.66969836E+03 E0= -.66968823E+03  d E =-.713844E-02  mag=     1.0946
       N       E                     dE             d eps       ncg     rms          ort
SDA:   1    -0.662966317383E+03    0.17396E+00    0.00000E+00   768   0.490E+00 0.000E+00
CGA:   2    -0.663066740841E+03   -0.10042E+00   -0.10043E+00   768   0.287E+00-0.207E-03
CGA:   3    -0.663112129159E+03   -0.45388E-01   -0.45410E-01   768   0.129E+00 0.338E-03
CGA:   4    -0.663132386180E+03   -0.20257E-01   -0.20252E-01   768   0.381E-01-0.479E-04
CGA:   5    -0.663139110516E+03   -0.67243E-02   -0.67246E-02   768   0.135E-01 0.277E-04
CGA:   6    -0.663141700429E+03   -0.25899E-02   -0.25904E-02   768   0.672E-02-0.268E-04
CGA:   7    -0.663142931522E+03   -0.12311E-02   -0.12311E-02   768   0.369E-02-0.811E-06
CGA:   8    -0.663143568084E+03   -0.63656E-03   -0.63648E-03   768   0.154E-02-0.576E-05
CGA:   9    -0.663143870204E+03   -0.30212E-03   -0.30208E-03   768   0.544E-03 0.212E-05
CGA:  10    -0.663143975065E+03   -0.10486E-03   -0.10486E-03   768   0.228E-03 0.879E-07
CGA:  11    -0.663144010634E+03   -0.35569E-04   -0.35595E-04   768   0.940E-04 0.989E-06
  48 F= -.66970196E+03 E0= -.66969182E+03  d E =-.359846E-02  mag=     1.0960
       N       E                     dE             d eps       ncg     rms          ort
SDA:   1    -0.663093528617E+03    0.50446E-01    0.00000E+00   768   0.140E+00 0.000E+00
CGA:   2    -0.663122367203E+03   -0.28839E-01   -0.28840E-01   768   0.823E-01-0.436E-04
CGA:   3    -0.663135376908E+03   -0.13010E-01   -0.13013E-01   768   0.370E-01 0.480E-04
CGA:   4    -0.663141186500E+03   -0.58096E-02   -0.58090E-02   768   0.109E-01-0.167E-05
CGA:   5    -0.663143117175E+03   -0.19307E-02   -0.19307E-02   768   0.387E-02 0.346E-05
CGA:   6    -0.663143861198E+03   -0.74402E-03   -0.74414E-03   768   0.193E-02-0.740E-05
CGA:   7    -0.663144215303E+03   -0.35411E-03   -0.35411E-03   768   0.107E-02-0.245E-05
CGA:   8    -0.663144398700E+03   -0.18340E-03   -0.18338E-03   768   0.445E-03-0.184E-05
CGA:   9    -0.663144486006E+03   -0.87306E-04   -0.87292E-04   768   0.157E-03 0.791E-06
  49 F= -.66970241E+03 E0= -.66969226E+03  d E =-.405010E-02  mag=     1.0968
       N       E                     dE             d eps       ncg     rms          ort
SDA:   1    -0.663038551523E+03    0.10585E+00    0.00000E+00   768   0.283E+00 0.000E+00
CGA:   2    -0.663106948961E+03   -0.68397E-01   -0.68405E-01   768   0.164E+00-0.969E-04
CGA:   3    -0.663132060949E+03   -0.25112E-01   -0.25121E-01   768   0.665E-01 0.927E-04
CGA:   4    -0.663142154631E+03   -0.10094E-01   -0.10092E-01   768   0.187E-01-0.557E-05
CGA:   5    -0.663145374777E+03   -0.32201E-02   -0.32203E-02   768   0.624E-02 0.791E-05
CGA:   6    -0.663146516235E+03   -0.11415E-02   -0.11415E-02   768   0.300E-02-0.853E-05
CGA:   7    -0.663147064632E+03   -0.54840E-03   -0.54840E-03   768   0.158E-02-0.303E-05
CGA:   8    -0.663147338770E+03   -0.27414E-03   -0.27411E-03   768   0.694E-03-0.305E-05
CGA:   9    -0.663147483030E+03   -0.14426E-03   -0.14424E-03   768   0.275E-03 0.764E-06
CGA:  10    -0.663147535674E+03   -0.52643E-04   -0.52644E-04   768   0.124E-03-0.764E-07
  50 F= -.66970558E+03 E0= -.66969542E+03  d E =-.316843E-02  mag=     1.0961
       N       E                     dE             d eps       ncg     rms          ort
SDA:   1    -0.662597444957E+03    0.55004E+00    0.00000E+00   768   0.144E+01 0.000E+00
CGA:   2    -0.662944089982E+03   -0.34665E+00   -0.34675E+00   768   0.837E+00-0.124E-02
CGA:   3    -0.663070920517E+03   -0.12683E+00   -0.12697E+00   768   0.339E+00 0.146E-02
CGA:   4    -0.663122419601E+03   -0.51499E-01   -0.51470E-01   768   0.980E-01-0.154E-03
CGA:   5    -0.663139008980E+03   -0.16589E-01   -0.16592E-01   768   0.320E-01 0.107E-03
CGA:   6    -0.663144809334E+03   -0.58004E-02   -0.58004E-02   768   0.155E-01-0.598E-04
CGA:   7    -0.663147617009E+03   -0.28077E-02   -0.28077E-02   768   0.790E-02 0.226E-05
CGA:   8    -0.663149024575E+03   -0.14076E-02   -0.14075E-02   768   0.349E-02-0.142E-04
CGA:   9    -0.663149745497E+03   -0.72092E-03   -0.72077E-03   768   0.143E-02 0.441E-05
CGA:  10    -0.663150009272E+03   -0.26378E-03   -0.26378E-03   768   0.638E-03-0.772E-06
CGA:  11    -0.663150112588E+03   -0.10332E-03   -0.10334E-03   768   0.241E-03 0.135E-05
CGA:  12    -0.663150159527E+03   -0.46939E-04   -0.46944E-04   768   0.908E-04-0.346E-06
  51 F= -.66970846E+03 E0= -.66969827E+03  d E =-.604620E-02  mag=     1.0946
       N       E                     dE             d eps       ncg     rms          ort
SDA:   1    -0.662959629133E+03    0.19048E+00    0.00000E+00   768   0.495E+00 0.000E+00
CGA:   2    -0.663090782945E+03   -0.13115E+00   -0.13117E+00   768   0.250E+00-0.190E-03
CGA:   3    -0.663130955273E+03   -0.40172E-01   -0.40178E-01   768   0.104E+00 0.653E-04
CGA:   4    -0.663146057509E+03   -0.15102E-01   -0.15100E-01   768   0.282E-01-0.100E-05
CGA:   5    -0.663150870626E+03   -0.48131E-02   -0.48133E-02   768   0.811E-02 0.887E-05
CGA:   6    -0.663152456402E+03   -0.15858E-02   -0.15859E-02   768   0.383E-02-0.794E-05
CGA:   7    -0.663153167799E+03   -0.71140E-03   -0.71140E-03   768   0.194E-02-0.285E-05
CGA:   8    -0.663153492086E+03   -0.32429E-03   -0.32422E-03   768   0.991E-03-0.300E-05
CGA:   9    -0.663153688207E+03   -0.19612E-03   -0.19610E-03   768   0.377E-03 0.994E-06
CGA:  10    -0.663153770553E+03   -0.82346E-04   -0.82340E-04   768   0.161E-03 0.210E-06
  52 F= -.66971233E+03 E0= -.66970212E+03  d E =-.387494E-02  mag=     1.0940
       N       E                     dE             d eps       ncg     rms          ort
SDA:   1    -0.662847266751E+03    0.30642E+00    0.00000E+00   768   0.785E+00 0.000E+00
CGA:   2    -0.663055358408E+03   -0.20809E+00   -0.20812E+00   768   0.396E+00-0.378E-03
CGA:   3    -0.663119163689E+03   -0.63805E-01   -0.63818E-01   768   0.164E+00 0.138E-03
CGA:   4    -0.663142956739E+03   -0.23793E-01   -0.23788E-01   768   0.447E-01-0.223E-05
CGA:   5    -0.663150466770E+03   -0.75100E-02   -0.75106E-02   768   0.132E-01 0.152E-04
CGA:   6    -0.663153041652E+03   -0.25749E-02   -0.25751E-02   768   0.609E-02-0.137E-04
CGA:   7    -0.663154188427E+03   -0.11468E-02   -0.11468E-02   768   0.312E-02-0.272E-05
CGA:   8    -0.663154703344E+03   -0.51492E-03   -0.51480E-03   768   0.158E-02-0.401E-05
CGA:   9    -0.663155016343E+03   -0.31300E-03   -0.31297E-03   768   0.605E-03 0.159E-05
CGA:  10    -0.663155147897E+03   -0.13155E-03   -0.13155E-03   768   0.255E-03 0.196E-06
CGA:  11    -0.663155191963E+03   -0.44065E-04   -0.44076E-04   768   0.130E-03 0.784E-06
  53 F= -.66971408E+03 E0= -.66970385E+03  d E =-.562438E-02  mag=     1.0933
       N       E                     dE             d eps       ncg     rms          ort
SDA:   1    -0.663025414473E+03    0.12973E+00    0.00000E+00   768   0.339E+00 0.000E+00
CGA:   2    -0.663117029401E+03   -0.91615E-01   -0.91590E-01   768   0.161E+00 0.223E-03
CGA:   3    -0.663143536847E+03   -0.26507E-01   -0.26506E-01   768   0.688E-01-0.397E-04
CGA:   4    -0.663153284624E+03   -0.97478E-02   -0.97490E-02   768   0.178E-01 0.194E-05
CGA:   5    -0.663156295350E+03   -0.30107E-02   -0.30107E-02   768   0.503E-02-0.153E-05
CGA:   6    -0.663157329863E+03   -0.10345E-02   -0.10346E-02   768   0.209E-02-0.445E-05
CGA:   7    -0.663157782848E+03   -0.45299E-03   -0.45313E-03   768   0.870E-03-0.431E-05
CGA:   8    -0.663157984883E+03   -0.20203E-03   -0.20206E-03   768   0.444E-03-0.756E-06
CGA:   9    -0.663158064537E+03   -0.79654E-04   -0.79654E-04   768   0.263E-03 0.922E-07
  54 F= -.66971713E+03 E0= -.66970689E+03  d E =-.304713E-02  mag=     1.0948
       N       E                     dE             d eps       ncg     rms          ort
SDA:   1    -0.662880805803E+03    0.27718E+00    0.00000E+00   768   0.714E+00 0.000E+00
CGA:   2    -0.663073247051E+03   -0.19244E+00   -0.19237E+00   768   0.337E+00 0.636E-03
CGA:   3    -0.663129117018E+03   -0.55870E-01   -0.55875E-01   768   0.143E+00 0.363E-04
CGA:   4    -0.663149487125E+03   -0.20370E-01   -0.20369E-01   768   0.366E-01 0.183E-05
CGA:   5    -0.663155681203E+03   -0.61941E-02   -0.61943E-02   768   0.111E-01 0.377E-05
CGA:   6    -0.663157868356E+03   -0.21872E-02   -0.21873E-02   768   0.465E-02-0.981E-05
CGA:   7    -0.663158829017E+03   -0.96066E-03   -0.96070E-03   768   0.218E-02-0.342E-05
CGA:   8    -0.663159221031E+03   -0.39201E-03   -0.39198E-03   768   0.132E-02-0.313E-05
CGA:   9    -0.663159438438E+03   -0.21741E-03   -0.21744E-03   768   0.513E-03 0.127E-05
CGA:  10    -0.663159549318E+03   -0.11088E-03   -0.11086E-03   768   0.177E-03 0.625E-06
CGA:  11    -0.663159586902E+03   -0.37584E-04   -0.37562E-04   768   0.887E-04 0.869E-06
  55 F= -.66971890E+03 E0= -.66970866E+03  d E =-.482332E-02  mag=     1.0971
       N       E                     dE             d eps       ncg     rms          ort
SDA:   1    -0.663048281619E+03    0.11127E+00    0.00000E+00   768   0.298E+00 0.000E+00
CGA:   2    -0.663124913079E+03   -0.76631E-01   -0.76621E-01   768   0.150E+00 0.888E-04
CGA:   3    -0.663148260901E+03   -0.23348E-01   -0.23335E-01   768   0.666E-01-0.145E-03
CGA:   4    -0.663157863930E+03   -0.96030E-02   -0.96061E-02   768   0.172E-01-0.756E-05
CGA:   5    -0.663160763730E+03   -0.28998E-02   -0.28995E-02   768   0.525E-02-0.586E-05
CGA:   6    -0.663161728256E+03   -0.96453E-03   -0.96453E-03   768   0.254E-02-0.271E-06
CGA:   7    -0.663162174990E+03   -0.44673E-03   -0.44670E-03   768   0.123E-02-0.230E-05
CGA:   8    -0.663162394918E+03   -0.21993E-03   -0.21993E-03   768   0.575E-03-0.577E-07
CGA:   9    -0.663162513889E+03   -0.11897E-03   -0.11899E-03   768   0.249E-03-0.637E-06
CGA:  10    -0.663162561456E+03   -0.47567E-04   -0.47562E-04   768   0.119E-03 0.925E-06
  56 F= -.66972215E+03 E0= -.66971193E+03  d E =-.324900E-02  mag=     1.0968
       N       E                     dE             d eps       ncg     rms          ort
SDA:   1    -0.662412144669E+03    0.75037E+00    0.00000E+00   768   0.196E+01 0.000E+00
CGA:   2    -0.662917532552E+03   -0.50539E+00   -0.50521E+00   768   0.982E+00 0.142E-02
CGA:   3    -0.663072147809E+03   -0.15462E+00   -0.15443E+00   768   0.434E+00-0.236E-02
CGA:   4    -0.663134415988E+03   -0.62268E-01   -0.62326E-01   768   0.112E+00 0.228E-04
CGA:   5    -0.663153366188E+03   -0.18950E-01   -0.18944E-01   768   0.353E-01-0.171E-03
CGA:   6    -0.663159748187E+03   -0.63820E-02   -0.63821E-02   768   0.166E-01 0.129E-04
CGA:   7    -0.663162696346E+03   -0.29482E-02   -0.29479E-02   768   0.808E-02-0.198E-04
CGA:   8    -0.663164124347E+03   -0.14280E-02   -0.14280E-02   768   0.373E-02 0.357E-05
CGA:   9    -0.663164901261E+03   -0.77691E-03   -0.77706E-03   768   0.162E-02-0.419E-05
CGA:  10    -0.663165208319E+03   -0.30706E-03   -0.30704E-03   768   0.774E-03 0.289E-05
CGA:  11    -0.663165334804E+03   -0.12648E-03   -0.12648E-03   768   0.294E-03-0.101E-06
CGA:  12    -0.663165391994E+03   -0.57190E-04   -0.57179E-04   768   0.115E-03 0.106E-05
  57 F= -.66972569E+03 E0= -.66971550E+03  d E =-.678093E-02  mag=     1.0956
       N       E                     dE             d eps       ncg     rms          ort
SDA:   1    -0.662901694964E+03    0.26364E+00    0.00000E+00   768   0.721E+00 0.000E+00
CGA:   2    -0.663071810536E+03   -0.17012E+00   -0.17008E+00   768   0.383E+00 0.457E-03
CGA:   3    -0.663130447617E+03   -0.58637E-01   -0.58580E-01   768   0.167E+00-0.663E-03
CGA:   4    -0.663155802766E+03   -0.25355E-01   -0.25365E-01   768   0.458E-01 0.197E-05
CGA:   5    -0.663163642444E+03   -0.78397E-02   -0.78384E-02   768   0.145E-01-0.505E-04
CGA:   6    -0.663166313374E+03   -0.26709E-02   -0.26709E-02   768   0.711E-02 0.442E-05
CGA:   7    -0.663167591443E+03   -0.12781E-02   -0.12780E-02   768   0.366E-02-0.739E-05
CGA:   8    -0.663168222995E+03   -0.63155E-03   -0.63158E-03   768   0.164E-02 0.184E-05
CGA:   9    -0.663168562648E+03   -0.33965E-03   -0.33971E-03   768   0.663E-03-0.180E-05
CGA:  10    -0.663168689571E+03   -0.12692E-03   -0.12691E-03   768   0.312E-03 0.133E-05
CGA:  11    -0.663168739094E+03   -0.49522E-04   -0.49517E-04   768   0.120E-03-0.166E-06
  58 F= -.66972947E+03 E0= -.66971927E+03  d E =-.378766E-02  mag=     1.0955
       N       E                     dE             d eps       ncg     rms          ort
SDA:   1    -0.662046770146E+03    0.11219E+01    0.00000E+00   768   0.304E+01 0.000E+00
CGA:   2    -0.662763534571E+03   -0.71676E+00   -0.71643E+00   768   0.160E+01 0.368E-02
CGA:   3    -0.663011025518E+03   -0.24749E+00   -0.24708E+00   768   0.697E+00-0.553E-02
CGA:   4    -0.663116238501E+03   -0.10521E+00   -0.10530E+00   768   0.192E+00 0.136E-03
CGA:   5    -0.663149137645E+03   -0.32899E-01   -0.32889E-01   768   0.610E-01-0.474E-03
CGA:   6    -0.663160414420E+03   -0.11277E-01   -0.11276E-01   768   0.294E-01 0.465E-04
CGA:   7    -0.663165710269E+03   -0.52958E-02   -0.52956E-02   768   0.153E-01-0.575E-04
CGA:   8    -0.663168300981E+03   -0.25907E-02   -0.25910E-02   768   0.679E-02 0.112E-04
CGA:   9    -0.663169716703E+03   -0.14157E-02   -0.14161E-02   768   0.271E-02-0.110E-04
CGA:  10    -0.663170242440E+03   -0.52574E-03   -0.52568E-03   768   0.127E-02 0.410E-05
CGA:  11    -0.663170440445E+03   -0.19800E-03   -0.19798E-03   768   0.493E-03-0.550E-06
CGA:  12    -0.663170535019E+03   -0.94574E-04   -0.94560E-04   768   0.178E-03 0.145E-05
  59 F= -.66973208E+03 E0= -.66972184E+03  d E =-.639632E-02  mag=     1.0958
       N       E                     dE             d eps       ncg     rms          ort
SDA:   1    -0.662852205344E+03    0.31824E+00    0.00000E+00   768   0.874E+00 0.000E+00
CGA:   2    -0.663059696075E+03   -0.20749E+00   -0.20743E+00   768   0.452E+00 0.806E-03
CGA:   3    -0.663129386108E+03   -0.69690E-01   -0.69647E-01   768   0.191E+00-0.572E-03
CGA:   4    -0.663158576672E+03   -0.29191E-01   -0.29199E-01   768   0.527E-01 0.113E-04
CGA:   5    -0.663167605897E+03   -0.90292E-02   -0.90281E-02   768   0.160E-01-0.511E-04
CGA:   6    -0.663170690441E+03   -0.30845E-02   -0.30844E-02   768   0.743E-02 0.180E-05
CGA:   7    -0.663172094031E+03   -0.14036E-02   -0.14037E-02   768   0.402E-02-0.112E-04
CGA:   8    -0.663172743217E+03   -0.64919E-03   -0.64924E-03   768   0.192E-02 0.712E-06
CGA:   9    -0.663173122253E+03   -0.37904E-03   -0.37908E-03   768   0.718E-03-0.232E-05
CGA:  10    -0.663173275499E+03   -0.15325E-03   -0.15319E-03   768   0.303E-03 0.167E-05
CGA:  11    -0.663173324732E+03   -0.49232E-04   -0.49230E-04   768   0.148E-03-0.879E-07
  60 F= -.66973515E+03 E0= -.66972488E+03  d E =-.306676E-02  mag=     1.0982
       N       E                     dE             d eps       ncg     rms          ort
SDA:   1    -0.663023184474E+03    0.15009E+00    0.00000E+00   768   0.410E+00 0.000E+00
CGA:   2    -0.663120690779E+03   -0.97506E-01   -0.97490E-01   768   0.211E+00 0.202E-03
CGA:   3    -0.663153278597E+03   -0.32588E-01   -0.32579E-01   768   0.890E-01-0.130E-03
CGA:   4    -0.663166917576E+03   -0.13639E-01   -0.13641E-01   768   0.247E-01-0.981E-06
CGA:   5    -0.663171131468E+03   -0.42139E-02   -0.42137E-02   768   0.731E-02-0.985E-05
CGA:   6    -0.663172621357E+03   -0.14899E-02   -0.14899E-02   768   0.318E-02-0.266E-05
CGA:   7    -0.663173307564E+03   -0.68621E-03   -0.68637E-03   768   0.149E-02-0.412E-05
CGA:   8    -0.663173588738E+03   -0.28117E-03   -0.28117E-03   768   0.902E-03 0.278E-06
CGA:   9    -0.663173726897E+03   -0.13816E-03   -0.13813E-03   768   0.356E-03-0.701E-06
CGA:  10    -0.663173799689E+03   -0.72792E-04   -0.72767E-04   768   0.112E-03 0.108E-05
  61 F= -.66973572E+03 E0= -.66972544E+03  d E =-.363574E-02  mag=     1.1002
       N       E                     dE             d eps       ncg     rms          ort
SDA:   1    -0.662864708569E+03    0.30902E+00    0.00000E+00   768   0.852E+00 0.000E+00
CGA:   2    -0.663077264181E+03   -0.21256E+00   -0.21255E+00   768   0.395E+00 0.516E-04
CGA:   3    -0.663140516066E+03   -0.63252E-01   -0.63229E-01   768   0.168E+00-0.349E-03
CGA:   4    -0.663165621078E+03   -0.25105E-01   -0.25113E-01   768   0.462E-01 0.923E-05
CGA:   5    -0.663173276285E+03   -0.76552E-02   -0.76539E-02   768   0.129E-01-0.278E-04
CGA:   6    -0.663175764283E+03   -0.24880E-02   -0.24879E-02   768   0.569E-02 0.168E-05
CGA:   7    -0.663176833229E+03   -0.10689E-02   -0.10690E-02   768   0.290E-02-0.751E-05
CGA:   8    -0.663177300317E+03   -0.46709E-03   -0.46709E-03   768   0.145E-02-0.848E-06
CGA:   9    -0.663177588209E+03   -0.28789E-03   -0.28793E-03   768   0.573E-03-0.239E-05
CGA:  10    -0.663177714452E+03   -0.12624E-03   -0.12620E-03   768   0.251E-03 0.115E-05
CGA:  11    -0.663177756669E+03   -0.42217E-04   -0.42211E-04   768   0.128E-03-0.302E-06
  62 F= -.66974021E+03 E0= -.66972990E+03  d E =-.449651E-02  mag=     1.0997
       N       E                     dE             d eps       ncg     rms          ort
SDA:   1    -0.662334892959E+03    0.84282E+00    0.00000E+00   768   0.230E+01 0.000E+00
CGA:   2    -0.662908645395E+03   -0.57375E+00   -0.57375E+00   768   0.106E+01-0.784E-04
CGA:   3    -0.663079557263E+03   -0.17091E+00   -0.17085E+00   768   0.449E+00-0.105E-02
CGA:   4    -0.663146876602E+03   -0.67319E-01   -0.67346E-01   768   0.124E+00 0.615E-04
CGA:   5    -0.663167669385E+03   -0.20793E-01   -0.20789E-01   768   0.339E-01-0.105E-03
CGA:   6    -0.663174378159E+03   -0.67088E-02   -0.67085E-02   768   0.143E-01 0.430E-05
CGA:   7    -0.663177317770E+03   -0.29396E-02   -0.29403E-02   768   0.649E-02-0.221E-04
CGA:   8    -0.663178476304E+03   -0.11585E-02   -0.11586E-02   768   0.399E-02 0.182E-05
CGA:   9    -0.663179134742E+03   -0.65844E-03   -0.65830E-03   768   0.157E-02-0.402E-05
CGA:  10    -0.663179477587E+03   -0.34285E-03   -0.34274E-03   768   0.559E-03 0.255E-05
CGA:  11    -0.663179595354E+03   -0.11777E-03   -0.11778E-03   768   0.289E-03-0.459E-06
CGA:  12    -0.663179637214E+03   -0.41860E-04   -0.41894E-04   768   0.120E-03 0.824E-06
  63 F= -.66974292E+03 E0= -.66973255E+03  d E =-.719757E-02  mag=     1.0990
       N       E                     dE             d eps       ncg     rms          ort
SDA:   1    -0.662679441595E+03    0.50015E+00    0.00000E+00   768   0.138E+01 0.000E+00
CGA:   2    -0.663031400342E+03   -0.35196E+00   -0.35196E+00   768   0.583E+00 0.462E-04
CGA:   3    -0.663128846247E+03   -0.97446E-01   -0.97479E-01   768   0.253E+00 0.539E-03
CGA:   4    -0.663165858460E+03   -0.37012E-01   -0.36992E-01   768   0.687E-01-0.548E-04
CGA:   5    -0.663176884255E+03   -0.11026E-01   -0.11028E-01   768   0.197E-01 0.334E-04
CGA:   6    -0.663180312684E+03   -0.34284E-02   -0.34280E-02   768   0.926E-02-0.176E-04
CGA:   7    -0.663181846686E+03   -0.15340E-02   -0.15339E-02   768   0.418E-02-0.537E-05
CGA:   8    -0.663182601304E+03   -0.75462E-03   -0.75458E-03   768   0.186E-02-0.884E-05
CGA:   9    -0.663183009883E+03   -0.40858E-03   -0.40855E-03   768   0.896E-03 0.347E-06
CGA:  10    -0.663183177575E+03   -0.16769E-03   -0.16769E-03   768   0.472E-03-0.732E-06
CGA:  11    -0.663183253346E+03   -0.75770E-04   -0.75796E-04   768   0.173E-03 0.999E-06
  64 F= -.66974780E+03 E0= -.66973742E+03  d E =-.488168E-02  mag=     1.0993
       N       E                     dE             d eps       ncg     rms          ort
SDA:   1    -0.662324615656E+03    0.85856E+00    0.00000E+00   768   0.236E+01 0.000E+00
CGA:   2    -0.662924784058E+03   -0.60017E+00   -0.60016E+00   768   0.996E+00 0.909E-04
CGA:   3    -0.663090861391E+03   -0.16608E+00   -0.16615E+00   768   0.431E+00 0.125E-02
CGA:   4    -0.663154027783E+03   -0.63166E-01   -0.63126E-01   768   0.118E+00-0.120E-03
CGA:   5    -0.663172895052E+03   -0.18867E-01   -0.18873E-01   768   0.336E-01 0.697E-04
CGA:   6    -0.663178853030E+03   -0.59580E-02   -0.59575E-02   768   0.157E-01-0.390E-04
CGA:   7    -0.663181443333E+03   -0.25903E-02   -0.25903E-02   768   0.723E-02-0.534E-05
CGA:   8    -0.663182724512E+03   -0.12812E-02   -0.12811E-02   768   0.318E-02-0.131E-04
CGA:   9    -0.663183425021E+03   -0.70051E-03   -0.70040E-03   768   0.150E-02 0.184E-05
CGA:  10    -0.663183713200E+03   -0.28818E-03   -0.28819E-03   768   0.795E-03-0.117E-05
CGA:  11    -0.663183838737E+03   -0.12554E-03   -0.12557E-03   768   0.297E-03 0.133E-05
CGA:  12    -0.663183899989E+03   -0.61253E-04   -0.61268E-04   768   0.115E-03-0.695E-06
  65 F= -.66974986E+03 E0= -.66973948E+03  d E =-.694781E-02  mag=     1.0994
       N       E                     dE             d eps       ncg     rms          ort
SDA:   1    -0.662661533717E+03    0.52231E+00    0.00000E+00   768   0.145E+01 0.000E+00
CGA:   2    -0.663033131397E+03   -0.37160E+00   -0.37166E+00   768   0.586E+00-0.679E-03
CGA:   3    -0.663132626264E+03   -0.99495E-01   -0.99517E-01   768   0.254E+00 0.470E-03
CGA:   4    -0.663169748047E+03   -0.37122E-01   -0.37105E-01   768   0.692E-01-0.450E-04
CGA:   5    -0.663180825392E+03   -0.11077E-01   -0.11079E-01   768   0.188E-01 0.295E-04
CGA:   6    -0.663184195461E+03   -0.33701E-02   -0.33699E-02   768   0.886E-02-0.160E-04
CGA:   7    -0.663185638749E+03   -0.14433E-02   -0.14432E-02   768   0.398E-02-0.433E-05
CGA:   8    -0.663186333347E+03   -0.69460E-03   -0.69453E-03   768   0.178E-02-0.704E-05
CGA:   9    -0.663186730429E+03   -0.39708E-03   -0.39704E-03   768   0.833E-03 0.507E-06
CGA:  10    -0.663186894677E+03   -0.16425E-03   -0.16426E-03   768   0.461E-03-0.930E-06
CGA:  11    -0.663186967137E+03   -0.72460E-04   -0.72481E-04   768   0.179E-03 0.733E-06
  66 F= -.66975385E+03 E0= -.66974341E+03  d E =-.398752E-02  mag=     1.0992
       N       E                     dE             d eps       ncg     rms          ort
SDA:   1    -0.662958450125E+03    0.22844E+00    0.00000E+00   768   0.629E+00 0.000E+00
CGA:   2    -0.663120270850E+03   -0.16182E+00   -0.16183E+00   768   0.254E+00-0.156E-03
CGA:   3    -0.663163571788E+03   -0.43301E-01   -0.43303E-01   768   0.110E+00 0.321E-04
CGA:   4    -0.663179693610E+03   -0.16122E-01   -0.16120E-01   768   0.298E-01-0.759E-05
CGA:   5    -0.663184485800E+03   -0.47922E-02   -0.47924E-02   768   0.774E-02 0.437E-05
CGA:   6    -0.663186002736E+03   -0.15169E-02   -0.15170E-02   768   0.328E-02-0.584E-05
CGA:   7    -0.663186609629E+03   -0.60689E-03   -0.60689E-03   768   0.158E-02-0.350E-05
CGA:   8    -0.663186863502E+03   -0.25387E-03   -0.25379E-03   768   0.843E-03-0.320E-05
CGA:   9    -0.663187028737E+03   -0.16523E-03   -0.16523E-03   768   0.344E-03-0.422E-07
CGA:  10    -0.663187108463E+03   -0.79727E-04   -0.79748E-04   768   0.151E-03-0.428E-06
  67 F= -.66975458E+03 E0= -.66974411E+03  d E =-.472097E-02  mag=     1.0989
       N       E                     dE             d eps       ncg     rms          ort
SDA:   1    -0.662520650029E+03    0.66638E+00    0.00000E+00   768   0.181E+01 0.000E+00
CGA:   2    -0.663011424216E+03   -0.49077E+00   -0.49066E+00   768   0.682E+00 0.128E-02
CGA:   3    -0.663128418353E+03   -0.11699E+00   -0.11705E+00   768   0.312E+00 0.130E-02
CGA:   4    -0.663170901111E+03   -0.42483E-01   -0.42452E-01   768   0.836E-01 0.812E-04
CGA:   5    -0.663183403060E+03   -0.12502E-01   -0.12504E-01   768   0.229E-01 0.282E-04
CGA:   6    -0.663187204012E+03   -0.38010E-02   -0.38005E-02   768   0.959E-02-0.137E-04
CGA:   7    -0.663188834860E+03   -0.16308E-02   -0.16308E-02   768   0.363E-02-0.611E-05
CGA:   8    -0.663189492738E+03   -0.65788E-03   -0.65787E-03   768   0.177E-02-0.479E-05
CGA:   9    -0.663189840764E+03   -0.34803E-03   -0.34801E-03   768   0.939E-03 0.104E-05
CGA:  10    -0.663190016613E+03   -0.17585E-03   -0.17585E-03   768   0.449E-03-0.499E-06
CGA:  11    -0.663190101097E+03   -0.84484E-04   -0.84480E-04   768   0.207E-03 0.860E-06
  68 F= -.66975833E+03 E0= -.66974784E+03  d E =-.374213E-02  mag=     1.1033
       N       E                     dE             d eps       ncg     rms          ort
SDA:   1    -0.663183973978E+03    0.60426E-02    0.00000E+00   768   0.166E-01 0.000E+00
CGA:   2    -0.663188498982E+03   -0.45250E-02   -0.45251E-02   768   0.606E-02-0.165E-05
CGA:   3    -0.663189583299E+03   -0.10843E-02   -0.10843E-02   768   0.260E-02-0.550E-06
CGA:   4    -0.663189953944E+03   -0.37065E-03   -0.37067E-03   768   0.732E-03 0.124E-06
CGA:   5    -0.663190057630E+03   -0.10369E-03   -0.10368E-03   768   0.182E-03-0.557E-07
CGA:   6    -0.663190095206E+03   -0.37576E-04   -0.37604E-04   768   0.840E-04-0.122E-05
  69 F= -.66975839E+03 E0= -.66974791E+03  d E =-.380699E-02  mag=     1.1039
       N       E                     dE             d eps       ncg     rms          ort
SDA:   1    -0.662902209750E+03    0.28785E+00    0.00000E+00   768   0.784E+00 0.000E+00
CGA:   2    -0.663119414237E+03   -0.21720E+00   -0.21725E+00   768   0.268E+00-0.427E-03
CGA:   3    -0.663170683145E+03   -0.51269E-01   -0.51267E-01   768   0.113E+00 0.351E-03
CGA:   4    -0.663185914929E+03   -0.15232E-01   -0.15224E-01   768   0.333E-01 0.233E-04
CGA:   5    -0.663190712989E+03   -0.47981E-02   -0.47981E-02   768   0.861E-02 0.365E-05
CGA:   6    -0.663192179920E+03   -0.14669E-02   -0.14669E-02   768   0.381E-02-0.441E-05
CGA:   7    -0.663192802271E+03   -0.62235E-03   -0.62229E-03   768   0.128E-02-0.271E-05
CGA:   8    -0.663193047102E+03   -0.24483E-03   -0.24484E-03   768   0.677E-03-0.102E-05
CGA:   9    -0.663193177001E+03   -0.12990E-03   -0.12989E-03   768   0.356E-03 0.125E-05
CGA:  10    -0.663193243957E+03   -0.66956E-04   -0.66955E-04   768   0.175E-03-0.340E-07
  70 F= -.66976206E+03 E0= -.66975158E+03  d E =-.367183E-02  mag=     1.1043
       N       E                     dE             d eps       ncg     rms          ort
SDA:   1    -0.662132292799E+03    0.10609E+01    0.00000E+00   768   0.287E+01 0.000E+00
CGA:   2    -0.662924050802E+03   -0.79176E+00   -0.79213E+00   768   0.100E+01-0.312E-02
CGA:   3    -0.663109088240E+03   -0.18504E+00   -0.18506E+00   768   0.445E+00 0.266E-02
CGA:   4    -0.663167053477E+03   -0.57965E-01   -0.57926E-01   768   0.127E+00 0.223E-03
CGA:   5    -0.663185826794E+03   -0.18773E-01   -0.18772E-01   768   0.318E-01 0.274E-04
CGA:   6    -0.663191367616E+03   -0.55408E-02   -0.55406E-02   768   0.137E-01-0.149E-04
CGA:   7    -0.663193652749E+03   -0.22851E-02   -0.22850E-02   768   0.481E-02-0.396E-05
CGA:   8    -0.663194511791E+03   -0.85904E-03   -0.85904E-03   768   0.252E-02-0.158E-05
CGA:   9    -0.663194998684E+03   -0.48689E-03   -0.48686E-03   768   0.124E-02 0.329E-05
CGA:  10    -0.663195244418E+03   -0.24573E-03   -0.24573E-03   768   0.643E-03 0.283E-06
CGA:  11    -0.663195364743E+03   -0.12033E-03   -0.12032E-03   768   0.316E-03 0.116E-05
CGA:  12    -0.663195421613E+03   -0.56870E-04   -0.56867E-04   768   0.129E-03-0.892E-06
  71 F= -.66976521E+03 E0= -.66975472E+03  d E =-.682216E-02  mag=     1.1054
       N       E                     dE             d eps       ncg     rms          ort
SDA:   1    -0.662877849717E+03    0.31752E+00    0.00000E+00   768   0.878E+00 0.000E+00
CGA:   2    -0.663109229613E+03   -0.23138E+00   -0.23141E+00   768   0.365E+00-0.271E-03
CGA:   3    -0.663165439592E+03   -0.56210E-01   -0.56253E-01   768   0.169E+00 0.431E-03
CGA:   4    -0.663188951017E+03   -0.23511E-01   -0.23505E-01   768   0.439E-01 0.477E-04
CGA:   5    -0.663195832408E+03   -0.68814E-02   -0.68821E-02   768   0.119E-01 0.119E-04
CGA:   6    -0.663197824844E+03   -0.19924E-02   -0.19922E-02   768   0.516E-02-0.957E-05
CGA:   7    -0.663198714782E+03   -0.88994E-03   -0.88991E-03   768   0.207E-02-0.316E-05
CGA:   8    -0.663199079928E+03   -0.36515E-03   -0.36514E-03   768   0.101E-02-0.167E-05
CGA:   9    -0.663199285995E+03   -0.20607E-03   -0.20602E-03   768   0.516E-03 0.192E-05
CGA:  10    -0.663199383710E+03   -0.97715E-04   -0.97717E-04   768   0.257E-03-0.285E-06
  72 F= -.66976950E+03 E0= -.66975901E+03  d E =-.428731E-02  mag=     1.1071
       N       E                     dE             d eps       ncg     rms          ort
SDA:   1    -0.661588459503E+03    0.16108E+01    0.00000E+00   768   0.442E+01 0.000E+00
CGA:   2    -0.662749628461E+03   -0.11612E+01   -0.11615E+01   768   0.184E+01-0.269E-02
CGA:   3    -0.663033136933E+03   -0.28351E+00   -0.28398E+00   768   0.835E+00 0.538E-02
CGA:   4    -0.663150384519E+03   -0.11725E+00   -0.11718E+00   768   0.223E+00 0.370E-03
CGA:   5    -0.663184637796E+03   -0.34253E-01   -0.34263E-01   768   0.620E-01 0.167E-03
CGA:   6    -0.663195027303E+03   -0.10390E-01   -0.10388E-01   768   0.260E-01-0.612E-04
CGA:   7    -0.663199595923E+03   -0.45686E-02   -0.45687E-02   768   0.106E-01 0.254E-05
CGA:   8    -0.663201447979E+03   -0.18521E-02   -0.18520E-02   768   0.515E-02-0.754E-05
CGA:   9    -0.663202483677E+03   -0.10357E-02   -0.10355E-02   768   0.262E-02 0.862E-05
CGA:  10    -0.663202982003E+03   -0.49833E-03   -0.49834E-03   768   0.127E-02-0.102E-05
CGA:  11    -0.663203212402E+03   -0.23040E-03   -0.23040E-03   768   0.578E-03 0.158E-05
CGA:  12    -0.663203317710E+03   -0.10531E-03   -0.10531E-03   768   0.235E-03-0.138E-05
CGA:  13    -0.663203360541E+03   -0.42831E-04   -0.42830E-04   768   0.108E-03 0.623E-06
  73 F= -.66977419E+03 E0= -.66976373E+03  d E =-.897731E-02  mag=     1.1107
       N       E                     dE             d eps       ncg     rms          ort
SDA:   1    -0.662727885192E+03    0.47543E+00    0.00000E+00   768   0.132E+01 0.000E+00
CGA:   2    -0.663069637143E+03   -0.34175E+00   -0.34183E+00   768   0.578E+00-0.671E-03
CGA:   3    -0.663155038850E+03   -0.85402E-01   -0.85492E-01   768   0.260E+00 0.783E-03
CGA:   4    -0.663192066004E+03   -0.37027E-01   -0.37019E-01   768   0.679E-01 0.858E-04
CGA:   5    -0.663202709557E+03   -0.10644E-01   -0.10645E-01   768   0.188E-01 0.260E-04
CGA:   6    -0.663205828696E+03   -0.31191E-02   -0.31188E-02   768   0.786E-02-0.165E-04
CGA:   7    -0.663207210960E+03   -0.13823E-02   -0.13823E-02   768   0.328E-02-0.331E-05
CGA:   8    -0.663207778374E+03   -0.56741E-03   -0.56739E-03   768   0.158E-02-0.238E-05
CGA:   9    -0.663208101353E+03   -0.32298E-03   -0.32289E-03   768   0.798E-03 0.302E-05
CGA:  10    -0.663208253226E+03   -0.15187E-03   -0.15188E-03   768   0.397E-03-0.419E-06
CGA:  11    -0.663208324125E+03   -0.70898E-04   -0.70899E-04   768   0.176E-03 0.566E-06
  74 F= -.66977945E+03 E0= -.66976898E+03  d E =-.526214E-02  mag=     1.1120
       N       E                     dE             d eps       ncg     rms          ort
SDA:   1    -0.661316340649E+03    0.18919E+01    0.00000E+00   768   0.521E+01 0.000E+00
CGA:   2    -0.662664116269E+03   -0.13478E+01   -0.13484E+01   768   0.230E+01-0.494E-02
CGA:   3    -0.663000937709E+03   -0.33682E+00   -0.33754E+00   768   0.102E+01 0.630E-02
CGA:   4    -0.663147015616E+03   -0.14608E+00   -0.14603E+00   768   0.273E+00 0.619E-03
CGA:   5    -0.663189430280E+03   -0.42415E-01   -0.42427E-01   768   0.745E-01 0.239E-03
CGA:   6    -0.663202046070E+03   -0.12616E-01   -0.12614E-01   768   0.314E-01-0.932E-04
CGA:   7    -0.663207559875E+03   -0.55138E-02   -0.55138E-02   768   0.131E-01 0.459E-05
CGA:   8    -0.663209820549E+03   -0.22607E-02   -0.22605E-02   768   0.628E-02-0.105E-04
CGA:   9    -0.663211100059E+03   -0.12795E-02   -0.12792E-02   768   0.314E-02 0.113E-04
CGA:  10    -0.663211702932E+03   -0.60287E-03   -0.60290E-03   768   0.155E-02-0.165E-05
CGA:  11    -0.663211978117E+03   -0.27518E-03   -0.27519E-03   768   0.695E-03 0.174E-05
CGA:  12    -0.663212107483E+03   -0.12937E-03   -0.12937E-03   768   0.279E-03-0.167E-05
CGA:  13    -0.663212158483E+03   -0.51000E-04   -0.50998E-04   768   0.134E-03 0.694E-06
  75 F= -.66978386E+03 E0= -.66977336E+03  d E =-.966940E-02  mag=     1.1144
       N       E                     dE             d eps       ncg     rms          ort
SDA:   1    -0.662553621616E+03    0.65849E+00    0.00000E+00   768   0.180E+01 0.000E+00
CGA:   2    -0.663034537211E+03   -0.48092E+00   -0.48098E+00   768   0.766E+00-0.432E-03
CGA:   3    -0.663146682127E+03   -0.11214E+00   -0.11222E+00   768   0.357E+00 0.730E-03
CGA:   4    -0.663196239284E+03   -0.49557E-01   -0.49567E-01   768   0.865E-01 0.204E-03
CGA:   5    -0.663210078499E+03   -0.13839E-01   -0.13840E-01   768   0.224E-01 0.236E-04
CGA:   6    -0.663213904420E+03   -0.38259E-02   -0.38257E-02   768   0.928E-02-0.202E-04
CGA:   7    -0.663215479687E+03   -0.15753E-02   -0.15752E-02   768   0.373E-02-0.534E-05
CGA:   8    -0.663216099489E+03   -0.61980E-03   -0.61977E-03   768   0.175E-02-0.221E-05
CGA:   9    -0.663216469841E+03   -0.37035E-03   -0.37024E-03   768   0.858E-03 0.334E-05
CGA:  10    -0.663216639732E+03   -0.16989E-03   -0.16990E-03   768   0.483E-03-0.324E-06
CGA:  11    -0.663216723214E+03   -0.83483E-04   -0.83488E-04   768   0.212E-03 0.661E-06
  76 F= -.66978877E+03 E0= -.66977827E+03  d E =-.490817E-02  mag=     1.1157
       N       E                     dE             d eps       ncg     rms          ort
SDA:   1    -0.660385731317E+03    0.28309E+01    0.00000E+00   768   0.773E+01 0.000E+00
CGA:   2    -0.662439496084E+03   -0.20538E+01   -0.20544E+01   768   0.330E+01-0.336E-02
CGA:   3    -0.662918771361E+03   -0.47928E+00   -0.47996E+00   768   0.151E+01 0.673E-02
CGA:   4    -0.663130391959E+03   -0.21162E+00   -0.21172E+00   768   0.376E+00 0.189E-02
CGA:   5    -0.663190352205E+03   -0.59960E-01   -0.59970E-01   768   0.966E-01 0.261E-03
CGA:   6    -0.663207160532E+03   -0.16808E-01   -0.16807E-01   768   0.403E-01-0.128E-03
CGA:   7    -0.663214002801E+03   -0.68423E-02   -0.68422E-02   768   0.163E-01-0.550E-05
CGA:   8    -0.663216695619E+03   -0.26928E-02   -0.26927E-02   768   0.756E-02-0.749E-05
CGA:   9    -0.663218288277E+03   -0.15927E-02   -0.15922E-02   768   0.367E-02 0.133E-04
CGA:  10    -0.663219017022E+03   -0.72874E-03   -0.72876E-03   768   0.203E-02-0.911E-06
CGA:  11    -0.663219367080E+03   -0.35006E-03   -0.35008E-03   768   0.900E-03 0.222E-05
CGA:  12    -0.663219544080E+03   -0.17700E-03   -0.17703E-03   768   0.360E-03-0.187E-05
CGA:  13    -0.663219609666E+03   -0.65585E-04   -0.65585E-04   768   0.183E-03 0.803E-06
  77 F= -.66979234E+03 E0= -.66978187E+03  d E =-.847691E-02  mag=     1.1182
       N       E                     dE             d eps       ncg     rms          ort
SDA:   1    -0.662077698845E+03    0.11418E+01    0.00000E+00   768   0.308E+01 0.000E+00
CGA:   2    -0.662937998306E+03   -0.86030E+00   -0.86059E+00   768   0.111E+01-0.213E-02
CGA:   3    -0.663127827719E+03   -0.18983E+00   -0.18986E+00   768   0.537E+00 0.896E-03
CGA:   4    -0.663193877802E+03   -0.66050E-01   -0.66134E-01   768   0.132E+00 0.220E-03
CGA:   5    -0.663215077113E+03   -0.21199E-01   -0.21197E-01   768   0.297E-01-0.243E-04
CGA:   6    -0.663220518006E+03   -0.54409E-02   -0.54409E-02   768   0.127E-01-0.183E-04
CGA:   7    -0.663222523776E+03   -0.20058E-02   -0.20055E-02   768   0.445E-02-0.524E-05
CGA:   8    -0.663223270378E+03   -0.74660E-03   -0.74660E-03   768   0.220E-02-0.482E-06
CGA:   9    -0.663223721258E+03   -0.45088E-03   -0.45079E-03   768   0.992E-03 0.392E-05
CGA:  10    -0.663223931564E+03   -0.21031E-03   -0.21030E-03   768   0.637E-03 0.193E-06
CGA:  11    -0.663224040845E+03   -0.10928E-03   -0.10929E-03   768   0.285E-03 0.887E-06
CGA:  12    -0.663224099329E+03   -0.58484E-04   -0.58508E-04   768   0.120E-03-0.109E-05
  78 F= -.66979742E+03 E0= -.66978701E+03  d E =-.508182E-02  mag=     1.1169
       N       E                     dE             d eps       ncg     rms          ort
SDA:   1    -0.662634576932E+03    0.58946E+00    0.00000E+00   768   0.158E+01 0.000E+00
CGA:   2    -0.663076434643E+03   -0.44186E+00   -0.44196E+00   768   0.581E+00-0.811E-03
CGA:   3    -0.663172664464E+03   -0.96230E-01   -0.96229E-01   768   0.293E+00 0.472E-04
CGA:   4    -0.663208796367E+03   -0.36132E-01   -0.36176E-01   768   0.671E-01 0.838E-04
CGA:   5    -0.663219920713E+03   -0.11124E-01   -0.11124E-01   768   0.148E-01-0.935E-05
CGA:   6    -0.663222706558E+03   -0.27858E-02   -0.27859E-02   768   0.648E-02-0.926E-05
CGA:   7    -0.663223695920E+03   -0.98936E-03   -0.98919E-03   768   0.230E-02-0.363E-05
CGA:   8    -0.663224084632E+03   -0.38871E-03   -0.38871E-03   768   0.110E-02-0.632E-06
CGA:   9    -0.663224314963E+03   -0.23033E-03   -0.23026E-03   768   0.505E-03 0.262E-05
CGA:  10    -0.663224421635E+03   -0.10667E-03   -0.10667E-03   768   0.332E-03-0.507E-07
CGA:  11    -0.663224477718E+03   -0.56083E-04   -0.56090E-04   768   0.143E-03 0.516E-06
  79 F= -.66979821E+03 E0= -.66978784E+03  d E =-.587541E-02  mag=     1.1160
       N       E                     dE             d eps       ncg     rms          ort
SDA:   1    -0.661918098013E+03    0.13063E+01    0.00000E+00   768   0.349E+01 0.000E+00
CGA:   2    -0.662911367965E+03   -0.99327E+00   -0.99271E+00   768   0.119E+01 0.537E-02
CGA:   3    -0.663128114697E+03   -0.21675E+00   -0.21675E+00   768   0.574E+00 0.100E-03
CGA:   4    -0.663195224429E+03   -0.67110E-01   -0.67358E-01   768   0.144E+00-0.265E-03
CGA:   5    -0.663218520058E+03   -0.23296E-01   -0.23291E-01   768   0.283E-01-0.562E-04
CGA:   6    -0.663224478013E+03   -0.59580E-02   -0.59583E-02   768   0.118E-01-0.144E-04
CGA:   7    -0.663226157409E+03   -0.16794E-02   -0.16789E-02   768   0.441E-02-0.600E-05
CGA:   8    -0.663226939658E+03   -0.78225E-03   -0.78226E-03   768   0.204E-02-0.192E-06
CGA:   9    -0.663227356019E+03   -0.41636E-03   -0.41627E-03   768   0.955E-03 0.450E-05
CGA:  10    -0.663227564681E+03   -0.20866E-03   -0.20863E-03   768   0.631E-03 0.752E-06
CGA:  11    -0.663227667206E+03   -0.10252E-03   -0.10254E-03   768   0.265E-03 0.664E-06
CGA:  12    -0.663227725849E+03   -0.58643E-04   -0.58682E-04   768   0.110E-03-0.114E-05
  80 F= -.66980215E+03 E0= -.66979187E+03  d E =-.393596E-02  mag=     1.1189
       N       E                     dE             d eps       ncg     rms          ort
SDA:   1    -0.663221368093E+03    0.62991E-02    0.00000E+00   768   0.172E-01 0.000E+00
CGA:   2    -0.663226297937E+03   -0.49298E-02   -0.49298E-02   768   0.539E-02 0.768E-06
CGA:   3    -0.663227456076E+03   -0.11581E-02   -0.11582E-02   768   0.176E-02-0.243E-05
CGA:   4    -0.663227722669E+03   -0.26659E-03   -0.26658E-03   768   0.497E-03-0.569E-06
CGA:   5    -0.663227792641E+03   -0.69972E-04   -0.70030E-04   768   0.162E-03 0.119E-05
  81 F= -.66980217E+03 E0= -.66979189E+03  d E =-.395498E-02  mag=     1.1185
       N       E                     dE             d eps       ncg     rms          ort
SDA:   1    -0.662671568867E+03    0.55615E+00    0.00000E+00   768   0.148E+01 0.000E+00
CGA:   2    -0.663092133783E+03   -0.42056E+00   -0.42065E+00   768   0.511E+00-0.784E-03
CGA:   3    -0.663192785354E+03   -0.10065E+00   -0.10064E+00   768   0.186E+00 0.618E-03
CGA:   4    -0.663218814221E+03   -0.26029E-01   -0.26009E-01   768   0.554E-01 0.108E-05
CGA:   5    -0.663226977888E+03   -0.81637E-02   -0.81657E-02   768   0.137E-01 0.218E-04
CGA:   6    -0.663229441217E+03   -0.24633E-02   -0.24633E-02   768   0.629E-02-0.102E-05
CGA:   7    -0.663230357966E+03   -0.91675E-03   -0.91666E-03   768   0.216E-02-0.190E-05
CGA:   8    -0.663230769802E+03   -0.41184E-03   -0.41184E-03   768   0.100E-02-0.693E-06
CGA:   9    -0.663230983997E+03   -0.21420E-03   -0.21411E-03   768   0.525E-03 0.308E-05
CGA:  10    -0.663231082385E+03   -0.98387E-04   -0.98387E-04   768   0.306E-03 0.428E-06
  82 F= -.66980614E+03 E0= -.66979585E+03  d E =-.397702E-02  mag=     1.1179
