 vasp.5.4.4.18Apr17-6-g9f103f2a35 (build Jan 14 2022 15:04:31) complex          
  
 executed on             LinuxIFC date 2023.01.27  22:54:37
 running on   48 total cores
 distrk:  each k-point on   48 cores,    1 groups
 distr:  one band on NCORES_PER_BAND=  12 cores,    4 groups


--------------------------------------------------------------------------------------------------------


 INCAR:
 POTCAR:    PAW_PBE C 08Apr2002                   
 POTCAR:    PAW_PBE N 08Apr2002                   
 POTCAR:    PAW_PBE C 08Apr2002                   
 POTCAR:    PAW_PBE Cr_pv 02Aug2007               
 POTCAR:    PAW_PBE C 08Apr2002                   
 POTCAR:    PAW_PBE O 08Apr2002                   
 POTCAR:    PAW_PBE C 08Apr2002                   
   SHA256 =  253f7b50bb8d59471dbedb8285d89021f4a42ed1a2c5d38a03a736e69125dd95 C/
   COPYR  = (c) Copyright 08Apr2002 Georg Kresse                                
   COPYR  = This file is part of the software VASP. Any use, copying, and all ot
   COPYR  = If you do not have a valid VASP license, you may not use, copy or di
   VRHFIN =C: s2p2                                                              
   LEXCH  = PE                                                                  
   EATOM  =   147.1560 eV,   10.8157 Ry                                         
                                                                                
   TITEL  = PAW_PBE C 08Apr2002                                                 
   LULTRA =        F    use ultrasoft PP ?                                      
   IUNSCR =        1    unscreen: 0-lin 1-nonlin 2-no                           
   RPACOR =    1.200    partial core radius                                     
   POMASS =   12.011; ZVAL   =    4.000    mass and valenz                      
   RCORE  =    1.500    outmost cutoff radius                                   
   RWIGS  =    1.630; RWIGS  =    0.863    wigner-seitz radius (au A)           
   ENMAX  =  400.000; ENMIN  =  300.000 eV                                      
   ICORE  =        2    local potential                                         
   LCOR   =        T    correct aug charges                                     
   LPAW   =        T    paw PP                                                  
   EAUG   =  644.873                                                            
   DEXC   =    0.000                                                            
   RMAX   =    1.529    core radius for proj-oper                               
   RAUG   =    1.300    factor for augmentation sphere                          
   RDEP   =    1.501    radius for radial grids                                 
   RDEPT  =    1.300    core radius for aug-charge                              
                                                                                
   Atomic configuration                                                         
    4 entries                                                                   
     n  l   j            E        occ.                                          
     1  0  0.50      -273.3789   2.0000                                         
     2  0  0.50       -13.7508   2.0000                                         
     2  1  0.50        -5.2854   2.0000                                         
     3  2  1.50        -5.4423   0.0000                                         
   Description                                                                  
     l       E           TYP  RCUT    TYP  RCUT                                 
     0    -13.7508458     23  1.200                                             
     0     -8.2022199     23  1.200                                             
     1     -5.2854383     23  1.500                                             
     1     34.0145650     23  1.500                                             
     2     -5.4423304      7  1.500                                             
  local pseudopotential read in
  partial core-charges read in
  partial kinetic energy density read in
  atomic valenz-charges read in
  non local Contribution for L=           0  read in
    real space projection operators read in
  non local Contribution for L=           0  read in
    real space projection operators read in
  non local Contribution for L=           1  read in
    real space projection operators read in
  non local Contribution for L=           1  read in
    real space projection operators read in
    PAW grid and wavefunctions read in
 
   number of l-projection  operators is LMAX  =           4
   number of lm-projection operators is LMMAX =           8
 
 POTCAR:    PAW_PBE N 08Apr2002                   
   SHA256 =  e053789ff3a61a86a1b75d8a110fcc91f86041011e7b0817c7c99e4e8a6349d7 N/
   COPYR  = (c) Copyright 08Apr2002 Georg Kresse                                
   COPYR  = This file is part of the software VASP. Any use, copying, and all ot
   COPYR  = If you do not have a valid VASP license, you may not use, copy or di
   VRHFIN =N: s2p3                                                              
   LEXCH  = PE                                                                  
   EATOM  =   264.5486 eV,   19.4438 Ry                                         
                                                                                
   TITEL  = PAW_PBE N 08Apr2002                                                 
   LULTRA =        F    use ultrasoft PP ?                                      
   IUNSCR =        1    unscreen: 0-lin 1-nonlin 2-no                           
   RPACOR =    1.200    partial core radius                                     
   POMASS =   14.001; ZVAL   =    5.000    mass and valenz                      
   RCORE  =    1.500    outmost cutoff radius                                   
   RWIGS  =    1.400; RWIGS  =    0.741    wigner-seitz radius (au A)           
   ENMAX  =  400.000; ENMIN  =  300.000 eV                                      
   ICORE  =        2    local potential                                         
   LCOR   =        T    correct aug charges                                     
   LPAW   =        T    paw PP                                                  
   EAUG   =  627.112                                                            
   DEXC   =    0.000                                                            
   RMAX   =    1.529    core radius for proj-oper                               
   RAUG   =    1.300    factor for augmentation sphere                          
   RDEP   =    1.514    radius for radial grids                                 
   RDEPT  =    1.338    core radius for aug-charge                              
                                                                                
   Atomic configuration                                                         
    4 entries                                                                   
     n  l   j            E        occ.                                          
     1  0  0.50      -384.7179   2.0000                                         
     2  0  0.50       -18.5828   2.0000                                         
     2  1  0.50        -7.0898   3.0000                                         
     3  2  1.50        -6.8029   0.0000                                         
   Description                                                                  
     l       E           TYP  RCUT    TYP  RCUT                                 
     0    -18.5828119     23  1.200                                             
     0    -13.5018863     23  1.200                                             
     1     -7.0897853     23  1.500                                             
     1      9.5240782     23  1.500                                             
     2     -6.8029130      7  1.500                                             
  local pseudopotential read in
  partial core-charges read in
  partial kinetic energy density read in
  atomic valenz-charges read in
  non local Contribution for L=           0  read in
    real space projection operators read in
  non local Contribution for L=           0  read in
    real space projection operators read in
  non local Contribution for L=           1  read in
    real space projection operators read in
  non local Contribution for L=           1  read in
    real space projection operators read in
    PAW grid and wavefunctions read in
 
   number of l-projection  operators is LMAX  =           4
   number of lm-projection operators is LMMAX =           8
 
 POTCAR:    PAW_PBE C 08Apr2002                   
   SHA256 =  253f7b50bb8d59471dbedb8285d89021f4a42ed1a2c5d38a03a736e69125dd95 C/
   COPYR  = (c) Copyright 08Apr2002 Georg Kresse                                
   COPYR  = This file is part of the software VASP. Any use, copying, and all ot
   COPYR  = If you do not have a valid VASP license, you may not use, copy or di
   VRHFIN =C: s2p2                                                              
   LEXCH  = PE                                                                  
   EATOM  =   147.1560 eV,   10.8157 Ry                                         
                                                                                
   TITEL  = PAW_PBE C 08Apr2002                                                 
   LULTRA =        F    use ultrasoft PP ?                                      
   IUNSCR =        1    unscreen: 0-lin 1-nonlin 2-no                           
   RPACOR =    1.200    partial core radius                                     
   POMASS =   12.011; ZVAL   =    4.000    mass and valenz                      
   RCORE  =    1.500    outmost cutoff radius                                   
   RWIGS  =    1.630; RWIGS  =    0.863    wigner-seitz radius (au A)           
   ENMAX  =  400.000; ENMIN  =  300.000 eV                                      
   ICORE  =        2    local potential                                         
   LCOR   =        T    correct aug charges                                     
   LPAW   =        T    paw PP                                                  
   EAUG   =  644.873                                                            
   DEXC   =    0.000                                                            
   RMAX   =    1.529    core radius for proj-oper                               
   RAUG   =    1.300    factor for augmentation sphere                          
   RDEP   =    1.501    radius for radial grids                                 
   RDEPT  =    1.300    core radius for aug-charge                              
                                                                                
   Atomic configuration                                                         
    4 entries                                                                   
     n  l   j            E        occ.                                          
     1  0  0.50      -273.3789   2.0000                                         
     2  0  0.50       -13.7508   2.0000                                         
     2  1  0.50        -5.2854   2.0000                                         
     3  2  1.50        -5.4423   0.0000                                         
   Description                                                                  
     l       E           TYP  RCUT    TYP  RCUT                                 
     0    -13.7508458     23  1.200                                             
     0     -8.2022199     23  1.200                                             
     1     -5.2854383     23  1.500                                             
     1     34.0145650     23  1.500                                             
     2     -5.4423304      7  1.500                                             
  local pseudopotential read in
  partial core-charges read in
  partial kinetic energy density read in
  atomic valenz-charges read in
  non local Contribution for L=           0  read in
    real space projection operators read in
  non local Contribution for L=           0  read in
    real space projection operators read in
  non local Contribution for L=           1  read in
    real space projection operators read in
  non local Contribution for L=           1  read in
    real space projection operators read in
    PAW grid and wavefunctions read in
 
   number of l-projection  operators is LMAX  =           4
   number of lm-projection operators is LMMAX =           8
 
 POTCAR:    PAW_PBE Cr_pv 02Aug2007               
   SHA256 =  c9a7df34d3cdbacf1090e328ef39c0b420964e11c23f63548d1ac9dd218cdba0 Cr
   COPYR  = (c) Copyright 02Aug2007 Georg Kresse                                
   COPYR  = This file is part of the software VASP. Any use, copying, and all ot
   COPYR  = If you do not have a valid VASP license, you may not use, copy or di
   VRHFIN =Cr : p6d5s1                                                          
   LEXCH  = PE                                                                  
   EATOM  =  1647.9177 eV,  121.1185 Ry                                         
                                                                                
   TITEL  = PAW_PBE Cr_pv 02Aug2007                                             
   LULTRA =        F    use ultrasoft PP ?                                      
   IUNSCR =        1    unscreen: 0-lin 1-nonlin 2-no                           
   RPACOR =    2.080    partial core radius                                     
   POMASS =   51.996; ZVAL   =   12.000    mass and valenz                      
   RCORE  =    2.300    outmost cutoff radius                                   
   RWIGS  =    2.500; RWIGS  =    1.323    wigner-seitz radius (au A)           
   ENMAX  =  265.681; ENMIN  =  199.261 eV                                      
   ICORE  =        3    local potential                                         
   LCOR   =        T    correct aug charges                                     
   LPAW   =        T    paw PP                                                  
   EAUG   =  519.424                                                            
   DEXC   =    0.000                                                            
   RMAX   =    2.356    core radius for proj-oper                               
   RAUG   =    1.300    factor for augmentation sphere                          
   RDEP   =    2.447    radius for radial grids                                 
   RDEPT  =    1.882    core radius for aug-charge                              
                                                                                
   Atomic configuration                                                         
    8 entries                                                                   
     n  l   j            E        occ.                                          
     1  0  0.50     -5880.4963   2.0000                                         
     2  0  0.50      -667.0865   2.0000                                         
     2  1  1.50      -560.6250   6.0000                                         
     3  0  0.50       -73.9860   2.0000                                         
     3  1  1.50       -45.4378   6.0000                                         
     3  2  2.50        -2.9137   5.0000                                         
     4  0  0.50        -4.0071   1.0000                                         
     4  3  2.50        -1.3606   0.0000                                         
   Description                                                                  
     l       E           TYP  RCUT    TYP  RCUT                                 
     1    -45.4377911     23  2.000                                             
     1      1.3605826     23  2.000                                             
     2     -2.9136672     23  2.300                                             
     2     -4.2742498     23  2.300                                             
     0     -4.0071320     23  2.300                                             
     0      9.4498803     23  2.300                                             
     3      2.7211652     23  2.300                                             
  local pseudopotential read in
  partial core-charges read in
  partial kinetic energy density read in
  atomic valenz-charges read in
  non local Contribution for L=           1  read in
    real space projection operators read in
  non local Contribution for L=           1  read in
    real space projection operators read in
  non local Contribution for L=           2  read in
    real space projection operators read in
  non local Contribution for L=           2  read in
    real space projection operators read in
  non local Contribution for L=           0  read in
    real space projection operators read in
  non local Contribution for L=           0  read in
    real space projection operators read in
    PAW grid and wavefunctions read in
 
   number of l-projection  operators is LMAX  =           6
   number of lm-projection operators is LMMAX =          18
 
 POTCAR:    PAW_PBE C 08Apr2002                   
   SHA256 =  253f7b50bb8d59471dbedb8285d89021f4a42ed1a2c5d38a03a736e69125dd95 C/
   COPYR  = (c) Copyright 08Apr2002 Georg Kresse                                
   COPYR  = This file is part of the software VASP. Any use, copying, and all ot
   COPYR  = If you do not have a valid VASP license, you may not use, copy or di
   VRHFIN =C: s2p2                                                              
   LEXCH  = PE                                                                  
   EATOM  =   147.1560 eV,   10.8157 Ry                                         
                                                                                
   TITEL  = PAW_PBE C 08Apr2002                                                 
   LULTRA =        F    use ultrasoft PP ?                                      
   IUNSCR =        1    unscreen: 0-lin 1-nonlin 2-no                           
   RPACOR =    1.200    partial core radius                                     
   POMASS =   12.011; ZVAL   =    4.000    mass and valenz                      
   RCORE  =    1.500    outmost cutoff radius                                   
   RWIGS  =    1.630; RWIGS  =    0.863    wigner-seitz radius (au A)           
   ENMAX  =  400.000; ENMIN  =  300.000 eV                                      
   ICORE  =        2    local potential                                         
   LCOR   =        T    correct aug charges                                     
   LPAW   =        T    paw PP                                                  
   EAUG   =  644.873                                                            
   DEXC   =    0.000                                                            
   RMAX   =    1.529    core radius for proj-oper                               
   RAUG   =    1.300    factor for augmentation sphere                          
   RDEP   =    1.501    radius for radial grids                                 
   RDEPT  =    1.300    core radius for aug-charge                              
                                                                                
   Atomic configuration                                                         
    4 entries                                                                   
     n  l   j            E        occ.                                          
     1  0  0.50      -273.3789   2.0000                                         
     2  0  0.50       -13.7508   2.0000                                         
     2  1  0.50        -5.2854   2.0000                                         
     3  2  1.50        -5.4423   0.0000                                         
   Description                                                                  
     l       E           TYP  RCUT    TYP  RCUT                                 
     0    -13.7508458     23  1.200                                             
     0     -8.2022199     23  1.200                                             
     1     -5.2854383     23  1.500                                             
     1     34.0145650     23  1.500                                             
     2     -5.4423304      7  1.500                                             
  local pseudopotential read in
  partial core-charges read in
  partial kinetic energy density read in
  atomic valenz-charges read in
  non local Contribution for L=           0  read in
    real space projection operators read in
  non local Contribution for L=           0  read in
    real space projection operators read in
  non local Contribution for L=           1  read in
    real space projection operators read in
  non local Contribution for L=           1  read in
    real space projection operators read in
    PAW grid and wavefunctions read in
 
   number of l-projection  operators is LMAX  =           4
   number of lm-projection operators is LMMAX =           8
 
 POTCAR:    PAW_PBE O 08Apr2002                   
   SHA256 =  818f92134a0a090dccd8ba1447fa70422a3b330e708bb4f08108d8ae51209ddf O/
   COPYR  = (c) Copyright 08Apr2002 Georg Kresse                                
   COPYR  = This file is part of the software VASP. Any use, copying, and all ot
   COPYR  = If you do not have a valid VASP license, you may not use, copy or di
   VRHFIN =O: s2p4                                                              
   LEXCH  = PE                                                                  
   EATOM  =   432.3788 eV,   31.7789 Ry                                         
                                                                                
   TITEL  = PAW_PBE O 08Apr2002                                                 
   LULTRA =        F    use ultrasoft PP ?                                      
   IUNSCR =        1    unscreen: 0-lin 1-nonlin 2-no                           
   RPACOR =    1.200    partial core radius                                     
   POMASS =   16.000; ZVAL   =    6.000    mass and valenz                      
   RCORE  =    1.520    outmost cutoff radius                                   
   RWIGS  =    1.550; RWIGS  =    0.820    wigner-seitz radius (au A)           
   ENMAX  =  400.000; ENMIN  =  300.000 eV                                      
   ICORE  =        2    local potential                                         
   LCOR   =        T    correct aug charges                                     
   LPAW   =        T    paw PP                                                  
   EAUG   =  605.392                                                            
   DEXC   =    0.000                                                            
   RMAX   =    1.553    core radius for proj-oper                               
   RAUG   =    1.300    factor for augmentation sphere                          
   RDEP   =    1.550    radius for radial grids                                 
   RDEPT  =    1.329    core radius for aug-charge                              
                                                                                
   Atomic configuration                                                         
    4 entries                                                                   
     n  l   j            E        occ.                                          
     1  0  0.50      -514.6923   2.0000                                         
     2  0  0.50       -23.9615   2.0000                                         
     2  1  0.50        -9.0305   4.0000                                         
     3  2  1.50        -9.5241   0.0000                                         
   Description                                                                  
     l       E           TYP  RCUT    TYP  RCUT                                 
     0    -23.9615318     23  1.200                                             
     0     -9.5240782     23  1.200                                             
     1     -9.0304911     23  1.520                                             
     1      8.1634956     23  1.520                                             
     2     -9.5240782      7  1.500                                             
  local pseudopotential read in
  partial core-charges read in
  partial kinetic energy density read in
  kinetic energy density of atom read in
  atomic valenz-charges read in
  non local Contribution for L=           0  read in
    real space projection operators read in
  non local Contribution for L=           0  read in
    real space projection operators read in
  non local Contribution for L=           1  read in
    real space projection operators read in
  non local Contribution for L=           1  read in
    real space projection operators read in
    PAW grid and wavefunctions read in
 
   number of l-projection  operators is LMAX  =           4
   number of lm-projection operators is LMMAX =           8
 

 ----------------------------------------------------------------------------- 
|                                                                             |
|  ADVICE TO THIS USER RUNNING 'VASP/VAMP'   (HEAR YOUR MASTER'S VOICE ...):  |
|                                                                             |
|      You have a (more or less) 'large supercell' and for larger cells       |
|      it might be more efficient to use real space projection opertators     |
|      So try LREAL= Auto  in the INCAR   file.                               |
|      Mind:          For very  accurate calculation you might also keep the  |
|      reciprocal projection scheme          (i.e. LREAL=.FALSE.)             |
|                                                                             |
 ----------------------------------------------------------------------------- 

  PAW_PBE C 08Apr2002                   :
 energy of atom  1       EATOM= -147.1560
 kinetic energy error for atom=    0.0132 (will be added to EATOM!!)
  PAW_PBE N 08Apr2002                   :
 energy of atom  2       EATOM= -264.5486
 kinetic energy error for atom=    0.0298 (will be added to EATOM!!)
  PAW_PBE C 08Apr2002                   :
 energy of atom  3       EATOM= -147.1560
 kinetic energy error for atom=    0.0132 (will be added to EATOM!!)
  PAW_PBE Cr_pv 02Aug2007               :
 energy of atom  4       EATOM=-1647.9177
 kinetic energy error for atom=    0.0134 (will be added to EATOM!!)
  PAW_PBE C 08Apr2002                   :
 energy of atom  5       EATOM= -147.1560
 kinetic energy error for atom=    0.0132 (will be added to EATOM!!)
  PAW_PBE O 08Apr2002                   :
 energy of atom  6       EATOM= -432.3788
 kinetic energy error for atom=    0.0458 (will be added to EATOM!!)
 
 
 POSCAR: POSCAR-clean                            
  positions in cartesian coordinates
  No initial velocities read in
 exchange correlation table for  LEXCH =        8
   RHO(1)=    0.500       N(1)  =     2000
   RHO(2)=  100.500       N(2)  =     4000

 VTST: version 3.2, (02/03/18)

 CHAIN: initializing optimizer
 
 OPT: Using VASP Dynamics algorithm
 CHAIN: Read ICHAIN            0
 
 POSCAR: POSCAR-clean                            
  positions in cartesian coordinates
  No initial velocities read in
 


--------------------------------------------------------------------------------------------------------


 ion  position               nearest neighbor table
   1  1.000  1.000  0.484-   2 1.42  60 1.43  70 1.44
   2  0.056  0.111  0.484-   1 1.42  13 1.42  15 1.44
   3  0.168  0.002  0.483-   4 1.42  62 1.43  60 1.43
   4  0.224  0.113  0.484-   3 1.42  15 1.42  17 1.43
   5  0.335  0.002  0.484-   6 1.42  62 1.43  64 1.43
   6  0.390  0.113  0.484-   5 1.42  19 1.43  17 1.43
   7  0.501  0.000  0.484-   8 1.42  64 1.43  66 1.43
   8  0.556  0.111  0.484-   7 1.42  21 1.42  19 1.43
   9  0.666  0.998  0.484-  10 1.41  66 1.41  68 1.42
  10  0.721  0.108  0.484-   9 1.41  23 1.42  21 1.42
  11  0.832  0.998  0.484-  12 1.42  70 1.43  68 1.43
  12  0.888  0.109  0.484-  11 1.42  23 1.42  13 1.42
  13  0.999  0.165  0.484-  14 1.42   2 1.42  12 1.42
  14  0.054  0.277  0.484-  13 1.42  25 1.42  27 1.43
  15  0.167  0.168  0.484-  16 1.42   4 1.42   2 1.44
  16  0.223  0.280  0.486-  15 1.42  27 1.43  29 1.44
  17  0.335  0.170  0.485-  18 1.42   4 1.43   6 1.43
  18  0.391  0.281  0.488-  17 1.42  29 1.44  31 1.44
  19  0.501  0.168  0.484-   6 1.43   8 1.43  20 1.43
  20  0.557  0.280  0.486-  33 1.42  19 1.43  31 1.44
  21  0.666  0.165  0.483-  22 1.42   8 1.42  10 1.42
  22  0.723  0.276  0.484-  35 1.42  21 1.42  33 1.43
  23  0.832  0.164  0.484-  10 1.42  12 1.42  24 1.43
  24  0.888  0.276  0.484-  35 1.42  23 1.43  25 1.43
  25  0.999  0.332  0.484-  14 1.42  26 1.42  24 1.43
  26  0.054  0.444  0.485-  39 1.42  37 1.42  25 1.42
  27  0.165  0.333  0.486-  28 1.42  16 1.43  14 1.43
  28  0.219  0.444  0.488-  41 1.41  27 1.42  39 1.42
  29  0.335  0.338  0.489-  30 1.42  18 1.44  16 1.44
  30  0.388  0.449  0.495-  41 1.41  29 1.42  71 2.00
  31  0.503  0.338  0.490-  32 1.42  18 1.44  20 1.44
  32  0.561  0.449  0.496-  43 1.41  31 1.42  71 2.00
  33  0.668  0.333  0.486-  34 1.42  20 1.42  22 1.43
  34  0.725  0.444  0.487-  43 1.41  33 1.42  45 1.42
  35  0.833  0.332  0.484-  24 1.42  22 1.42  36 1.43
  36  0.890  0.444  0.484-  45 1.41  37 1.42  35 1.43
  37  1.000  0.500  0.484-  36 1.42  26 1.42  38 1.42
  38  0.056  0.611  0.484-  47 1.42  49 1.42  37 1.42
  39  0.165  0.500  0.486-  26 1.42  28 1.42  40 1.42
  40  0.221  0.612  0.486-  49 1.41  51 1.42  39 1.42
  41  0.329  0.500  0.491-  30 1.41  28 1.41  42 1.43
  42  0.385  0.612  0.491-  51 1.41  53 1.41  41 1.43
  43  0.671  0.499  0.491-  32 1.41  34 1.41  44 1.44
  44  0.727  0.612  0.491-  57 1.41  55 1.41  43 1.44
  45  0.836  0.500  0.485-  36 1.41  46 1.42  34 1.42
  46  0.891  0.611  0.485-  47 1.41  45 1.42  57 1.42
  47  0.001  0.667  0.484-  46 1.41  38 1.42  48 1.42
  48  0.057  0.779  0.484-  59 1.42  61 1.42  47 1.42
  49  0.166  0.667  0.485-  40 1.41  38 1.42  50 1.42
  50  0.223  0.779  0.484-  49 1.42  61 1.42  63 1.43
  51  0.331  0.668  0.488-  42 1.41  52 1.42  40 1.42
  52  0.389  0.779  0.486-  63 1.42  51 1.42  65 1.43
  53  0.495  0.663  0.495-  54 1.41  42 1.41  71 2.00
  54  0.553  0.773  0.489-  53 1.41  67 1.44  65 1.44
  55  0.668  0.663  0.496-  44 1.41  56 1.42  71 2.00
  56  0.721  0.774  0.489-  55 1.42  69 1.44  67 1.44
  57  0.836  0.667  0.487-  44 1.41  58 1.42  46 1.42
  58  0.890  0.778  0.486-  57 1.42  69 1.42  59 1.43
  59  0.001  0.834  0.484-  60 1.42  48 1.42  58 1.43
  60  0.057  0.946  0.483-  59 1.42   1 1.43   3 1.43
  61  0.168  0.835  0.484-  62 1.42  50 1.42  48 1.42
  62  0.223  0.946  0.484-  61 1.42   3 1.43   5 1.43
  63  0.334  0.835  0.484-  64 1.42  52 1.42  50 1.43
  64  0.390  0.946  0.484-  63 1.42   7 1.43   5 1.43
  65  0.500  0.832  0.486-  66 1.42  52 1.43  54 1.44
  66  0.556  0.943  0.484-   9 1.41  65 1.42   7 1.43
  67  0.665  0.831  0.489-  68 1.41  54 1.44  56 1.44
  68  0.720  0.941  0.485-  67 1.41   9 1.42  11 1.43
  69  0.833  0.832  0.486-  70 1.42  58 1.42  56 1.44
  70  0.888  0.943  0.484-  69 1.42  11 1.43   1 1.44
  71  0.528  0.556  0.541-  32 2.00  30 2.00  53 2.00  55 2.00
  72  0.528  0.556  0.940-  73 1.16
  73  0.478  0.499  0.996-  72 1.16
 

IMPORTANT INFORMATION: All symmetrisations will be switched off!
NOSYMM: (Re-)initialisation of all symmetry stuff for point group C_1.

 
 
 KPOINTS: K-Points                                

Automatic generation of k-mesh.
Space group operators:
 irot       det(A)        alpha          n_x          n_y          n_z        tau_x        tau_y        tau_z
    1     1.000000     0.000000     1.000000     0.000000     0.000000     0.000000     0.000000     0.000000
 
 Subroutine IBZKPT returns following result:
 ===========================================
 
 Found      5 irreducible k-points:
 
 Following reciprocal coordinates:
            Coordinates               Weight
  0.000000  0.000000  0.000000      1.000000
  0.333333 -0.000000  0.000000      2.000000
 -0.000000  0.333333  0.000000      2.000000
  0.333333  0.333333  0.000000      2.000000
 -0.333333  0.333333  0.000000      2.000000
 
 Following cartesian coordinates:
            Coordinates               Weight
  0.000000  0.000000  0.000000      1.000000
  0.022429  0.013069  0.000000      2.000000
 -0.000013  0.026137  0.000000      2.000000
  0.022416  0.039206  0.000000      2.000000
 -0.022442  0.013069  0.000000      2.000000
 
 TETIRR: Found     24 inequivalent tetrahedra from       54


--------------------------------------------------------------------------------------------------------




 Dimension of arrays:
   k-points           NKPTS =      5   k-points in BZ     NKDIM =      5   number of bands    NBANDS=    192
   number of dos      NEDOS =   4000   number of ions     NIONS =     73
   non local maximal  LDIM  =      6   non local SUM 2l+1 LMDIM =     18
   total plane-waves  NPLWV = 512000
   max r-space proj   IRMAX =      1   max aug-charges    IRDMAX=   6467
   dimension x,y,z NGX =    80 NGY =   80 NGZ =   80
   dimension x,y,z NGXF=   160 NGYF=  160 NGZF=  160
   support grid    NGXF=   160 NGYF=  160 NGZF=  160
   ions per type =               8   1  61   1   1   1
   NGX,Y,Z   is equivalent  to a cutoff of   8.95,  9.01,  8.87 a.u.
   NGXF,Y,Z  is equivalent  to a cutoff of  17.90, 18.03, 17.73 a.u.

 SYSTEM =  unknown system                          
 POSCAR =  POSCAR-clean                            

 Startparameter for this run:
   NWRITE =      2    write-flag & timer
   PREC   = normal    normal or accurate (medium, high low for compatibility)
   ISTART =      0    job   : 0-new  1-cont  2-samecut
   ICHARG =      2    charge: 1-file 2-atom 10-const
   ISPIN  =      2    spin polarized calculation?
   LNONCOLLINEAR =      F non collinear calculations
   LSORBIT =      F    spin-orbit coupling
   INIWAV =      1    electr: 0-lowe 1-rand  2-diag
   LASPH  =      F    aspherical Exc in radial PAW
   METAGGA=      F    non-selfconsistent MetaGGA calc.

 Electronic Relaxation 1
   ENCUT  =  440.0 eV  32.34 Ry    5.69 a.u.  25.41 25.24 25.66*2*pi/ulx,y,z
   ENINI  =  440.0     initial cutoff
   ENAUG  =  644.9 eV  augmentation charge cutoff
   NELM   =    100;   NELMIN=  2; NELMDL= -5     # of ELM steps 
   EDIFF  = 0.1E-03   stopping-criterion for ELM
   LREAL  =      F    real-space projection
   NLSPLINE    = F    spline interpolate recip. space projectors
   LCOMPAT=      F    compatible to vasp.4.4
   GGA_COMPAT  = T    GGA compatible to vasp.4.4-vasp.4.6
   LMAXPAW     = -100 max onsite density
   LMAXMIX     =    2 max onsite mixed and CHGCAR
   VOSKOWN=      0    Vosko Wilk Nusair interpolation
   ROPT   =    0.00000   0.00000   0.00000   0.00000
   ROPT   =    0.00000   0.00000
 Ionic relaxation
   EDIFFG = -.1E-01   stopping-criterion for IOM
   NSW    =      0    number of steps for IOM
   NBLOCK =      1;   KBLOCK =      1    inner block; outer block 
   IBRION =     -1    ionic relax: 0-MD 1-quasi-New 2-CG
   NFREE  =      0    steps in history (QN), initial steepest desc. (CG)
   ISIF   =      2    stress and relaxation
   IWAVPR =     10    prediction:  0-non 1-charg 2-wave 3-comb
   ISYM   =      0    0-nonsym 1-usesym 2-fastsym
   LCORR  =      T    Harris-Foulkes like correction to forces

   POTIM  = 0.5000    time-step for ionic-motion
   TEIN   =    0.0    initial temperature
   TEBEG  =    0.0;   TEEND  =   0.0 temperature during run
   SMASS  =  -3.00    Nose mass-parameter (am)
   estimated Nose-frequenzy (Omega)   =  0.10E-29 period in steps =****** mass=  -0.504E-26a.u.
   SCALEE = 1.0000    scale energy and forces
   NPACO  =    256;   APACO  = 16.0  distance and # of slots for P.C.
   PSTRESS=    0.0 pullay stress

  Mass of Ions in am
   POMASS =  12.01 14.00 12.01 52.00 12.01 16.00
  Ionic Valenz
   ZVAL   =   4.00  5.00  4.00 12.00  4.00  6.00
  Atomic Wigner-Seitz radii
   RWIGS  =  -1.00 -1.00 -1.00 -1.00 -1.00 -1.00
  virtual crystal weights 
   VCA    =   1.00  1.00  1.00  1.00  1.00  1.00
   NELECT =     303.0000    total number of electrons
   NUPDOWN=      -1.0000    fix difference up-down

 DOS related values:
   EMIN   = -14.00;   EMAX   =  6.00  energy-range for DOS
   EFERMI =   0.00
   ISMEAR =    -5;   SIGMA  =   0.20  broadening in eV -4-tet -1-fermi 0-gaus

 Electronic relaxation 2 (details)
   IALGO  =     38    algorithm
   LDIAG  =      T    sub-space diagonalisation (order eigenvalues)
   LSUBROT=      F    optimize rotation matrix (better conditioning)
   TURBO    =      0    0=normal 1=particle mesh
   IRESTART =      0    0=no restart 2=restart with 2 vectors
   NREBOOT  =      0    no. of reboots
   NMIN     =      0    reboot dimension
   EREF     =   0.00    reference energy to select bands
   IMIX   =      4    mixing-type and parameters
     AMIX     =   0.25;   BMIX     =  0.00
     AMIX_MAG =   1.00;   BMIX_MAG =  0.00
     AMIN     =   0.10
     WC   =   100.;   INIMIX=   1;  MIXPRE=   1;  MAXMIX= -45

 Intra band minimization:
   WEIMIN = 0.0000     energy-eigenvalue tresh-hold
   EBREAK =  0.13E-06  absolut break condition
   DEPER  =   0.30     relativ break condition  

   TIME   =   0.40     timestep for ELM

  volume/ion in A,a.u.               =      38.93       262.74
  Fermi-wavevector in a.u.,A,eV,Ry     =   0.776259  1.466917  8.198571  0.602578
  Thomas-Fermi vector in A             =   1.878699
 
 Write flags
   LWAVE        =      F    write WAVECAR
   LDOWNSAMPLE  =      F    k-point downsampling of WAVECAR
   LCHARG       =      F    write CHGCAR
   LVTOT        =      F    write LOCPOT, total local potential
   LVHAR        =      F    write LOCPOT, Hartree potential only
   LELF         =      F    write electronic localiz. function (ELF)
   LORBIT       =     11    0 simple, 1 ext, 2 COOP (PROOUT), +10 PAW based schemes


 Dipole corrections
   LMONO  =      F    monopole corrections only (constant potential shift)
   LDIPOL =      F    correct potential (dipole corrections)
   IDIPOL =      0    1-x, 2-y, 3-z, 4-all directions 
   EPSILON=  1.0000000 bulk dielectric constant

 Exchange correlation treatment:
   GGA     =    --    GGA type
   LEXCH   =     8    internal setting for exchange type
   VOSKOWN=      0    Vosko Wilk Nusair interpolation
   LHFCALC =     F    Hartree Fock is set to
   LHFONE  =     F    Hartree Fock one center treatment
   AEXX    =    0.0000 exact exchange contribution

 Linear response parameters
   LEPSILON=     F    determine dielectric tensor
   LRPA    =     F    only Hartree local field effects (RPA)
   LNABLA  =     F    use nabla operator in PAW spheres
   LVEL    =     F    velocity operator in full k-point grid
   LINTERFAST=   F  fast interpolation
   KINTER  =     0    interpolate to denser k-point grid
   CSHIFT  =0.1000    complex shift for real part using Kramers Kronig
   OMEGAMAX=  -1.0    maximum frequency
   DEG_THRESHOLD= 0.2000000E-02 threshold for treating states as degnerate
   RTIME   =   -0.100 relaxation time in fs
  (WPLASMAI=    0.000 imaginary part of plasma frequency in eV, 0.658/RTIME)
   DFIELD  = 0.0000000 0.0000000 0.0000000 field for delta impulse in time
 
 Orbital magnetization related:
   ORBITALMAG=     F  switch on orbital magnetization
   LCHIMAG   =     F  perturbation theory with respect to B field
   DQ        =  0.001000  dq finite difference perturbation B field
   LLRAUG    =     F  two centre corrections for induced B field



--------------------------------------------------------------------------------------------------------


 Static calculation
 charge density and potential will be updated during run
 spin polarized calculation
 Variant of blocked Davidson
 Davidson routine will perform the subspace rotation
 perform sub-space diagonalisation
    after iterative eigenvector-optimisation
 modified Broyden-mixing scheme, WC =      100.0
 initial mixing is a Kerker type mixing with AMIX =  0.2500 and BMIX =      0.0001
 Hartree-type preconditioning will be used
 using additional bands           40
 reciprocal scheme for non local part
 use partial core corrections
 calculate Harris-corrections to forces 
   (improved forces if not selfconsistent)
 use gradient corrections 
 use of overlap-Matrix (Vanderbilt PP)
 Fermi weights with tetrahedron method with Bloechl corrections


--------------------------------------------------------------------------------------------------------


  energy-cutoff  :      440.00
  volume of cell :     2842.15
      direct lattice vectors                 reciprocal lattice vectors
    14.857142946  0.007480851  0.000000000     0.067287951  0.039205712  0.000000000
    -7.428571473 12.749503263  0.000000000    -0.000039482  0.078411424  0.000000000
     0.000000000  0.000000000 15.000000000     0.000000000  0.000000000  0.066666667

  length of vectors
    14.857144830 14.755795728 15.000000000     0.077876545  0.078411434  0.066666667


 
 k-points in units of 2pi/SCALE and weight: K-Points                                
   0.00000000  0.00000000  0.00000000       0.111
   0.02242932  0.01306857  0.00000000       0.222
  -0.00001316  0.02613714  0.00000000       0.222
   0.02241616  0.03920571  0.00000000       0.222
  -0.02244248  0.01306857  0.00000000       0.222
 
 k-points in reciprocal lattice and weights: K-Points                                
   0.00000000  0.00000000  0.00000000       0.111
   0.33333333 -0.00000000  0.00000000       0.222
  -0.00000000  0.33333333  0.00000000       0.222
   0.33333333  0.33333333  0.00000000       0.222
  -0.33333333  0.33333333  0.00000000       0.222
 
 position of ions in fractional coordinates (direct lattice) 
   0.99965574  0.99983552  0.48357354
   0.05559723  0.11121243  0.48365671
   0.16796930  0.00193273  0.48346160
   0.22355533  0.11332827  0.48417028
   0.33470459  0.00201631  0.48365477
   0.39004769  0.11318320  0.48430557
   0.50099170  0.00003970  0.48364298
   0.55564714  0.11138003  0.48359301
   0.66582052  0.99779120  0.48423278
   0.72109146  0.10818554  0.48356680
   0.83163736  0.99811401  0.48425859
   0.88795553  0.10916207  0.48365236
   0.99892101  0.16540491  0.48374259
   0.05429022  0.27678888  0.48441758
   0.16737141  0.16806913  0.48429783
   0.22305089  0.27969135  0.48601293
   0.33520109  0.17007680  0.48533504
   0.39080911  0.28138814  0.48846810
   0.50107829  0.16792244  0.48432895
   0.55707480  0.27974385  0.48599247
   0.66647527  0.16453438  0.48349728
   0.72266284  0.27610679  0.48395593
   0.83171433  0.16386523  0.48357236
   0.88751833  0.27577506  0.48368262
   0.99874314  0.33192849  0.48423617
   0.05429810  0.44361830  0.48468695
   0.16530149  0.33295816  0.48595062
   0.21918096  0.44402194  0.48765788
   0.33548356  0.33790190  0.48931434
   0.38805142  0.44900127  0.49525980
   0.50292386  0.33792459  0.48954857
   0.56120076  0.44870885  0.49569344
   0.66773136  0.33253244  0.48558018
   0.72484358  0.44377278  0.48718867
   0.83324742  0.33195031  0.48383465
   0.88953305  0.44377927  0.48417776
   0.99993847  0.49978299  0.48420182
   0.05571602  0.61131374  0.48419680
   0.16462299  0.49986715  0.48621882
   0.22052179  0.61152504  0.48620100
   0.32919601  0.49966068  0.49116985
   0.38521524  0.61192195  0.49113661
   0.67064500  0.49940822  0.49116199
   0.72676870  0.61207130  0.49107691
   0.83551375  0.49983976  0.48548173
   0.89114608  0.61126402  0.48548281
   0.00131300  0.66731285  0.48418212
   0.05672185  0.77896699  0.48383276
   0.16641399  0.66747053  0.48468507
   0.22255160  0.77893687  0.48424087
   0.33129581  0.66766669  0.48759424
   0.38864481  0.77900318  0.48588901
   0.49497505  0.66268766  0.49541623
   0.55287085  0.77288982  0.48948535
   0.66796215  0.66298475  0.49552060
   0.72057731  0.77398625  0.48945960
   0.83645857  0.66734663  0.48712427
   0.89031198  0.77836725  0.48555235
   0.00135786  0.83448979  0.48395286
   0.05652946  0.94563822  0.48346394
   0.16760915  0.83485015  0.48367052
   0.22338853  0.94625966  0.48353513
   0.33357985  0.83452863  0.48440146
   0.38984902  0.94557513  0.48373785
   0.50008170  0.83226969  0.48595485
   0.55592062  0.94341682  0.48428691
   0.66478930  0.83062073  0.48852427
   0.71994986  0.94137794  0.48540487
   0.83264678  0.83160384  0.48595478
   0.88773422  0.94300885  0.48432827
   0.52802291  0.55565984  0.54119420
   0.52802291  0.55565984  0.93986087
   0.47796532  0.49875808  0.99621668
 
 position of ions in cartesian coordinates  (Angst):
   7.42467867 12.75488444  7.25360310
  -0.00013348  1.41831922  7.25485067
   2.48118651  0.02589796  7.25192400
   2.47952638  1.44655151  7.26255423
   4.95777564  0.02821079  7.25482162
   4.95420480  1.44594752  7.26458360
   7.44301035  0.00425402  7.25464477
   7.42793444  1.42419678  7.25389519
   2.48002748 12.72632305  7.26349165
   9.90969484  1.38470622  7.25350205
   4.94119390 12.73167921  7.26387882
  12.38156397  1.39840487  7.25478543
  13.61238998  2.11630328  7.25613889
  -1.24954841  3.52932685  7.26626367
   1.23814744  2.14405000  7.26446746
   1.23619169  3.56759444  7.29019396
   3.71670285  2.17090227  7.28002564
   3.71599495  3.59048255  7.32702147
   6.19716797  2.14467620  7.26493431
   6.19844270  3.57076252  7.28988705
   8.67966297  2.10271743  7.25245913
   8.68562601  3.52563060  7.25933890
  11.13961415  2.09542225  7.25358543
  11.13737194  3.52263437  7.25523924
  12.37271510  4.23939476  7.26354259
  -2.48873570  5.65631920  7.27030422
  -0.01749558  4.24628778  7.28925928
  -0.04204587  5.66269880  7.31486813
   2.47419882  4.31059102  7.33971507
   2.42989741  5.72744610  7.42889702
   4.96171467  4.31213302  7.34322856
   5.00457408  5.72501327  7.43540164
   7.45033924  4.24461868  7.28370274
   7.47250686  5.66330496  7.30783008
   9.91375936  4.23843495  7.25751973
   9.91927360  5.66461972  7.26266634
  11.14355508  6.37946531  7.26302734
  -3.71340695  7.79436330  7.26295202
  -1.26747166  6.37428943  7.29328230
  -1.26643375  7.79829019  7.29301497
   1.17914713  6.37288819  7.36754781
   1.17749200  7.80458264  7.36704911
   6.25397895  6.37222370  7.36742983
   6.25089112  7.80904183  7.36615360
   8.70025188  6.37895898  7.28222588
   8.69906617  7.79997915  7.28224218
  -4.93767377  8.50791724  7.26273176
  -4.94388738  9.93186648  7.25749147
  -2.48591610  8.51116261  7.27027603
  -2.47990721  9.93272306  7.26361311
  -0.03770045  8.51489699  7.31391364
  -0.01272936  9.93481102  7.28833509
   2.43109246  8.45264127  7.43124341
   2.47261400  9.85809719  7.34228019
   4.99897960  8.45772314  7.43280899
   4.95610794  9.87333076  7.34189396
   7.46995251  8.51459540  7.30686408
   7.44533558  9.93045607  7.28328532
  -6.17889305 10.63934045  7.25929296
  -6.18487486 12.05684043  7.25195907
  -3.71155100 10.64517861  7.25505780
  -3.71044213 12.06601170  7.25302699
  -1.24331210 10.64232101  7.26602185
  -1.23222985 12.05852954  7.25606774
   1.24721041 10.61476622  7.28932281
   1.25115287 12.03225462  7.26430372
   3.70654422 10.59497489  7.32786402
   3.70330470 12.00748698  7.28107312
   6.19312363 10.60876482  7.28932174
   6.18398559 12.02953536  7.26492408
   3.71715302  7.08833706  8.11791304
   3.71715302  7.08833706 14.09791304
   3.39613908  6.36249337 14.94325023
 


--------------------------------------------------------------------------------------------------------


 k-point  1 :   0.0000 0.0000 0.0000  plane waves:   59569
 k-point  2 :   0.3333-0.0000 0.0000  plane waves:   59534
 k-point  3 :  -0.0000 0.3333 0.0000  plane waves:   59592
 k-point  4 :   0.3333 0.3333 0.0000  plane waves:   59608
 k-point  5 :  -0.3333 0.3333 0.0000  plane waves:   59538

 maximum and minimum number of plane-waves per node :      4995     4938

 maximum number of plane-waves:     59608
 maximum index in each direction: 
   IXMAX=   25   IYMAX=   25   IZMAX=   25
   IXMIN=  -25   IYMIN=  -25   IZMIN=  -25


 parallel 3D FFT for wavefunctions:
    minimum data exchange during FFTs selected (reduces bandwidth)
 parallel 3D FFT for charge:
    minimum data exchange during FFTs selected (reduces bandwidth)


 total amount of memory used by VASP MPI-rank0   115989. kBytes
=======================================================================

   base      :      30000. kBytes
   nonl-proj :      27264. kBytes
   fftplans  :       4700. kBytes
   grid      :      15193. kBytes
   one-center:        217. kBytes
   wavefun   :      38615. kBytes
 
     INWAV:  cpu time    0.0000: real time    0.0000
 Broyden mixing: mesh for mixing (old mesh)
   NGX = 51   NGY = 51   NGZ = 51
  (NGX  =160   NGY  =160   NGZ  =160)
  gives a total of 132651 points

 initial charge density was supplied:
 charge density of overlapping atoms calculated
 number of electron     303.0000000 magnetization       2.0000000
 keeping initial charge density in first step


--------------------------------------------------------------------------------------------------------


 Maximum index for augmentation-charges          177 (set IRDMAX)


--------------------------------------------------------------------------------------------------------


 First call to EWALD:  gamma=   0.125
 Maximum number of real-space cells 3x 3x 3
 Maximum number of reciprocal cells 3x 3x 3

    FEWALD:  cpu time    0.0040: real time    0.0042


--------------------------------------- Iteration      1(   1)  ---------------------------------------


    POTLOK:  cpu time    0.2257: real time    0.2596
    SETDIJ:  cpu time    0.0084: real time    0.0098
     EDDAV:  cpu time   11.1600: real time   11.2788
 BZINTS: Fermi energy:  7.973911;303.000000 electrons
         Band energy:***********;  BLOECHL correction: -0.009594
       DOS:  cpu time    0.1108: real time    0.1112
    --------------------------------------------
      LOOP:  cpu time   11.5050: real time   11.6594

 eigenvalue-minimisations  :  4360
 total energy-change (2. order) : 0.2530197E+04  (-0.1118000E+05)
 number of electron     303.0000000 magnetization       2.0000000
 augmentation part      303.0000000 magnetization       2.0000000

 Free energy of the ion-electron system (eV)
  ---------------------------------------------------
  alpha Z        PSCENC =       167.31142524
  Ewald energy   TEWEN  =     28897.76118906
  -Hartree energ DENC   =    -38575.96919426
  -exchange      EXHF   =         0.00000000
  -V(xc)+E(xc)   XCENC  =      1022.21521770
  PAW double counting   =      9455.23336183    -9546.47664214
  entropy T*S    EENTRO =         0.00000000
  eigenvalues    EBANDS =     -1534.63120441
  atomic energy  EATOM  =     12644.75315347
  Solvation  Ediel_sol  =         0.00000000
  ---------------------------------------------------
  free energy    TOTEN  =      2530.19730649 eV

  energy without entropy =     2530.19730649  energy(sigma->0) =     2530.19730649


--------------------------------------------------------------------------------------------------------




--------------------------------------- Iteration      1(   2)  ---------------------------------------


     EDDAV:  cpu time   15.2256: real time   15.3624
 BZINTS: Fermi energy: -1.368463;303.000000 electrons
         Band energy:***********;  BLOECHL correction: -0.045807
       DOS:  cpu time    0.0119: real time    0.0119
    --------------------------------------------
      LOOP:  cpu time   15.2375: real time   15.3743

 eigenvalue-minimisations  :  5512
 total energy-change (2. order) :-0.2769590E+04  (-0.2644340E+04)
 number of electron     303.0000000 magnetization       2.0000000
 augmentation part      303.0000000 magnetization       2.0000000

 Free energy of the ion-electron system (eV)
  ---------------------------------------------------
  alpha Z        PSCENC =       167.31142524
  Ewald energy   TEWEN  =     28897.76118906
  -Hartree energ DENC   =    -38575.96919426
  -exchange      EXHF   =         0.00000000
  -V(xc)+E(xc)   XCENC  =      1022.21521770
  PAW double counting   =      9455.23336183    -9546.47664214
  entropy T*S    EENTRO =         0.00000000
  eigenvalues    EBANDS =     -4304.22081367
  atomic energy  EATOM  =     12644.75315347
  Solvation  Ediel_sol  =         0.00000000
  ---------------------------------------------------
  free energy    TOTEN  =      -239.39230276 eV

  energy without entropy =     -239.39230276  energy(sigma->0) =     -239.39230276


--------------------------------------------------------------------------------------------------------




--------------------------------------- Iteration      1(   3)  ---------------------------------------


     EDDAV:  cpu time   12.5535: real time   12.6751
 BZINTS: Fermi energy: -4.521614;303.000000 electrons
         Band energy:***********;  BLOECHL correction: -0.056719
       DOS:  cpu time    0.0114: real time    0.0115
    --------------------------------------------
      LOOP:  cpu time   12.5650: real time   12.6866

 eigenvalue-minimisations  :  4592
 total energy-change (2. order) :-0.4631675E+03  (-0.4596265E+03)
 number of electron     303.0000000 magnetization       2.0000000
 augmentation part      303.0000000 magnetization       2.0000000

 Free energy of the ion-electron system (eV)
  ---------------------------------------------------
  alpha Z        PSCENC =       167.31142524
  Ewald energy   TEWEN  =     28897.76118906
  -Hartree energ DENC   =    -38575.96919426
  -exchange      EXHF   =         0.00000000
  -V(xc)+E(xc)   XCENC  =      1022.21521770
  PAW double counting   =      9455.23336183    -9546.47664214
  entropy T*S    EENTRO =         0.00000000
  eigenvalues    EBANDS =     -4767.38830020
  atomic energy  EATOM  =     12644.75315347
  Solvation  Ediel_sol  =         0.00000000
  ---------------------------------------------------
  free energy    TOTEN  =      -702.55978930 eV

  energy without entropy =     -702.55978930  energy(sigma->0) =     -702.55978930


--------------------------------------------------------------------------------------------------------




--------------------------------------- Iteration      1(   4)  ---------------------------------------


     EDDAV:  cpu time   12.7269: real time   12.8393
 BZINTS: Fermi energy: -4.695172;303.000000 electrons
         Band energy:***********;  BLOECHL correction: -0.049264
       DOS:  cpu time    0.0117: real time    0.0117
    --------------------------------------------
      LOOP:  cpu time   12.7385: real time   12.8509

 eigenvalue-minimisations  :  4624
 total energy-change (2. order) :-0.1671937E+02  (-0.1657528E+02)
 number of electron     303.0000000 magnetization       2.0000000
 augmentation part      303.0000000 magnetization       2.0000000

 Free energy of the ion-electron system (eV)
  ---------------------------------------------------
  alpha Z        PSCENC =       167.31142524
  Ewald energy   TEWEN  =     28897.76118906
  -Hartree energ DENC   =    -38575.96919426
  -exchange      EXHF   =         0.00000000
  -V(xc)+E(xc)   XCENC  =      1022.21521770
  PAW double counting   =      9455.23336183    -9546.47664214
  entropy T*S    EENTRO =         0.00000000
  eigenvalues    EBANDS =     -4784.10766836
  atomic energy  EATOM  =     12644.75315347
  Solvation  Ediel_sol  =         0.00000000
  ---------------------------------------------------
  free energy    TOTEN  =      -719.27915746 eV

  energy without entropy =     -719.27915746  energy(sigma->0) =     -719.27915746


--------------------------------------------------------------------------------------------------------




--------------------------------------- Iteration      1(   5)  ---------------------------------------


     EDDAV:  cpu time   14.0144: real time   14.7634
 BZINTS: Fermi energy: -4.704824;303.000000 electrons
         Band energy:***********;  BLOECHL correction: -0.048625
       DOS:  cpu time    0.0113: real time    0.0113
    CHARGE:  cpu time    0.1662: real time    0.1711
    MIXING:  cpu time    0.0048: real time    0.0049
    --------------------------------------------
      LOOP:  cpu time   14.1968: real time   14.9507

 eigenvalue-minimisations  :  5248
 total energy-change (2. order) :-0.5473826E+00  (-0.5460355E+00)
 number of electron     302.9999962 magnetization       0.0115166
 augmentation part       12.3790165 magnetization       0.0666728

 Broyden mixing:
  rms(total) = 0.47667E+01    rms(broyden)= 0.47662E+01
  rms(prec ) = 0.55242E+01
  weight for this iteration     100.00

 Free energy of the ion-electron system (eV)
  ---------------------------------------------------
  alpha Z        PSCENC =       167.31142524
  Ewald energy   TEWEN  =     28897.76118906
  -Hartree energ DENC   =    -38575.96919426
  -exchange      EXHF   =         0.00000000
  -V(xc)+E(xc)   XCENC  =      1022.21521770
  PAW double counting   =      9455.23336183    -9546.47664214
  entropy T*S    EENTRO =         0.00000000
  eigenvalues    EBANDS =     -4784.65505101
  atomic energy  EATOM  =     12644.75315347
  Solvation  Ediel_sol  =         0.00000000
  ---------------------------------------------------
  free energy    TOTEN  =      -719.82654010 eV

  energy without entropy =     -719.82654010  energy(sigma->0) =     -719.82654010


--------------------------------------------------------------------------------------------------------




--------------------------------------- Iteration      1(   6)  ---------------------------------------


    POTLOK:  cpu time    0.2095: real time    0.2130
    SETDIJ:  cpu time    0.0106: real time    0.0107
     EDDAV:  cpu time   12.5518: real time   12.6590
 BZINTS: Fermi energy: -5.521656;303.000000 electrons
         Band energy:***********;  BLOECHL correction: -0.022900
       DOS:  cpu time    0.0117: real time    0.0117
    CHARGE:  cpu time    0.1649: real time    0.1712
    MIXING:  cpu time    0.0031: real time    0.0039
    --------------------------------------------
      LOOP:  cpu time   12.9516: real time   13.0693

 eigenvalue-minimisations  :  4872
 total energy-change (2. order) :-0.1674112E+00  (-0.9039652E+01)
 number of electron     303.0000001 magnetization       0.0090086
 augmentation part       18.0199947 magnetization       0.0256612

 Broyden mixing:
  rms(total) = 0.74687E+01    rms(broyden)= 0.74685E+01
  rms(prec ) = 0.85455E+01
  weight for this iteration     100.00

 eigenvalues of (default mixing * dielectric matrix)
  average eigenvalue GAMMA=   0.2827
  0.2827

 Free energy of the ion-electron system (eV)
  ---------------------------------------------------
  alpha Z        PSCENC =       167.31142524
  Ewald energy   TEWEN  =     28897.76118906
  -Hartree energ DENC   =    -38952.26976207
  -exchange      EXHF   =         0.00000000
  -V(xc)+E(xc)   XCENC  =      1035.01581447
  PAW double counting   =     13243.18133094   -13334.39295922
  entropy T*S    EENTRO =         0.00000000
  eigenvalues    EBANDS =     -4421.35414324
  atomic energy  EATOM  =     12644.75315347
  Solvation  Ediel_sol  =         0.00000000
  ---------------------------------------------------
  free energy    TOTEN  =      -719.99395134 eV

  energy without entropy =     -719.99395134  energy(sigma->0) =     -719.99395134


--------------------------------------------------------------------------------------------------------




--------------------------------------- Iteration      1(   7)  ---------------------------------------


    POTLOK:  cpu time    0.1354: real time    0.1424
    SETDIJ:  cpu time    0.0096: real time    0.0096
     EDDAV:  cpu time   12.8242: real time   12.9118
 BZINTS: Fermi energy: -4.144227;303.000000 electrons
         Band energy:***********;  BLOECHL correction: -0.016962
       DOS:  cpu time    0.0127: real time    0.0127
    CHARGE:  cpu time    0.1963: real time    0.2030
    MIXING:  cpu time    0.0040: real time    0.0044
    --------------------------------------------
      LOOP:  cpu time   13.1822: real time   13.2839

 eigenvalue-minimisations  :  4944
 total energy-change (2. order) : 0.4655766E+02  (-0.6280540E+01)
 number of electron     302.9999993 magnetization       0.5978549
 augmentation part       14.5443325 magnetization       0.3546804

 Broyden mixing:
  rms(total) = 0.26793E+01    rms(broyden)= 0.26787E+01
  rms(prec ) = 0.29574E+01
  weight for this iteration     100.00

 eigenvalues of (default mixing * dielectric matrix)
  average eigenvalue GAMMA=   0.6277
  0.9357  0.3197

 Free energy of the ion-electron system (eV)
  ---------------------------------------------------
  alpha Z        PSCENC =       167.31142524
  Ewald energy   TEWEN  =     28897.76118906
  -Hartree energ DENC   =    -39093.42253744
  -exchange      EXHF   =         0.00000000
  -V(xc)+E(xc)   XCENC  =      1039.49090136
  PAW double counting   =     14479.79558873   -14575.54774531
  entropy T*S    EENTRO =         0.00000000
  eigenvalues    EBANDS =     -4233.57826174
  atomic energy  EATOM  =     12644.75315347
  Solvation  Ediel_sol  =         0.00000000
  ---------------------------------------------------
  free energy    TOTEN  =      -673.43628661 eV

  energy without entropy =     -673.43628661  energy(sigma->0) =     -673.43628661


--------------------------------------------------------------------------------------------------------




--------------------------------------- Iteration      1(   8)  ---------------------------------------


    POTLOK:  cpu time    0.1340: real time    0.1363
    SETDIJ:  cpu time    0.0098: real time    0.0099
     EDDAV:  cpu time   12.4746: real time   12.5577
 BZINTS: Fermi energy: -2.410581;303.000000 electrons
         Band energy:***********;  BLOECHL correction: -0.035948
       DOS:  cpu time    0.0115: real time    0.0115
    CHARGE:  cpu time    0.1638: real time    0.1651
    MIXING:  cpu time    0.0037: real time    0.0037
    --------------------------------------------
      LOOP:  cpu time   12.7975: real time   12.8842

 eigenvalue-minimisations  :  4888
 total energy-change (2. order) : 0.3226239E+01  (-0.3856389E+01)
 number of electron     302.9999971 magnetization       0.1989828
 augmentation part       12.2194196 magnetization       0.1760022

 Broyden mixing:
  rms(total) = 0.26576E+01    rms(broyden)= 0.26569E+01
  rms(prec ) = 0.31379E+01
  weight for this iteration     100.00

 eigenvalues of (default mixing * dielectric matrix)
  average eigenvalue GAMMA=   1.1193
  2.5707  0.3936  0.3936

 Free energy of the ion-electron system (eV)
  ---------------------------------------------------
  alpha Z        PSCENC =       167.31142524
  Ewald energy   TEWEN  =     28897.76118906
  -Hartree energ DENC   =    -39378.15865761
  -exchange      EXHF   =         0.00000000
  -V(xc)+E(xc)   XCENC  =      1049.14684320
  PAW double counting   =     18108.63248192   -18207.59905176
  entropy T*S    EENTRO =         0.00000000
  eigenvalues    EBANDS =     -3952.05743135
  atomic energy  EATOM  =     12644.75315347
  Solvation  Ediel_sol  =         0.00000000
  ---------------------------------------------------
  free energy    TOTEN  =      -670.21004782 eV

  energy without entropy =     -670.21004782  energy(sigma->0) =     -670.21004782


--------------------------------------------------------------------------------------------------------




--------------------------------------- Iteration      1(   9)  ---------------------------------------


    POTLOK:  cpu time    0.1354: real time    0.1377
    SETDIJ:  cpu time    0.0098: real time    0.0099
     EDDAV:  cpu time   12.2100: real time   12.2814
 BZINTS: Fermi energy: -2.801199;303.000000 electrons
         Band energy:***********;  BLOECHL correction: -0.086603
       DOS:  cpu time    0.0113: real time    0.0113
    CHARGE:  cpu time    0.1663: real time    0.1675
    MIXING:  cpu time    0.0036: real time    0.0036
    --------------------------------------------
      LOOP:  cpu time   12.5364: real time   12.6114

 eigenvalue-minimisations  :  4600
 total energy-change (2. order) : 0.5675910E+01  (-0.2567385E+01)
 number of electron     302.9999998 magnetization      -0.1168640
 augmentation part       15.0041941 magnetization      -0.1403064

 Broyden mixing:
  rms(total) = 0.20841E+01    rms(broyden)= 0.20825E+01
  rms(prec ) = 0.26712E+01
  weight for this iteration     100.00

 eigenvalues of (default mixing * dielectric matrix)
  average eigenvalue GAMMA=   1.0708
  2.7709  0.8091  0.3517  0.3517

 Free energy of the ion-electron system (eV)
  ---------------------------------------------------
  alpha Z        PSCENC =       167.31142524
  Ewald energy   TEWEN  =     28897.76118906
  -Hartree energ DENC   =    -39803.01776202
  -exchange      EXHF   =         0.00000000
  -V(xc)+E(xc)   XCENC  =      1064.58973830
  PAW double counting   =     25994.20356870   -26096.59548752
  entropy T*S    EENTRO =         0.00000000
  eigenvalues    EBANDS =     -3533.53996303
  atomic energy  EATOM  =     12644.75315347
  Solvation  Ediel_sol  =         0.00000000
  ---------------------------------------------------
  free energy    TOTEN  =      -664.53413781 eV

  energy without entropy =     -664.53413781  energy(sigma->0) =     -664.53413781


--------------------------------------------------------------------------------------------------------




--------------------------------------- Iteration      1(  10)  ---------------------------------------


    POTLOK:  cpu time    0.1456: real time    0.1482
    SETDIJ:  cpu time    0.0085: real time    0.0085
     EDDAV:  cpu time   13.3334: real time   13.4226
 BZINTS: Fermi energy: -1.252239;303.000000 electrons
         Band energy:***********;  BLOECHL correction: -0.063566
       DOS:  cpu time    0.0108: real time    0.0108
    CHARGE:  cpu time    0.1652: real time    0.1656
    MIXING:  cpu time    0.0039: real time    0.0039
    --------------------------------------------
      LOOP:  cpu time   13.6673: real time   13.7597

 eigenvalue-minimisations  :  5208
 total energy-change (2. order) : 0.2354248E+01  (-0.2056902E+01)
 number of electron     302.9999990 magnetization      -0.1289001
 augmentation part       12.6321190 magnetization      -0.0892717

 Broyden mixing:
  rms(total) = 0.11377E+01    rms(broyden)= 0.11358E+01
  rms(prec ) = 0.13426E+01
  weight for this iteration     100.00

 eigenvalues of (default mixing * dielectric matrix)
  average eigenvalue GAMMA=   1.1819
  3.4115  1.1985  0.6366  0.3313  0.3313

 Free energy of the ion-electron system (eV)
  ---------------------------------------------------
  alpha Z        PSCENC =       167.31142524
  Ewald energy   TEWEN  =     28897.76118906
  -Hartree energ DENC   =    -39833.37082654
  -exchange      EXHF   =         0.00000000
  -V(xc)+E(xc)   XCENC  =      1065.77467223
  PAW double counting   =     27911.81348193   -28014.66573988
  entropy T*S    EENTRO =         0.00000000
  eigenvalues    EBANDS =     -3501.55724563
  atomic energy  EATOM  =     12644.75315347
  Solvation  Ediel_sol  =         0.00000000
  ---------------------------------------------------
  free energy    TOTEN  =      -662.17989011 eV

  energy without entropy =     -662.17989011  energy(sigma->0) =     -662.17989011


--------------------------------------------------------------------------------------------------------




--------------------------------------- Iteration      1(  11)  ---------------------------------------


    POTLOK:  cpu time    0.1793: real time    0.1823
    SETDIJ:  cpu time    0.0105: real time    0.0105
     EDDAV:  cpu time   13.2610: real time   13.3528
 BZINTS: Fermi energy: -1.735893;303.000000 electrons
         Band energy:***********;  BLOECHL correction: -0.010238
       DOS:  cpu time    0.0120: real time    0.0120
    CHARGE:  cpu time    0.2083: real time    0.2099
    MIXING:  cpu time    0.0041: real time    0.0041
    --------------------------------------------
      LOOP:  cpu time   13.6750: real time   13.7715

 eigenvalue-minimisations  :  5272
 total energy-change (2. order) : 0.6254252E+00  (-0.1590518E+00)
 number of electron     302.9999994 magnetization      -0.7094080
 augmentation part       13.3984394 magnetization      -0.3355265

 Broyden mixing:
  rms(total) = 0.69315E+00    rms(broyden)= 0.69204E+00
  rms(prec ) = 0.70748E+00
  weight for this iteration     100.00

 eigenvalues of (default mixing * dielectric matrix)
  average eigenvalue GAMMA=   1.1377
  3.4495  1.3913  0.9640  0.3422  0.3422  0.3370

 Free energy of the ion-electron system (eV)
  ---------------------------------------------------
  alpha Z        PSCENC =       167.31142524
  Ewald energy   TEWEN  =     28897.76118906
  -Hartree energ DENC   =    -39816.76592868
  -exchange      EXHF   =         0.00000000
  -V(xc)+E(xc)   XCENC  =      1065.50329212
  PAW double counting   =     29691.04085770   -29793.37151103
  entropy T*S    EENTRO =         0.00000000
  eigenvalues    EBANDS =     -3517.78694279
  atomic energy  EATOM  =     12644.75315347
  Solvation  Ediel_sol  =         0.00000000
  ---------------------------------------------------
  free energy    TOTEN  =      -661.55446491 eV

  energy without entropy =     -661.55446491  energy(sigma->0) =     -661.55446491


--------------------------------------------------------------------------------------------------------




--------------------------------------- Iteration      1(  12)  ---------------------------------------


    POTLOK:  cpu time    0.1347: real time    0.1367
    SETDIJ:  cpu time    0.0091: real time    0.0096
     EDDAV:  cpu time   12.4339: real time   12.5163
 BZINTS: Fermi energy: -2.002000;303.000000 electrons
         Band energy:***********;  BLOECHL correction:  0.000000
       DOS:  cpu time    0.0074: real time    0.0075
    CHARGE:  cpu time    0.1596: real time    0.1614
    MIXING:  cpu time    0.0041: real time    0.0041
    --------------------------------------------
      LOOP:  cpu time   12.7489: real time   12.8356

 eigenvalue-minimisations  :  4752
 total energy-change (2. order) :-0.3387621E+00  (-0.5806215E-01)
 number of electron     302.9999994 magnetization      -0.9376287
 augmentation part       13.7068797 magnetization      -0.6190040

 Broyden mixing:
  rms(total) = 0.66275E+00    rms(broyden)= 0.66237E+00
  rms(prec ) = 0.74403E+00
  weight for this iteration     100.00

 eigenvalues of (default mixing * dielectric matrix)
  average eigenvalue GAMMA=   1.2194
  3.5885  1.6158  1.3546  0.6563  0.6563  0.3322  0.3322

 Free energy of the ion-electron system (eV)
  ---------------------------------------------------
  alpha Z        PSCENC =       167.31142524
  Ewald energy   TEWEN  =     28897.76118906
  -Hartree energ DENC   =    -39776.25437693
  -exchange      EXHF   =         0.00000000
  -V(xc)+E(xc)   XCENC  =      1064.36299459
  PAW double counting   =     30697.06600881   -30798.69222803
  entropy T*S    EENTRO =         0.00000000
  eigenvalues    EBANDS =     -3558.20139322
  atomic energy  EATOM  =     12644.75315347
  Solvation  Ediel_sol  =         0.00000000
  ---------------------------------------------------
  free energy    TOTEN  =      -661.89322700 eV

  energy without entropy =     -661.89322700  energy(sigma->0) =     -661.89322700


--------------------------------------------------------------------------------------------------------




--------------------------------------- Iteration      1(  13)  ---------------------------------------


    POTLOK:  cpu time    0.1360: real time    0.1384
    SETDIJ:  cpu time    0.0104: real time    0.0104
     EDDAV:  cpu time   12.6741: real time   12.7578
 BZINTS: Fermi energy: -2.077009;303.000000 electrons
         Band energy:***********;  BLOECHL correction:  0.000000
       DOS:  cpu time    0.0064: real time    0.0064
    CHARGE:  cpu time    0.2082: real time    0.2096
    MIXING:  cpu time    0.0044: real time    0.0045
    --------------------------------------------
      LOOP:  cpu time   13.0395: real time   13.1270

 eigenvalue-minimisations  :  4928
 total energy-change (2. order) :-0.9705053E-01  (-0.6430033E-01)
 number of electron     302.9999990 magnetization      -0.9018686
 augmentation part       13.6105345 magnetization      -0.8257243

 Broyden mixing:
  rms(total) = 0.41103E+00    rms(broyden)= 0.41088E+00
  rms(prec ) = 0.46439E+00
  weight for this iteration     100.00

 eigenvalues of (default mixing * dielectric matrix)
  average eigenvalue GAMMA=   1.2161
  3.6208  1.6493  1.6493  0.8140  0.8140  0.3329  0.3329  0.5159

 Free energy of the ion-electron system (eV)
  ---------------------------------------------------
  alpha Z        PSCENC =       167.31142524
  Ewald energy   TEWEN  =     28897.76118906
  -Hartree energ DENC   =    -39748.94634892
  -exchange      EXHF   =         0.00000000
  -V(xc)+E(xc)   XCENC  =      1063.76233888
  PAW double counting   =     31658.77716034   -31759.91196031
  entropy T*S    EENTRO =         0.00000000
  eigenvalues    EBANDS =     -3585.49723531
  atomic energy  EATOM  =     12644.75315347
  Solvation  Ediel_sol  =         0.00000000
  ---------------------------------------------------
  free energy    TOTEN  =      -661.99027754 eV

  energy without entropy =     -661.99027754  energy(sigma->0) =     -661.99027754


--------------------------------------------------------------------------------------------------------




--------------------------------------- Iteration      1(  14)  ---------------------------------------


    POTLOK:  cpu time    0.1357: real time    0.1381
    SETDIJ:  cpu time    0.0099: real time    0.0100
     EDDAV:  cpu time   11.9241: real time   12.0067
 BZINTS: Fermi energy: -2.076980;303.000000 electrons
         Band energy:***********;  BLOECHL correction:  0.000000
       DOS:  cpu time    0.0063: real time    0.0064
    CHARGE:  cpu time    0.1631: real time    0.1637
    MIXING:  cpu time    0.0042: real time    0.0042
    --------------------------------------------
      LOOP:  cpu time   12.2433: real time   12.3291

 eigenvalue-minimisations  :  4488
 total energy-change (2. order) :-0.5389683E-01  (-0.6720586E-02)
 number of electron     302.9999990 magnetization      -0.8812255
 augmentation part       13.6276454 magnetization      -0.8799324

 Broyden mixing:
  rms(total) = 0.39368E+00    rms(broyden)= 0.39365E+00
  rms(prec ) = 0.45664E+00
  weight for this iteration     100.00

 eigenvalues of (default mixing * dielectric matrix)
  average eigenvalue GAMMA=   1.3494
  3.4664  2.3372  2.3372  1.0250  1.0250  0.3326  0.3326  0.6443  0.6443

 Free energy of the ion-electron system (eV)
  ---------------------------------------------------
  alpha Z        PSCENC =       167.31142524
  Ewald energy   TEWEN  =     28897.76118906
  -Hartree energ DENC   =    -39751.46567762
  -exchange      EXHF   =         0.00000000
  -V(xc)+E(xc)   XCENC  =      1063.88424855
  PAW double counting   =     31748.90222254   -31849.99973334
  entropy T*S    EENTRO =         0.00000000
  eigenvalues    EBANDS =     -3583.19100228
  atomic energy  EATOM  =     12644.75315347
  Solvation  Ediel_sol  =         0.00000000
  ---------------------------------------------------
  free energy    TOTEN  =      -662.04417436 eV

  energy without entropy =     -662.04417436  energy(sigma->0) =     -662.04417436


--------------------------------------------------------------------------------------------------------




--------------------------------------- Iteration      1(  15)  ---------------------------------------


    POTLOK:  cpu time    0.1736: real time    0.1761
    SETDIJ:  cpu time    0.0098: real time    0.0098
     EDDAV:  cpu time   12.4812: real time   12.5690
 BZINTS: Fermi energy: -2.095770;303.000000 electrons
         Band energy:***********;  BLOECHL correction: -0.000239
       DOS:  cpu time    0.0106: real time    0.0106
    CHARGE:  cpu time    0.1657: real time    0.1662
    MIXING:  cpu time    0.0040: real time    0.0040
    --------------------------------------------
      LOOP:  cpu time   12.8449: real time   12.9358

 eigenvalue-minimisations  :  4704
 total energy-change (2. order) :-0.1282224E-01  (-0.1788990E-01)
 number of electron     302.9999989 magnetization      -0.9394494
 augmentation part       13.5866076 magnetization      -1.0836901

 Broyden mixing:
  rms(total) = 0.28607E+00    rms(broyden)= 0.28601E+00
  rms(prec ) = 0.34439E+00
  weight for this iteration     100.00

 eigenvalues of (default mixing * dielectric matrix)
  average eigenvalue GAMMA=   1.3106
  3.5581  2.1752  2.1752  1.2811  1.2811  0.3326  0.3326  0.7127  0.7127  0.5448

 Free energy of the ion-electron system (eV)
  ---------------------------------------------------
  alpha Z        PSCENC =       167.31142524
  Ewald energy   TEWEN  =     28897.76118906
  -Hartree energ DENC   =    -39749.95130048
  -exchange      EXHF   =         0.00000000
  -V(xc)+E(xc)   XCENC  =      1063.97308134
  PAW double counting   =     31767.53478519   -31868.54855969
  entropy T*S    EENTRO =         0.00000000
  eigenvalues    EBANDS =     -3584.89077074
  atomic energy  EATOM  =     12644.75315347
  Solvation  Ediel_sol  =         0.00000000
  ---------------------------------------------------
  free energy    TOTEN  =      -662.05699660 eV

  energy without entropy =     -662.05699660  energy(sigma->0) =     -662.05699660


--------------------------------------------------------------------------------------------------------




--------------------------------------- Iteration      1(  16)  ---------------------------------------


    POTLOK:  cpu time    0.1380: real time    0.1406
    SETDIJ:  cpu time    0.0084: real time    0.0085
     EDDAV:  cpu time   11.7987: real time   11.8981
 BZINTS: Fermi energy: -2.101713;303.000000 electrons
         Band energy:***********;  BLOECHL correction:  0.000000
       DOS:  cpu time    0.0049: real time    0.0049
    CHARGE:  cpu time    0.1960: real time    0.1999
    MIXING:  cpu time    0.0046: real time    0.0050
    --------------------------------------------
      LOOP:  cpu time   12.1505: real time   12.2570

 eigenvalue-minimisations  :  4488
 total energy-change (2. order) : 0.1380550E-01  (-0.2025409E-02)
 number of electron     302.9999988 magnetization      -0.9549798
 augmentation part       13.5482342 magnetization      -1.1193190

 Broyden mixing:
  rms(total) = 0.22164E+00    rms(broyden)= 0.22162E+00
  rms(prec ) = 0.26891E+00
  weight for this iteration     100.00

 eigenvalues of (default mixing * dielectric matrix)
  average eigenvalue GAMMA=   1.3335
  3.5462  2.5348  2.5348  1.2156  1.2156  0.3326  0.3326  0.8232  0.8232  0.7085
  0.6009

 Free energy of the ion-electron system (eV)
  ---------------------------------------------------
  alpha Z        PSCENC =       167.31142524
  Ewald energy   TEWEN  =     28897.76118906
  -Hartree energ DENC   =    -39747.75101792
  -exchange      EXHF   =         0.00000000
  -V(xc)+E(xc)   XCENC  =      1063.94165994
  PAW double counting   =     31819.69947088   -31920.66676070
  entropy T*S    EENTRO =         0.00000000
  eigenvalues    EBANDS =     -3587.09231109
  atomic energy  EATOM  =     12644.75315347
  Solvation  Ediel_sol  =         0.00000000
  ---------------------------------------------------
  free energy    TOTEN  =      -662.04319111 eV

  energy without entropy =     -662.04319111  energy(sigma->0) =     -662.04319111


[...]
   0.793E+01 -.249E+00 0.458E+01   -.787E+01 0.150E+00 -.453E+01   -.287E-01 0.577E-01 -.470E-01   -.494E-02 0.287E-02 -.137E-02
   0.284E+02 0.112E+02 0.149E+02   -.275E+02 -.116E+02 -.155E+02   -.949E+00 0.522E+00 0.609E+00   -.406E-01 -.153E-01 -.150E-01
   0.277E+02 -.884E+01 0.151E+02   -.269E+02 0.900E+01 -.157E+02   -.898E+00 -.306E+00 0.612E+00   -.395E-01 0.180E-01 -.151E-01
   -.285E+02 0.881E+01 0.144E+02   0.275E+02 -.913E+01 -.149E+02   0.916E+00 0.454E+00 0.589E+00   0.396E-01 -.173E-01 -.153E-01
   -.278E+02 -.933E+01 0.148E+02   0.270E+02 0.962E+01 -.154E+02   0.860E+00 -.418E+00 0.604E+00   0.419E-01 0.168E-01 -.156E-01
   -.714E+01 0.194E+00 0.715E+01   0.698E+01 -.112E+00 -.711E+01   0.112E+00 -.622E-01 -.348E-01   0.679E-02 -.294E-02 -.132E-02
   -.739E+01 -.166E+01 0.708E+01   0.728E+01 0.168E+01 -.704E+01   0.709E-01 -.235E-01 -.429E-01   0.642E-02 0.146E-02 -.133E-02
   -.411E+01 -.506E+01 0.768E+01   0.405E+01 0.508E+01 -.772E+01   0.483E-01 -.904E-02 0.367E-01   0.301E-02 0.351E-02 -.119E-02
   -.243E+01 -.355E+01 0.686E+01   0.239E+01 0.354E+01 -.684E+01   0.425E-01 -.934E-02 -.192E-01   0.358E-02 0.302E-02 -.105E-02
   0.613E+01 -.383E+01 0.583E+01   -.613E+01 0.379E+01 -.587E+01   -.435E-01 0.175E-01 0.272E-01   -.147E-02 0.320E-02 -.122E-02
   0.349E+01 -.374E+01 0.540E+01   -.361E+01 0.367E+01 -.538E+01   0.103E+00 0.573E-01 -.248E-01   0.430E-03 0.439E-02 -.108E-02
   0.165E+02 -.723E+01 0.687E+01   -.162E+02 0.686E+01 -.695E+01   -.226E+00 0.339E+00 0.110E+00   -.106E-01 0.756E-02 -.233E-02
   0.695E+01 -.824E+01 0.758E+01   -.726E+01 0.791E+01 -.755E+01   0.314E+00 0.303E+00 -.290E-01   -.477E-02 0.934E-02 -.147E-02
   -.514E+01 -.323E+02 0.275E+02   0.116E+02 0.281E+02 -.266E+02   -.620E+01 0.408E+01 -.876E+00   -.608E-01 0.708E-01 -.420E-01
   0.410E-01 -.139E+02 0.124E+02   0.267E+00 0.119E+02 -.126E+02   -.294E+00 0.194E+01 0.199E+00   -.133E-01 0.274E-01 -.830E-02
   0.387E+01 -.354E+02 0.265E+02   -.102E+02 0.315E+02 -.257E+02   0.613E+01 0.379E+01 -.859E+00   0.582E-01 0.715E-01 -.411E-01
   -.182E+01 -.178E+02 0.122E+02   0.201E+01 0.164E+02 -.124E+02   -.230E+00 0.137E+01 0.232E+00   0.924E-02 0.275E-01 -.842E-02
   -.156E+02 -.723E+01 0.829E+01   0.153E+02 0.703E+01 -.838E+01   0.272E+00 0.163E+00 0.115E+00   0.105E-01 0.491E-02 -.226E-02
   -.775E+01 -.111E+02 0.848E+01   0.767E+01 0.110E+02 -.845E+01   0.924E-01 0.695E-01 -.265E-01   0.597E-02 0.659E-02 -.148E-02
   -.373E+01 -.327E+01 0.825E+01   0.371E+01 0.327E+01 -.828E+01   -.233E-02 -.111E-01 0.322E-01   0.416E-02 0.386E-02 -.103E-02
   -.300E+01 -.454E+01 0.792E+01   0.313E+01 0.455E+01 -.793E+01   -.124E+00 -.889E-02 0.491E-02   0.195E-02 0.161E-02 -.963E-03
   0.970E+00 -.208E+01 0.628E+01   -.102E+01 0.210E+01 -.630E+01   0.547E-01 -.287E-01 0.245E-01   0.995E-03 0.139E-02 -.978E-03
   0.274E+00 -.179E+01 0.621E+01   -.372E+00 0.180E+01 -.620E+01   0.111E+00 -.156E-01 -.163E-01   0.348E-02 0.212E-02 -.905E-03
   0.766E+01 -.227E+01 0.676E+01   -.782E+01 0.212E+01 -.679E+01   0.201E+00 0.145E+00 0.223E-01   -.950E-03 0.637E-02 -.104E-02
   0.619E+01 -.457E+01 0.711E+01   -.679E+01 0.431E+01 -.712E+01   0.560E+00 0.250E+00 0.527E-02   0.614E-03 0.106E-02 -.917E-03
   0.686E+01 -.157E+00 0.110E+02   -.658E+01 -.152E+01 -.111E+02   -.275E+00 0.164E+01 0.683E-01   -.558E-02 0.102E-01 -.154E-02
   0.260E+02 0.576E+01 0.923E+01   -.313E+02 -.903E+01 -.928E+01   0.526E+01 0.328E+01 0.520E-01   -.609E-02 0.184E-02 -.908E-03
   -.652E+01 -.115E+01 0.600E+01   0.682E+01 -.936E+00 -.562E+01   -.269E+00 0.210E+01 -.378E+00   -.217E-02 0.201E-01 -.526E-02
   -.235E+02 0.368E+01 0.714E+01   0.287E+02 -.731E+01 -.708E+01   -.528E+01 0.361E+01 -.503E-01   0.219E-02 0.539E-02 -.153E-02
   -.349E+01 -.751E+01 0.104E+02   0.320E+01 0.706E+01 -.105E+02   0.264E+00 0.447E+00 0.845E-01   0.224E-02 0.100E-01 -.181E-02
   -.660E+01 -.677E+01 0.876E+01   0.712E+01 0.631E+01 -.880E+01   -.480E+00 0.466E+00 0.372E-01   -.601E-03 0.423E-02 -.957E-03
   -.213E+01 0.208E+01 -.616E+03   0.209E+01 -.215E+01 0.597E+03   0.524E-01 0.635E-01 0.191E+02   -.703E-02 -.519E-02 -.711E-01
   -.638E+02 -.144E+03 0.107E+03   0.710E+02 0.160E+03 -.126E+03   -.774E+01 -.175E+02 0.204E+02   -.412E-03 -.658E-03 0.668E-02
   0.557E+02 0.126E+03 -.139E+03   -.713E+02 -.162E+03 0.180E+03   0.162E+02 0.366E+02 -.426E+02   -.252E-03 -.448E-03 0.381E-02
 -----------------------------------------------------------------------------------------------
   -.827E+01 -.192E+02 0.320E+01   -.256E-12 0.540E-12 0.171E-12   0.828E+01 0.192E+02 -.280E+01   -.366E-02 -.243E-02 -.398E+00
 
 
 POSITION                                       TOTAL-FORCE (eV/Angst)
 -----------------------------------------------------------------------------------
      7.42468     12.75488      7.25360         0.001578      0.007844      0.005714
     -0.00013      1.41832      7.25485         0.012664     -0.008215      0.003715
      2.48119      0.02590      7.25192        -0.007010     -0.013555     -0.002021
      2.47953      1.44655      7.26255         0.021349     -0.007990      0.001490
      4.95778      0.02821      7.25482        -0.005479     -0.042150     -0.005452
      4.95420      1.44595      7.26458        -0.027769      0.018925     -0.000892
      7.44301      0.00425      7.25464         0.048565     -0.000081      0.001282
      7.42793      1.42420      7.25390         0.034113     -0.012551      0.003856
      2.48003     12.72632      7.26349         0.040288      0.025767      0.006167
      9.90969      1.38471      7.25350         0.018839      0.030212      0.001846
      4.94119     12.73168      7.26388        -0.014511      0.045063     -0.001452
     12.38156      1.39840      7.25479        -0.009337     -0.032932     -0.005174
     13.61239      2.11630      7.25614         0.011070      0.024942     -0.003501
     -1.24955      3.52933      7.26626         0.051824     -0.010384     -0.003299
      1.23815      2.14405      7.26447        -0.011967     -0.009424      0.002961
      1.23619      3.56759      7.29019         0.023482      0.004852     -0.003406
      3.71670      2.17090      7.28003         0.014284     -0.047874      0.003138
      3.71599      3.59048      7.32702         0.022813      0.008509     -0.010020
      6.19717      2.14468      7.26493        -0.013654      0.005283      0.003346
      6.19844      3.57076      7.28989        -0.034328     -0.005964     -0.002062
      8.67966      2.10272      7.25246        -0.020748     -0.010948      0.003205
      8.68563      3.52563      7.25934        -0.049317      0.032345      0.003085
     11.13961      2.09542      7.25359        -0.033403     -0.000690     -0.000059
     11.13737      3.52263      7.25524         0.041143      0.030271     -0.002689
     12.37272      4.23939      7.26354        -0.053201      0.017387     -0.005123
     -2.48874      5.65632      7.27030        -0.020264     -0.012330     -0.008717
     -0.01750      4.24629      7.28926        -0.036920     -0.006524      0.000846
     -0.04205      5.66270      7.31487         0.057072      0.011919      0.023883
      2.47420      4.31059      7.33972         0.028047      0.015266      0.002395
      2.42990      5.72745      7.42890         0.215978      0.079501     -0.055723
      4.96171      4.31213      7.34323        -0.044950     -0.037989     -0.006945
      5.00457      5.72501      7.43540        -0.170483      0.099500     -0.045339
      7.45034      4.24462      7.28370         0.044321      0.002935      0.003383
      7.47251      5.66330      7.30783        -0.006156      0.016393      0.023043
      9.91376      4.23843      7.25752         0.006203      0.016306     -0.000493
      9.91927      5.66462      7.26267         0.013014     -0.015250     -0.002253
     11.14356      6.37947      7.26303         0.013560     -0.002544     -0.006349
     -3.71341      7.79436      7.26295         0.037093      0.011075     -0.003512
     -1.26747      6.37429      7.29328        -0.011537      0.044037     -0.003203
     -1.26643      7.79829      7.29301         0.022034     -0.036527     -0.005596
      1.17915      6.37289      7.36755        -0.094197      0.130521     -0.000563
      1.17749      7.80458      7.36705        -0.089010     -0.127093      0.003764
      6.25398      6.37222      7.36743         0.033886      0.111557     -0.000805
      6.25089      7.80904      7.36615         0.027342     -0.109706      0.009606
      8.70025      6.37896      7.28223        -0.033978      0.015723      0.004228
      8.69907      7.79998      7.28224        -0.028697     -0.005278      0.002081
     -4.93767      8.50792      7.26273        -0.000401      0.016368     -0.002448
     -4.94389      9.93187      7.25749         0.005435     -0.010703     -0.000277
     -2.48592      8.51116      7.27028        -0.051751     -0.010350     -0.011020
     -2.47991      9.93272      7.26361        -0.022466     -0.000816     -0.006765
     -0.03770      8.51490      7.31391         0.037640     -0.019576      0.024107
     -0.01273      9.93481      7.28834        -0.008003     -0.016214     -0.003309
      2.43109      8.45264      7.43124         0.194360     -0.074448     -0.031137
      2.47261      9.85810      7.34228         0.014053     -0.008666      0.002320
      4.99898      8.45772      7.43281        -0.158471     -0.078131     -0.089836
      4.95611      9.87333      7.34189        -0.048919     -0.022666     -0.005192
      7.46995      8.51460      7.30686        -0.000498     -0.023938      0.031810
      7.44534      9.93046      7.28329         0.024113      0.002789     -0.002415
     -6.17889     10.63934      7.25929        -0.017044     -0.010468     -0.000521
     -6.18487     12.05684      7.25196         0.000253      0.005208     -0.001053
     -3.71155     10.64518      7.25506         0.005460     -0.008914     -0.001438
     -3.71044     12.06601      7.25303         0.017075     -0.000366     -0.003913
     -1.24331     10.64232      7.26602         0.032722      0.004043     -0.006132
     -1.23223     12.05853      7.25607        -0.043761     -0.007109     -0.005160
      1.24721     10.61477      7.28932         0.010054     -0.020762     -0.003684
      1.25115     12.03225      7.26430        -0.046704      0.005980      0.003258
      3.70654     10.59497      7.32786         0.027394      0.039916     -0.000347
      3.70330     12.00749      7.28107        -0.009867     -0.010879      0.008643
      6.19312     10.60876      7.28932        -0.022550      0.009276     -0.012589
      6.18399     12.02954      7.26492         0.032499      0.001190     -0.002867
      3.71715      7.08834      8.11791         0.006356     -0.009569      0.199324
      3.71715      7.08834     14.09791        -0.490729     -1.108070      1.272482
      3.39614      6.36249     14.94325         0.490101      1.106745     -1.280228
 -----------------------------------------------------------------------------------
    total drift:                                0.002763     -0.003103     -0.002991


--------------------------------------------------------------------------------------------------------



  FREE ENERGIE OF THE ION-ELECTRON SYSTEM (eV)
  ---------------------------------------------------
  free  energy   TOTEN  =      -668.42402055 eV

  energy  without entropy=     -668.42402055  energy(sigma->0) =     -668.42402055
 


--------------------------------------------------------------------------------------------------------


    POTLOK:  cpu time    0.1651: real time    0.1658


--------------------------------------------------------------------------------------------------------


 stress matrix after NEB project (eV)
     -2.28535     -0.59147      0.40704
     -0.59147     -3.25066      0.90263
      0.40704      0.90263     -4.37537
  FORCES: max atom, RMS     1.761836    0.299975
  FORCE total and by dimension    2.562985    1.280228
  Stress total and by dimension    6.131398    4.375374
     LOOP+:  cpu time  307.2618: real time  310.2287
    4ORBIT:  cpu time    0.0000: real time    0.0000
 


 total charge     
 
# of ion       s       p       d       tot
------------------------------------------
    1        0.863   1.779   0.000   2.642
    2        0.864   1.780   0.000   2.645
    3        0.864   1.783   0.000   2.647
    4        0.864   1.784   0.000   2.648
    5        0.864   1.782   0.000   2.645
    6        0.864   1.783   0.000   2.648
    7        0.861   1.787   0.000   2.648
    8        0.865   1.786   0.000   2.651
    9        1.208   2.699   0.000   3.907
   10        0.853   1.751   0.000   2.603
   11        0.861   1.790   0.000   2.651
   12        0.866   1.788   0.000   2.653
   13        0.864   1.793   0.000   2.657
   14        0.866   1.789   0.000   2.655
   15        0.863   1.781   0.000   2.644
   16        0.864   1.768   0.000   2.632
   17        0.863   1.775   0.000   2.637
   18        0.864   1.770   0.000   2.633
   19        0.863   1.785   0.000   2.648
   20        0.864   1.771   0.000   2.635
   21        0.862   1.794   0.000   2.656
   22        0.864   1.787   0.000   2.651
   23        0.862   1.795   0.000   2.657
   24        0.864   1.786   0.000   2.650
   25        0.864   1.788   0.000   2.652
   26        0.867   1.795   0.000   2.662
   27        0.866   1.790   0.000   2.656
   28        0.871   1.803   0.000   2.674
   29        0.861   1.758   0.000   2.619
   30        0.874   1.683   0.000   2.557
   31        0.862   1.759   0.000   2.620
   32        0.875   1.687   0.000   2.561
   33        0.866   1.788   0.000   2.654
   34        0.870   1.801   0.000   2.671
   35        0.866   1.794   0.000   2.660
   36        0.868   1.797   0.000   2.665
   37        0.868   1.796   0.000   2.664
   38        0.867   1.796   0.000   2.663
   39        0.867   1.798   0.000   2.665
   40        0.867   1.796   0.000   2.664
   41        0.876   1.788   0.000   2.664
   42        0.877   1.787   0.000   2.663
   43        0.876   1.786   0.000   2.662
   44        0.876   1.784   0.000   2.660
   45        0.868   1.798   0.000   2.666
   46        0.868   1.798   0.000   2.665
   47        0.868   1.797   0.000   2.665
   48        0.865   1.790   0.000   2.655
   49        0.868   1.797   0.000   2.665
   50        0.865   1.791   0.000   2.655
   51        0.870   1.801   0.000   2.671
   52        0.865   1.788   0.000   2.652
   53        0.873   1.693   0.000   2.566
   54        0.863   1.763   0.000   2.626
   55        0.873   1.683   0.000   2.556
   56        0.860   1.757   0.000   2.617
   57        0.871   1.803   0.000   2.674
   58        0.867   1.791   0.000   2.657
   59        0.866   1.789   0.000   2.656
   60        0.864   1.786   0.000   2.651
   61        0.866   1.788   0.000   2.655
   62        0.864   1.786   0.000   2.650
   63        0.867   1.794   0.000   2.661
   64        0.863   1.786   0.000   2.649
   65        0.861   1.778   0.000   2.639
   66        0.851   1.747   0.000   2.598
   67        0.861   1.778   0.000   2.639
   68        0.852   1.739   0.000   2.591
   69        0.864   1.776   0.000   2.640
   70        0.862   1.778   0.000   2.640
   71        0.389   6.284   4.281  10.954
   72        1.036   1.403   0.000   2.439
   73        1.637   3.514   0.000   5.151
--------------------------------------------------
tot         63.991 136.634   4.281 204.906
 


 magnetization (x)
 
# of ion       s       p       d       tot
------------------------------------------
    1       -0.000  -0.001   0.000  -0.001
    2        0.000   0.002   0.000   0.002
    3       -0.000  -0.003   0.000  -0.003
    4        0.001   0.013   0.000   0.014
    5       -0.000  -0.003   0.000  -0.003
    6        0.001   0.014   0.000   0.014
    7       -0.000  -0.002   0.000  -0.002
    8        0.001   0.011   0.000   0.012
    9        0.000   0.014   0.000   0.015
   10        0.000   0.010   0.000   0.010
   11        0.000   0.003   0.000   0.003
   12        0.000   0.006   0.000   0.006
   13       -0.000  -0.002   0.000  -0.002
   14        0.001   0.011   0.000   0.011
   15       -0.000  -0.002   0.000  -0.002
   16        0.001   0.010   0.000   0.011
   17       -0.001  -0.008   0.000  -0.009
   18        0.002   0.034   0.000   0.036
   19       -0.000  -0.003   0.000  -0.003
   20        0.001   0.010   0.000   0.011
   21       -0.000  -0.002   0.000  -0.002
   22        0.000   0.006   0.000   0.007
   23        0.000   0.003   0.000   0.003
   24        0.000   0.002   0.000   0.002
   25        0.000   0.003   0.000   0.003
   26        0.000   0.005   0.000   0.006
   27       -0.000  -0.003   0.000  -0.003
   28        0.001   0.005   0.000   0.006
   29       -0.001  -0.011   0.000  -0.012
   30        0.016   0.099   0.000   0.115
   31       -0.001  -0.009   0.000  -0.010
   32        0.015   0.086   0.000   0.101
   33       -0.000  -0.002   0.000  -0.003
   34        0.001   0.006   0.000   0.006
   35        0.000   0.004   0.000   0.004
   36        0.000   0.006   0.000   0.007
   37       -0.000  -0.001   0.000  -0.002
   38        0.000   0.003   0.000   0.004
   39       -0.000   0.002   0.000   0.002
   40        0.001   0.014   0.000   0.015
   41       -0.001   0.003   0.000   0.002
   42        0.000   0.024   0.000   0.025
   43       -0.001   0.005   0.000   0.004
   44       -0.000   0.013   0.000   0.013
   45        0.000   0.003   0.000   0.003
   46        0.001   0.010   0.000   0.011
   47       -0.000  -0.002   0.000  -0.002
   48        0.001   0.013   0.000   0.014
   49       -0.000  -0.002   0.000  -0.003
   50        0.001   0.016   0.000   0.017
   51       -0.000  -0.001   0.000  -0.001
   52        0.000   0.005   0.000   0.005
   53        0.014   0.075   0.000   0.089
   54       -0.001  -0.003   0.000  -0.003
   55        0.015   0.078   0.000   0.093
   56       -0.001  -0.004   0.000  -0.004
   57        0.000   0.001   0.000   0.001
   58       -0.000   0.000   0.000   0.000
   59       -0.000  -0.000   0.000  -0.000
   60        0.000   0.005   0.000   0.005
   61       -0.000  -0.004   0.000  -0.004
   62        0.001   0.011   0.000   0.011
   63       -0.000  -0.001   0.000  -0.001
   64        0.000   0.005   0.000   0.005
   65        0.001   0.001   0.000   0.002
   66        0.001   0.013   0.000   0.014
   67        0.001   0.022   0.000   0.024
   68       -0.001  -0.006   0.000  -0.007
   69        0.001   0.002   0.000   0.003
   70        0.000   0.006   0.000   0.006
   71       -0.035   0.013  -1.954  -1.976
   72        0.000   0.000   0.000   0.000
   73       -0.000  -0.000   0.000  -0.000
--------------------------------------------------
tot          0.033   0.633  -1.954  -1.288
 
 BZINTS: Fermi energy: -2.040430;303.000000 electrons
         Band energy:***********;  BLOECHL correction: -0.000772

 total amount of memory used by VASP MPI-rank0   115989. kBytes
=======================================================================

   base      :      30000. kBytes
   nonl-proj :      27264. kBytes
   fftplans  :       4700. kBytes
   grid      :      15193. kBytes
   one-center:        217. kBytes
   wavefun   :      38615. kBytes
 
  
  
 General timing and accounting informations for this job:
 ========================================================
  
                  Total CPU time used (sec):      334.566
                            User time (sec):      322.111
                          System time (sec):       12.455
                         Elapsed time (sec):      345.379
  
                   Maximum memory used (kb):      474724.
                   Average memory used (kb):           0.
  
                          Minor page faults:       368885
                          Major page faults:            0
                 Voluntary context switches:         8253
