 vasp.5.4.4.18Apr17-6-g9f103f2a35 (build Jan 14 2022 15:04:31) complex          
  
 executed on             LinuxIFC date 2023.01.27  22:54:35
 running on   48 total cores
 distrk:  each k-point on   48 cores,    1 groups
 distr:  one band on NCORES_PER_BAND=  12 cores,    4 groups


--------------------------------------------------------------------------------------------------------


 INCAR:
 POTCAR:    PAW_PBE C 08Apr2002                   
 POTCAR:    PAW_PBE N 08Apr2002                   
 POTCAR:    PAW_PBE C 08Apr2002                   
 POTCAR:    PAW_PBE Cr_pv 02Aug2007               
 POTCAR:    PAW_PBE C 08Apr2002                   
 POTCAR:    PAW_PBE O 08Apr2002                   
 POTCAR:    PAW_PBE C 08Apr2002                   
   SHA256 =  253f7b50bb8d59471dbedb8285d89021f4a42ed1a2c5d38a03a736e69125dd95 C/
   COPYR  = (c) Copyright 08Apr2002 Georg Kresse                                
   COPYR  = This file is part of the software VASP. Any use, copying, and all ot
   COPYR  = If you do not have a valid VASP license, you may not use, copy or di
   VRHFIN =C: s2p2                                                              
   LEXCH  = PE                                                                  
   EATOM  =   147.1560 eV,   10.8157 Ry                                         
                                                                                
   TITEL  = PAW_PBE C 08Apr2002                                                 
   LULTRA =        F    use ultrasoft PP ?                                      
   IUNSCR =        1    unscreen: 0-lin 1-nonlin 2-no                           
   RPACOR =    1.200    partial core radius                                     
   POMASS =   12.011; ZVAL   =    4.000    mass and valenz                      
   RCORE  =    1.500    outmost cutoff radius                                   
   RWIGS  =    1.630; RWIGS  =    0.863    wigner-seitz radius (au A)           
   ENMAX  =  400.000; ENMIN  =  300.000 eV                                      
   ICORE  =        2    local potential                                         
   LCOR   =        T    correct aug charges                                     
   LPAW   =        T    paw PP                                                  
   EAUG   =  644.873                                                            
   DEXC   =    0.000                                                            
   RMAX   =    1.529    core radius for proj-oper                               
   RAUG   =    1.300    factor for augmentation sphere                          
   RDEP   =    1.501    radius for radial grids                                 
   RDEPT  =    1.300    core radius for aug-charge                              
                                                                                
   Atomic configuration                                                         
    4 entries                                                                   
     n  l   j            E        occ.                                          
     1  0  0.50      -273.3789   2.0000                                         
     2  0  0.50       -13.7508   2.0000                                         
     2  1  0.50        -5.2854   2.0000                                         
     3  2  1.50        -5.4423   0.0000                                         
   Description                                                                  
     l       E           TYP  RCUT    TYP  RCUT                                 
     0    -13.7508458     23  1.200                                             
     0     -8.2022199     23  1.200                                             
     1     -5.2854383     23  1.500                                             
     1     34.0145650     23  1.500                                             
     2     -5.4423304      7  1.500                                             
  local pseudopotential read in
  partial core-charges read in
  partial kinetic energy density read in
  atomic valenz-charges read in
  non local Contribution for L=           0  read in
    real space projection operators read in
  non local Contribution for L=           0  read in
    real space projection operators read in
  non local Contribution for L=           1  read in
    real space projection operators read in
  non local Contribution for L=           1  read in
    real space projection operators read in
    PAW grid and wavefunctions read in
 
   number of l-projection  operators is LMAX  =           4
   number of lm-projection operators is LMMAX =           8
 
 POTCAR:    PAW_PBE N 08Apr2002                   
   SHA256 =  e053789ff3a61a86a1b75d8a110fcc91f86041011e7b0817c7c99e4e8a6349d7 N/
   COPYR  = (c) Copyright 08Apr2002 Georg Kresse                                
   COPYR  = This file is part of the software VASP. Any use, copying, and all ot
   COPYR  = If you do not have a valid VASP license, you may not use, copy or di
   VRHFIN =N: s2p3                                                              
   LEXCH  = PE                                                                  
   EATOM  =   264.5486 eV,   19.4438 Ry                                         
                                                                                
   TITEL  = PAW_PBE N 08Apr2002                                                 
   LULTRA =        F    use ultrasoft PP ?                                      
   IUNSCR =        1    unscreen: 0-lin 1-nonlin 2-no                           
   RPACOR =    1.200    partial core radius                                     
   POMASS =   14.001; ZVAL   =    5.000    mass and valenz                      
   RCORE  =    1.500    outmost cutoff radius                                   
   RWIGS  =    1.400; RWIGS  =    0.741    wigner-seitz radius (au A)           
   ENMAX  =  400.000; ENMIN  =  300.000 eV                                      
   ICORE  =        2    local potential                                         
   LCOR   =        T    correct aug charges                                     
   LPAW   =        T    paw PP                                                  
   EAUG   =  627.112                                                            
   DEXC   =    0.000                                                            
   RMAX   =    1.529    core radius for proj-oper                               
   RAUG   =    1.300    factor for augmentation sphere                          
   RDEP   =    1.514    radius for radial grids                                 
   RDEPT  =    1.338    core radius for aug-charge                              
                                                                                
   Atomic configuration                                                         
    4 entries                                                                   
     n  l   j            E        occ.                                          
     1  0  0.50      -384.7179   2.0000                                         
     2  0  0.50       -18.5828   2.0000                                         
     2  1  0.50        -7.0898   3.0000                                         
     3  2  1.50        -6.8029   0.0000                                         
   Description                                                                  
     l       E           TYP  RCUT    TYP  RCUT                                 
     0    -18.5828119     23  1.200                                             
     0    -13.5018863     23  1.200                                             
     1     -7.0897853     23  1.500                                             
     1      9.5240782     23  1.500                                             
     2     -6.8029130      7  1.500                                             
  local pseudopotential read in
  partial core-charges read in
  partial kinetic energy density read in
  atomic valenz-charges read in
  non local Contribution for L=           0  read in
    real space projection operators read in
  non local Contribution for L=           0  read in
    real space projection operators read in
  non local Contribution for L=           1  read in
    real space projection operators read in
  non local Contribution for L=           1  read in
    real space projection operators read in
    PAW grid and wavefunctions read in
 
   number of l-projection  operators is LMAX  =           4
   number of lm-projection operators is LMMAX =           8
 
 POTCAR:    PAW_PBE C 08Apr2002                   
   SHA256 =  253f7b50bb8d59471dbedb8285d89021f4a42ed1a2c5d38a03a736e69125dd95 C/
   COPYR  = (c) Copyright 08Apr2002 Georg Kresse                                
   COPYR  = This file is part of the software VASP. Any use, copying, and all ot
   COPYR  = If you do not have a valid VASP license, you may not use, copy or di
   VRHFIN =C: s2p2                                                              
   LEXCH  = PE                                                                  
   EATOM  =   147.1560 eV,   10.8157 Ry                                         
                                                                                
   TITEL  = PAW_PBE C 08Apr2002                                                 
   LULTRA =        F    use ultrasoft PP ?                                      
   IUNSCR =        1    unscreen: 0-lin 1-nonlin 2-no                           
   RPACOR =    1.200    partial core radius                                     
   POMASS =   12.011; ZVAL   =    4.000    mass and valenz                      
   RCORE  =    1.500    outmost cutoff radius                                   
   RWIGS  =    1.630; RWIGS  =    0.863    wigner-seitz radius (au A)           
   ENMAX  =  400.000; ENMIN  =  300.000 eV                                      
   ICORE  =        2    local potential                                         
   LCOR   =        T    correct aug charges                                     
   LPAW   =        T    paw PP                                                  
   EAUG   =  644.873                                                            
   DEXC   =    0.000                                                            
   RMAX   =    1.529    core radius for proj-oper                               
   RAUG   =    1.300    factor for augmentation sphere                          
   RDEP   =    1.501    radius for radial grids                                 
   RDEPT  =    1.300    core radius for aug-charge                              
                                                                                
   Atomic configuration                                                         
    4 entries                                                                   
     n  l   j            E        occ.                                          
     1  0  0.50      -273.3789   2.0000                                         
     2  0  0.50       -13.7508   2.0000                                         
     2  1  0.50        -5.2854   2.0000                                         
     3  2  1.50        -5.4423   0.0000                                         
   Description                                                                  
     l       E           TYP  RCUT    TYP  RCUT                                 
     0    -13.7508458     23  1.200                                             
     0     -8.2022199     23  1.200                                             
     1     -5.2854383     23  1.500                                             
     1     34.0145650     23  1.500                                             
     2     -5.4423304      7  1.500                                             
  local pseudopotential read in
  partial core-charges read in
  partial kinetic energy density read in
  atomic valenz-charges read in
  non local Contribution for L=           0  read in
    real space projection operators read in
  non local Contribution for L=           0  read in
    real space projection operators read in
  non local Contribution for L=           1  read in
    real space projection operators read in
  non local Contribution for L=           1  read in
    real space projection operators read in
    PAW grid and wavefunctions read in
 
   number of l-projection  operators is LMAX  =           4
   number of lm-projection operators is LMMAX =           8
 
 POTCAR:    PAW_PBE Cr_pv 02Aug2007               
   SHA256 =  c9a7df34d3cdbacf1090e328ef39c0b420964e11c23f63548d1ac9dd218cdba0 Cr
   COPYR  = (c) Copyright 02Aug2007 Georg Kresse                                
   COPYR  = This file is part of the software VASP. Any use, copying, and all ot
   COPYR  = If you do not have a valid VASP license, you may not use, copy or di
   VRHFIN =Cr : p6d5s1                                                          
   LEXCH  = PE                                                                  
   EATOM  =  1647.9177 eV,  121.1185 Ry                                         
                                                                                
   TITEL  = PAW_PBE Cr_pv 02Aug2007                                             
   LULTRA =        F    use ultrasoft PP ?                                      
   IUNSCR =        1    unscreen: 0-lin 1-nonlin 2-no                           
   RPACOR =    2.080    partial core radius                                     
   POMASS =   51.996; ZVAL   =   12.000    mass and valenz                      
   RCORE  =    2.300    outmost cutoff radius                                   
   RWIGS  =    2.500; RWIGS  =    1.323    wigner-seitz radius (au A)           
   ENMAX  =  265.681; ENMIN  =  199.261 eV                                      
   ICORE  =        3    local potential                                         
   LCOR   =        T    correct aug charges                                     
   LPAW   =        T    paw PP                                                  
   EAUG   =  519.424                                                            
   DEXC   =    0.000                                                            
   RMAX   =    2.356    core radius for proj-oper                               
   RAUG   =    1.300    factor for augmentation sphere                          
   RDEP   =    2.447    radius for radial grids                                 
   RDEPT  =    1.882    core radius for aug-charge                              
                                                                                
   Atomic configuration                                                         
    8 entries                                                                   
     n  l   j            E        occ.                                          
     1  0  0.50     -5880.4963   2.0000                                         
     2  0  0.50      -667.0865   2.0000                                         
     2  1  1.50      -560.6250   6.0000                                         
     3  0  0.50       -73.9860   2.0000                                         
     3  1  1.50       -45.4378   6.0000                                         
     3  2  2.50        -2.9137   5.0000                                         
     4  0  0.50        -4.0071   1.0000                                         
     4  3  2.50        -1.3606   0.0000                                         
   Description                                                                  
     l       E           TYP  RCUT    TYP  RCUT                                 
     1    -45.4377911     23  2.000                                             
     1      1.3605826     23  2.000                                             
     2     -2.9136672     23  2.300                                             
     2     -4.2742498     23  2.300                                             
     0     -4.0071320     23  2.300                                             
     0      9.4498803     23  2.300                                             
     3      2.7211652     23  2.300                                             
  local pseudopotential read in
  partial core-charges read in
  partial kinetic energy density read in
  atomic valenz-charges read in
  non local Contribution for L=           1  read in
    real space projection operators read in
  non local Contribution for L=           1  read in
    real space projection operators read in
  non local Contribution for L=           2  read in
    real space projection operators read in
  non local Contribution for L=           2  read in
    real space projection operators read in
  non local Contribution for L=           0  read in
    real space projection operators read in
  non local Contribution for L=           0  read in
    real space projection operators read in
    PAW grid and wavefunctions read in
 
   number of l-projection  operators is LMAX  =           6
   number of lm-projection operators is LMMAX =          18
 
 POTCAR:    PAW_PBE C 08Apr2002                   
   SHA256 =  253f7b50bb8d59471dbedb8285d89021f4a42ed1a2c5d38a03a736e69125dd95 C/
   COPYR  = (c) Copyright 08Apr2002 Georg Kresse                                
   COPYR  = This file is part of the software VASP. Any use, copying, and all ot
   COPYR  = If you do not have a valid VASP license, you may not use, copy or di
   VRHFIN =C: s2p2                                                              
   LEXCH  = PE                                                                  
   EATOM  =   147.1560 eV,   10.8157 Ry                                         
                                                                                
   TITEL  = PAW_PBE C 08Apr2002                                                 
   LULTRA =        F    use ultrasoft PP ?                                      
   IUNSCR =        1    unscreen: 0-lin 1-nonlin 2-no                           
   RPACOR =    1.200    partial core radius                                     
   POMASS =   12.011; ZVAL   =    4.000    mass and valenz                      
   RCORE  =    1.500    outmost cutoff radius                                   
   RWIGS  =    1.630; RWIGS  =    0.863    wigner-seitz radius (au A)           
   ENMAX  =  400.000; ENMIN  =  300.000 eV                                      
   ICORE  =        2    local potential                                         
   LCOR   =        T    correct aug charges                                     
   LPAW   =        T    paw PP                                                  
   EAUG   =  644.873                                                            
   DEXC   =    0.000                                                            
   RMAX   =    1.529    core radius for proj-oper                               
   RAUG   =    1.300    factor for augmentation sphere                          
   RDEP   =    1.501    radius for radial grids                                 
   RDEPT  =    1.300    core radius for aug-charge                              
                                                                                
   Atomic configuration                                                         
    4 entries                                                                   
     n  l   j            E        occ.                                          
     1  0  0.50      -273.3789   2.0000                                         
     2  0  0.50       -13.7508   2.0000                                         
     2  1  0.50        -5.2854   2.0000                                         
     3  2  1.50        -5.4423   0.0000                                         
   Description                                                                  
     l       E           TYP  RCUT    TYP  RCUT                                 
     0    -13.7508458     23  1.200                                             
     0     -8.2022199     23  1.200                                             
     1     -5.2854383     23  1.500                                             
     1     34.0145650     23  1.500                                             
     2     -5.4423304      7  1.500                                             
  local pseudopotential read in
  partial core-charges read in
  partial kinetic energy density read in
  atomic valenz-charges read in
  non local Contribution for L=           0  read in
    real space projection operators read in
  non local Contribution for L=           0  read in
    real space projection operators read in
  non local Contribution for L=           1  read in
    real space projection operators read in
  non local Contribution for L=           1  read in
    real space projection operators read in
    PAW grid and wavefunctions read in
 
   number of l-projection  operators is LMAX  =           4
   number of lm-projection operators is LMMAX =           8
 
 POTCAR:    PAW_PBE O 08Apr2002                   
   SHA256 =  818f92134a0a090dccd8ba1447fa70422a3b330e708bb4f08108d8ae51209ddf O/
   COPYR  = (c) Copyright 08Apr2002 Georg Kresse                                
   COPYR  = This file is part of the software VASP. Any use, copying, and all ot
   COPYR  = If you do not have a valid VASP license, you may not use, copy or di
   VRHFIN =O: s2p4                                                              
   LEXCH  = PE                                                                  
   EATOM  =   432.3788 eV,   31.7789 Ry                                         
                                                                                
   TITEL  = PAW_PBE O 08Apr2002                                                 
   LULTRA =        F    use ultrasoft PP ?                                      
   IUNSCR =        1    unscreen: 0-lin 1-nonlin 2-no                           
   RPACOR =    1.200    partial core radius                                     
   POMASS =   16.000; ZVAL   =    6.000    mass and valenz                      
   RCORE  =    1.520    outmost cutoff radius                                   
   RWIGS  =    1.550; RWIGS  =    0.820    wigner-seitz radius (au A)           
   ENMAX  =  400.000; ENMIN  =  300.000 eV                                      
   ICORE  =        2    local potential                                         
   LCOR   =        T    correct aug charges                                     
   LPAW   =        T    paw PP                                                  
   EAUG   =  605.392                                                            
   DEXC   =    0.000                                                            
   RMAX   =    1.553    core radius for proj-oper                               
   RAUG   =    1.300    factor for augmentation sphere                          
   RDEP   =    1.550    radius for radial grids                                 
   RDEPT  =    1.329    core radius for aug-charge                              
                                                                                
   Atomic configuration                                                         
    4 entries                                                                   
     n  l   j            E        occ.                                          
     1  0  0.50      -514.6923   2.0000                                         
     2  0  0.50       -23.9615   2.0000                                         
     2  1  0.50        -9.0305   4.0000                                         
     3  2  1.50        -9.5241   0.0000                                         
   Description                                                                  
     l       E           TYP  RCUT    TYP  RCUT                                 
     0    -23.9615318     23  1.200                                             
     0     -9.5240782     23  1.200                                             
     1     -9.0304911     23  1.520                                             
     1      8.1634956     23  1.520                                             
     2     -9.5240782      7  1.500                                             
  local pseudopotential read in
  partial core-charges read in
  partial kinetic energy density read in
  kinetic energy density of atom read in
  atomic valenz-charges read in
  non local Contribution for L=           0  read in
    real space projection operators read in
  non local Contribution for L=           0  read in
    real space projection operators read in
  non local Contribution for L=           1  read in
    real space projection operators read in
  non local Contribution for L=           1  read in
    real space projection operators read in
    PAW grid and wavefunctions read in
 
   number of l-projection  operators is LMAX  =           4
   number of lm-projection operators is LMMAX =           8
 

 ----------------------------------------------------------------------------- 
|                                                                             |
|  ADVICE TO THIS USER RUNNING 'VASP/VAMP'   (HEAR YOUR MASTER'S VOICE ...):  |
|                                                                             |
|      You have a (more or less) 'large supercell' and for larger cells       |
|      it might be more efficient to use real space projection opertators     |
|      So try LREAL= Auto  in the INCAR   file.                               |
|      Mind:          For very  accurate calculation you might also keep the  |
|      reciprocal projection scheme          (i.e. LREAL=.FALSE.)             |
|                                                                             |
 ----------------------------------------------------------------------------- 

  PAW_PBE C 08Apr2002                   :
 energy of atom  1       EATOM= -147.1560
 kinetic energy error for atom=    0.0132 (will be added to EATOM!!)
  PAW_PBE N 08Apr2002                   :
 energy of atom  2       EATOM= -264.5486
 kinetic energy error for atom=    0.0298 (will be added to EATOM!!)
  PAW_PBE C 08Apr2002                   :
 energy of atom  3       EATOM= -147.1560
 kinetic energy error for atom=    0.0132 (will be added to EATOM!!)
  PAW_PBE Cr_pv 02Aug2007               :
 energy of atom  4       EATOM=-1647.9177
 kinetic energy error for atom=    0.0134 (will be added to EATOM!!)
  PAW_PBE C 08Apr2002                   :
 energy of atom  5       EATOM= -147.1560
 kinetic energy error for atom=    0.0132 (will be added to EATOM!!)
  PAW_PBE O 08Apr2002                   :
 energy of atom  6       EATOM= -432.3788
 kinetic energy error for atom=    0.0458 (will be added to EATOM!!)
 
 
 POSCAR: POSCAR-clean                            
  positions in cartesian coordinates
  No initial velocities read in
 exchange correlation table for  LEXCH =        8
   RHO(1)=    0.500       N(1)  =     2000
   RHO(2)=  100.500       N(2)  =     4000

 VTST: version 3.2, (02/03/18)

 CHAIN: initializing optimizer
 
 OPT: Using VASP Dynamics algorithm
 CHAIN: Read ICHAIN            0
 
 POSCAR: POSCAR-clean                            
  positions in cartesian coordinates
  No initial velocities read in
 


--------------------------------------------------------------------------------------------------------


 ion  position               nearest neighbor table
   1  0.000  1.000  0.484-  60 1.43   2 1.43  70 1.43
   2  0.056  0.112  0.484-  13 1.43   1 1.43  15 1.43
   3  0.168  0.002  0.483-   4 1.42  62 1.42  60 1.43
   4  0.224  0.113  0.484-   3 1.42  15 1.43  17 1.43
   5  0.334  0.002  0.484-   6 1.42  62 1.43  64 1.43
   6  0.390  0.113  0.484-   5 1.42  19 1.43  17 1.43
   7  0.500  1.000  0.484-  64 1.43   8 1.43  66 1.43
   8  0.556  0.112  0.484-  21 1.43   7 1.43  19 1.43
   9  0.666  0.998  0.484-  10 1.42  66 1.43  68 1.43
  10  0.722  0.109  0.483-   9 1.42  23 1.43  21 1.43
  11  0.832  0.998  0.484-  12 1.42  70 1.43  68 1.43
  12  0.888  0.109  0.484-  11 1.42  23 1.43  13 1.43
  13  0.999  0.166  0.484-  14 1.42   2 1.43  12 1.43
  14  0.055  0.277  0.484-  13 1.42  27 1.42  25 1.43
  15  0.167  0.168  0.484-  16 1.43   4 1.43   2 1.43
  16  0.223  0.280  0.486-  15 1.43  27 1.43  29 1.45
  17  0.335  0.170  0.485-  18 1.42   6 1.43   4 1.43
  18  0.391  0.282  0.488-  17 1.42  29 1.44  31 1.44
  19  0.501  0.168  0.484-  20 1.43   6 1.43   8 1.43
  20  0.557  0.280  0.486-  19 1.43  33 1.43  31 1.45
  21  0.667  0.166  0.483-  22 1.42   8 1.43  10 1.43
  22  0.723  0.277  0.484-  21 1.42  33 1.42  35 1.43
  23  0.833  0.165  0.484-  24 1.42  10 1.43  12 1.43
  24  0.888  0.276  0.484-  23 1.42  35 1.42  25 1.42
  25  0.999  0.333  0.484-  24 1.42  26 1.42  14 1.43
  26  0.054  0.444  0.485-  37 1.40  39 1.41  25 1.42
  27  0.165  0.333  0.486-  28 1.42  14 1.42  16 1.43
  28  0.219  0.444  0.488-  27 1.42  41 1.42  39 1.42
  29  0.336  0.338  0.489-  30 1.42  18 1.44  16 1.45
  30  0.388  0.449  0.495-  41 1.41  29 1.42  71 1.99
  31  0.503  0.338  0.489-  32 1.42  18 1.44  20 1.45
  32  0.561  0.449  0.495-  43 1.41  31 1.42  71 1.99
  33  0.668  0.333  0.486-  34 1.42  22 1.42  20 1.43
  34  0.725  0.444  0.487-  33 1.42  43 1.42  45 1.42
  35  0.834  0.333  0.484-  24 1.42  36 1.42  22 1.43
  36  0.891  0.444  0.484-  37 1.40  45 1.41  35 1.42
  37  1.000  0.500  0.484-  36 1.40  26 1.40  38 1.41
  38  0.055  0.610  0.484-  37 1.41  47 1.42  49 1.42
  39  0.164  0.500  0.486-  26 1.41  40 1.42  28 1.42
  40  0.221  0.611  0.486-  49 1.41  51 1.42  39 1.42
  41  0.329  0.499  0.491-  30 1.41  28 1.42  42 1.43
  42  0.385  0.612  0.491-  53 1.41  51 1.41  41 1.43
  43  0.671  0.499  0.491-  32 1.41  34 1.42  44 1.43
  44  0.726  0.612  0.491-  55 1.41  57 1.41  43 1.43
  45  0.836  0.500  0.486-  36 1.41  46 1.42  34 1.42
  46  0.891  0.611  0.486-  47 1.41  57 1.42  45 1.42
  47  0.001  0.666  0.484-  46 1.41  38 1.42  48 1.43
  48  0.057  0.778  0.484-  61 1.42  59 1.43  47 1.43
  49  0.166  0.666  0.485-  40 1.41  38 1.42  50 1.43
  50  0.222  0.778  0.484-  61 1.42  63 1.43  49 1.43
  51  0.331  0.667  0.488-  42 1.41  40 1.42  52 1.42
  52  0.388  0.778  0.486-  51 1.42  65 1.42  63 1.42
  53  0.495  0.662  0.495-  42 1.41  54 1.42  71 1.99
  54  0.553  0.773  0.489-  53 1.42  67 1.44  65 1.45
  55  0.667  0.662  0.495-  44 1.41  56 1.42  71 1.99
  56  0.720  0.773  0.489-  55 1.42  67 1.44  69 1.45
  57  0.836  0.667  0.487-  44 1.41  46 1.42  58 1.42
  58  0.891  0.778  0.486-  57 1.42  69 1.42  59 1.42
  59  0.001  0.834  0.484-  60 1.42  58 1.42  48 1.43
  60  0.057  0.945  0.483-  59 1.42   1 1.43   3 1.43
  61  0.167  0.834  0.484-  48 1.42  50 1.42  62 1.42
  62  0.223  0.946  0.484-  61 1.42   3 1.42   5 1.43
  63  0.333  0.834  0.484-  64 1.42  52 1.42  50 1.43
  64  0.389  0.945  0.484-  63 1.42   7 1.43   5 1.43
  65  0.499  0.831  0.486-  52 1.42  66 1.43  54 1.45
  66  0.555  0.943  0.484-   9 1.43  65 1.43   7 1.43
  67  0.665  0.830  0.488-  68 1.42  54 1.44  56 1.44
  68  0.721  0.941  0.485-  67 1.42  11 1.43   9 1.43
  69  0.833  0.831  0.486-  58 1.42  70 1.43  56 1.45
  70  0.888  0.943  0.484-  11 1.43  69 1.43   1 1.43
  71  0.528  0.555  0.541-  30 1.99  53 1.99  32 1.99  55 1.99
  72  0.528  0.555  0.939-  73 1.16
  73  0.478  0.498  0.996-  72 1.16
 

IMPORTANT INFORMATION: All symmetrisations will be switched off!
NOSYMM: (Re-)initialisation of all symmetry stuff for point group C_1.

 
 
 KPOINTS: K-Points                                

Automatic generation of k-mesh.
Space group operators:
 irot       det(A)        alpha          n_x          n_y          n_z        tau_x        tau_y        tau_z
    1     1.000000     0.000000     1.000000     0.000000     0.000000     0.000000     0.000000     0.000000
 
 Subroutine IBZKPT returns following result:
 ===========================================
 
 Found      5 irreducible k-points:
 
 Following reciprocal coordinates:
            Coordinates               Weight
  0.000000  0.000000  0.000000      1.000000
  0.333333 -0.000000  0.000000      2.000000
 -0.000000  0.333333  0.000000      2.000000
  0.333333  0.333333  0.000000      2.000000
 -0.333333  0.333333  0.000000      2.000000
 
 Following cartesian coordinates:
            Coordinates               Weight
  0.000000  0.000000  0.000000      1.000000
  0.022431  0.013065  0.000000      2.000000
 -0.000000  0.026131  0.000000      2.000000
  0.022431  0.039196  0.000000      2.000000
 -0.022431  0.013065  0.000000      2.000000
 
 TETIRR: Found     24 inequivalent tetrahedra from       54


--------------------------------------------------------------------------------------------------------




 Dimension of arrays:
   k-points           NKPTS =      5   k-points in BZ     NKDIM =      5   number of bands    NBANDS=    192
   number of dos      NEDOS =   4000   number of ions     NIONS =     73
   non local maximal  LDIM  =      6   non local SUM 2l+1 LMDIM =     18
   total plane-waves  NPLWV = 512000
   max r-space proj   IRMAX =      1   max aug-charges    IRDMAX=   6464
   dimension x,y,z NGX =    80 NGY =   80 NGZ =   80
   dimension x,y,z NGXF=   160 NGYF=  160 NGZF=  160
   support grid    NGXF=   160 NGYF=  160 NGZF=  160
   ions per type =              36   1  33   1   1   1
   NGX,Y,Z   is equivalent  to a cutoff of   8.95,  9.01,  8.87 a.u.
   NGXF,Y,Z  is equivalent  to a cutoff of  17.90, 18.02, 17.73 a.u.

 SYSTEM =  unknown system                          
 POSCAR =  POSCAR-clean                            

 Startparameter for this run:
   NWRITE =      2    write-flag & timer
   PREC   = normal    normal or accurate (medium, high low for compatibility)
   ISTART =      0    job   : 0-new  1-cont  2-samecut
   ICHARG =      2    charge: 1-file 2-atom 10-const
   ISPIN  =      2    spin polarized calculation?
   LNONCOLLINEAR =      F non collinear calculations
   LSORBIT =      F    spin-orbit coupling
   INIWAV =      1    electr: 0-lowe 1-rand  2-diag
   LASPH  =      F    aspherical Exc in radial PAW
   METAGGA=      F    non-selfconsistent MetaGGA calc.

 Electronic Relaxation 1
   ENCUT  =  440.0 eV  32.34 Ry    5.69 a.u.  25.42 25.25 25.66*2*pi/ulx,y,z
   ENINI  =  440.0     initial cutoff
   ENAUG  =  644.9 eV  augmentation charge cutoff
   NELM   =    100;   NELMIN=  2; NELMDL= -5     # of ELM steps 
   EDIFF  = 0.1E-03   stopping-criterion for ELM
   LREAL  =      F    real-space projection
   NLSPLINE    = F    spline interpolate recip. space projectors
   LCOMPAT=      F    compatible to vasp.4.4
   GGA_COMPAT  = T    GGA compatible to vasp.4.4-vasp.4.6
   LMAXPAW     = -100 max onsite density
   LMAXMIX     =    2 max onsite mixed and CHGCAR
   VOSKOWN=      0    Vosko Wilk Nusair interpolation
   ROPT   =    0.00000   0.00000   0.00000   0.00000
   ROPT   =    0.00000   0.00000
 Ionic relaxation
   EDIFFG = -.1E-01   stopping-criterion for IOM
   NSW    =      0    number of steps for IOM
   NBLOCK =      1;   KBLOCK =      1    inner block; outer block 
   IBRION =     -1    ionic relax: 0-MD 1-quasi-New 2-CG
   NFREE  =      0    steps in history (QN), initial steepest desc. (CG)
   ISIF   =      2    stress and relaxation
   IWAVPR =     10    prediction:  0-non 1-charg 2-wave 3-comb
   ISYM   =      0    0-nonsym 1-usesym 2-fastsym
   LCORR  =      T    Harris-Foulkes like correction to forces

   POTIM  = 0.5000    time-step for ionic-motion
   TEIN   =    0.0    initial temperature
   TEBEG  =    0.0;   TEEND  =   0.0 temperature during run
   SMASS  =  -3.00    Nose mass-parameter (am)
   estimated Nose-frequenzy (Omega)   =  0.10E-29 period in steps =****** mass=  -0.505E-26a.u.
   SCALEE = 1.0000    scale energy and forces
   NPACO  =    256;   APACO  = 16.0  distance and # of slots for P.C.
   PSTRESS=    0.0 pullay stress

  Mass of Ions in am
   POMASS =  12.01 14.00 12.01 52.00 12.01 16.00
  Ionic Valenz
   ZVAL   =   4.00  5.00  4.00 12.00  4.00  6.00
  Atomic Wigner-Seitz radii
   RWIGS  =  -1.00 -1.00 -1.00 -1.00 -1.00 -1.00
  virtual crystal weights 
   VCA    =   1.00  1.00  1.00  1.00  1.00  1.00
   NELECT =     303.0000    total number of electrons
   NUPDOWN=      -1.0000    fix difference up-down

 DOS related values:
   EMIN   = -14.00;   EMAX   =  6.00  energy-range for DOS
   EFERMI =   0.00
   ISMEAR =    -5;   SIGMA  =   0.20  broadening in eV -4-tet -1-fermi 0-gaus

 Electronic relaxation 2 (details)
   IALGO  =     38    algorithm
   LDIAG  =      T    sub-space diagonalisation (order eigenvalues)
   LSUBROT=      F    optimize rotation matrix (better conditioning)
   TURBO    =      0    0=normal 1=particle mesh
   IRESTART =      0    0=no restart 2=restart with 2 vectors
   NREBOOT  =      0    no. of reboots
   NMIN     =      0    reboot dimension
   EREF     =   0.00    reference energy to select bands
   IMIX   =      4    mixing-type and parameters
     AMIX     =   0.25;   BMIX     =  0.00
     AMIX_MAG =   1.00;   BMIX_MAG =  0.00
     AMIN     =   0.10
     WC   =   100.;   INIMIX=   1;  MIXPRE=   1;  MAXMIX= -45

 Intra band minimization:
   WEIMIN = 0.0000     energy-eigenvalue tresh-hold
   EBREAK =  0.13E-06  absolut break condition
   DEPER  =   0.30     relativ break condition  

   TIME   =   0.40     timestep for ELM

  volume/ion in A,a.u.               =      38.95       262.86
  Fermi-wavevector in a.u.,A,eV,Ry     =   0.776137  1.466686  8.195990  0.602388
  Thomas-Fermi vector in A             =   1.878551
 
 Write flags
   LWAVE        =      F    write WAVECAR
   LDOWNSAMPLE  =      F    k-point downsampling of WAVECAR
   LCHARG       =      F    write CHGCAR
   LVTOT        =      F    write LOCPOT, total local potential
   LVHAR        =      F    write LOCPOT, Hartree potential only
   LELF         =      F    write electronic localiz. function (ELF)
   LORBIT       =     11    0 simple, 1 ext, 2 COOP (PROOUT), +10 PAW based schemes


 Dipole corrections
   LMONO  =      F    monopole corrections only (constant potential shift)
   LDIPOL =      F    correct potential (dipole corrections)
   IDIPOL =      0    1-x, 2-y, 3-z, 4-all directions 
   EPSILON=  1.0000000 bulk dielectric constant

 Exchange correlation treatment:
   GGA     =    --    GGA type
   LEXCH   =     8    internal setting for exchange type
   VOSKOWN=      0    Vosko Wilk Nusair interpolation
   LHFCALC =     F    Hartree Fock is set to
   LHFONE  =     F    Hartree Fock one center treatment
   AEXX    =    0.0000 exact exchange contribution

 Linear response parameters
   LEPSILON=     F    determine dielectric tensor
   LRPA    =     F    only Hartree local field effects (RPA)
   LNABLA  =     F    use nabla operator in PAW spheres
   LVEL    =     F    velocity operator in full k-point grid
   LINTERFAST=   F  fast interpolation
   KINTER  =     0    interpolate to denser k-point grid
   CSHIFT  =0.1000    complex shift for real part using Kramers Kronig
   OMEGAMAX=  -1.0    maximum frequency
   DEG_THRESHOLD= 0.2000000E-02 threshold for treating states as degnerate
   RTIME   =   -0.100 relaxation time in fs
  (WPLASMAI=    0.000 imaginary part of plasma frequency in eV, 0.658/RTIME)
   DFIELD  = 0.0000000 0.0000000 0.0000000 field for delta impulse in time
 
 Orbital magnetization related:
   ORBITALMAG=     F  switch on orbital magnetization
   LCHIMAG   =     F  perturbation theory with respect to B field
   DQ        =  0.001000  dq finite difference perturbation B field
   LLRAUG    =     F  two centre corrections for induced B field



--------------------------------------------------------------------------------------------------------


 Static calculation
 charge density and potential will be updated during run
 spin polarized calculation
 Variant of blocked Davidson
 Davidson routine will perform the subspace rotation
 perform sub-space diagonalisation
    after iterative eigenvector-optimisation
 modified Broyden-mixing scheme, WC =      100.0
 initial mixing is a Kerker type mixing with AMIX =  0.2500 and BMIX =      0.0001
 Hartree-type preconditioning will be used
 using additional bands           40
 reciprocal scheme for non local part
 use partial core corrections
 calculate Harris-corrections to forces 
   (improved forces if not selfconsistent)
 use gradient corrections 
 use of overlap-Matrix (Vanderbilt PP)
 Fermi weights with tetrahedron method with Bloechl corrections


--------------------------------------------------------------------------------------------------------


  energy-cutoff  :      440.00
  volume of cell :     2843.49
      direct lattice vectors                 reciprocal lattice vectors
    14.860536817  0.000011824  0.000000000     0.067292289  0.039196149  0.000000000
    -7.430268409 12.756349395  0.000000000    -0.000000062  0.078392297  0.000000000
     0.000000000  0.000000000 15.000000000     0.000000000  0.000000000  0.066666667

  length of vectors
    14.860536817 14.762565445 15.000000000     0.077875479  0.078392297  0.066666667


 
 k-points in units of 2pi/SCALE and weight: K-Points                                
   0.00000000  0.00000000  0.00000000       0.111
   0.02243076  0.01306538  0.00000000       0.222
  -0.00000002  0.02613077  0.00000000       0.222
   0.02243074  0.03919615  0.00000000       0.222
  -0.02243078  0.01306538  0.00000000       0.222
 
 k-points in reciprocal lattice and weights: K-Points                                
   0.00000000  0.00000000  0.00000000       0.111
   0.33333333 -0.00000000  0.00000000       0.222
  -0.00000000  0.33333333  0.00000000       0.222
   0.33333333  0.33333333  0.00000000       0.222
  -0.33333333  0.33333333  0.00000000       0.222
 
 position of ions in fractional coordinates (direct lattice) 
   0.00002800  0.99980717  0.48357437
   0.05583781  0.11158804  0.48364853
   0.16794741  0.00187167  0.48348845
   0.22359045  0.11336237  0.48420229
   0.33416898  0.00186389  0.48366260
   0.39001797  0.11335205  0.48430961
   0.50002004  0.99979699  0.48365687
   0.55598982  0.11157737  0.48357525
   0.66584032  0.99795326  0.48421854
   0.72161655  0.10938366  0.48348613
   0.83237054  0.99796361  0.48432088
   0.88801954  0.10939187  0.48365754
   0.99919382  0.16594818  0.48372765
   0.05453318  0.27743098  0.48438900
   0.16745885  0.16826861  0.48434790
   0.22317157  0.27996286  0.48610688
   0.33515301  0.17004947  0.48527296
   0.39095137  0.28163696  0.48835755
   0.50105473  0.16826029  0.48436747
   0.55704074  0.27996425  0.48605525
   0.66699661  0.16593871  0.48346353
   0.72313444  0.27742004  0.48397216
   0.83266363  0.16508361  0.48351712
   0.88828016  0.27632134  0.48364251
   0.99884874  0.33300204  0.48420980
   0.05398889  0.44444239  0.48473290
   0.16530968  0.33304583  0.48598231
   0.21874270  0.44392981  0.48781714
   0.33566692  0.33809788  0.48935129
   0.38823503  0.44904632  0.49523827
   0.50270991  0.33813203  0.48947605
   0.56110968  0.44909603  0.49549581
   0.66797553  0.33303758  0.48563344
   0.72542264  0.44392729  0.48734638
   0.83439017  0.33299753  0.48386469
   0.89068844  0.44444170  0.48431924
   0.99996719  0.49970221  0.48425458
   0.05528755  0.61034220  0.48412501
   0.16402109  0.50009357  0.48629673
   0.22067113  0.61143581  0.48628139
   0.32892468  0.49942940  0.49138185
   0.38539642  0.61157806  0.49136764
   0.67077537  0.49943007  0.49128564
   0.72644901  0.61157468  0.49127151
   0.83630818  0.50009595  0.48564778
   0.89099758  0.61143179  0.48561994
   0.00105639  0.66633275  0.48414616
   0.05680953  0.77833507  0.48381860
   0.16551262  0.66633314  0.48459473
   0.22176396  0.77833223  0.48417948
   0.33086206  0.66711025  0.48785240
   0.38801047  0.77827705  0.48600681
   0.49495876  0.66201145  0.49508140
   0.55316380  0.77305283  0.48933198
   0.66729912  0.66195936  0.49533638
   0.72013255  0.77301715  0.48945462
   0.83648633  0.66711063  0.48737530
   0.89051371  0.77828395  0.48565529
   0.00141991  0.83408588  0.48398418
   0.05669335  0.94546230  0.48347531
   0.16736599  0.83449189  0.48363932
   0.22319676  0.94615111  0.48353282
   0.33290578  0.83407826  0.48440352
   0.38901186  0.94545395  0.48374387
   0.49883316  0.83128807  0.48611627
   0.55482359  0.94304533  0.48436193
   0.66494239  0.82961775  0.48838410
   0.72074050  0.94122437  0.48530911
   0.83270290  0.83128423  0.48605982
   0.88847428  0.94305284  0.48437288
   0.52757432  0.55532064  0.54069137
   0.52757432  0.55532064  0.93935804
   0.47752228  0.49842010  0.99571385
 
 position of ions in cartesian coordinates  (Angst):
  -7.42841945 12.75388956  7.25361554
   0.00065074  1.42345669  7.25472800
   2.48188163  0.02387762  7.25232669
   2.48036129  1.44609271  7.26303439
   4.95208120  0.02378034  7.25493907
   4.95364015  1.44596302  7.26464414
   0.00180615 12.75376567  7.25485302
   7.43325743  1.42332653  7.25362876
   2.47968401 12.73024835  7.26327806
   9.91085936  1.39534472  7.25229194
   4.95433565 12.73038233  7.26481322
  12.38363610  1.39545142  7.25486311
  13.61551706  2.11690472  7.25591478
  -1.25099423  3.53900713  7.26583507
   1.23824753  2.14649513  7.26521855
   1.23625019  3.57130668  7.29160326
   3.71704046  2.16921447  7.27909446
   3.71710909  3.59266406  7.32536324
   6.19572322  2.14639292  7.26551205
   6.19771486  3.57132838  7.29082879
   8.67895854  2.11678009  7.25195294
   8.68486062  3.53887549  7.25958247
  11.14721295  2.10587410  7.25275674
  11.14717830  3.52486202  7.25463771
  12.36913394  4.24790212  7.26314703
  -2.50002235  5.66946305  7.27099347
  -0.01802930  4.24845087  7.28973462
  -0.04788376  5.66292641  7.31725708
   2.47603258  4.31289863  7.34026930
   2.43284626  5.72819637  7.42857399
   4.95812739  4.31333626  7.34214081
   5.00148708  5.72883245  7.43243712
   7.45191633  4.24835168  7.28450163
   7.48167089  5.66290023  7.31019566
   9.92522483  4.24784272  7.25797035
   9.93378729  5.66946417  7.26478856
  11.14712772  6.37438776  7.26381871
  -3.71340371  7.78573905  7.26187511
  -1.27838802  6.37937022  7.29445092
  -1.26384076  7.79969150  7.29422087
   1.17710279  6.37089984  7.37072779
   1.18300851  7.80150793  7.37051463
   6.25718262  6.37091238  7.36928462
   6.25125826  7.80146892  7.36907270
   8.71214131  6.37940862  7.28471664
   8.69760006  7.79964811  7.28429909
  -4.93533271  8.49997339  7.26219243
  -4.93901839  9.92871477  7.25727905
  -2.49142778  8.49998032  7.26892093
  -2.48768583  9.92868044  7.26269227
  -0.04002047  8.50989541  7.31778595
  -0.01676350  9.92797858  7.29010209
   2.43643009  8.44485527  7.42622100
   2.47632101  9.86133850  7.33997965
   4.99788739  8.44419279  7.43004568
   4.95783141  9.86088538  7.34181925
   7.47382492  8.50990612  7.31062948
   7.45065311  9.92807255  7.28482940
  -6.17638130 10.63989093  7.25976273
  -6.18254508 12.06064811  7.25212971
  -3.71335035 10.64507212  7.25458982
  -3.71333305 12.06943678  7.25299237
  -1.25026678 10.63979765  7.26605281
  -1.24405153 12.06054551  7.25615810
   1.23623505 10.60420691  7.29174405
   1.23789639 12.02982232  7.26542892
   3.71711834 10.58290170  7.32576147
   3.71704104 12.00659541  7.27963670
   6.19774718 10.60416189  7.29089734
   6.19606902 12.02992207  7.26559326
   3.71385623  7.08387029  8.11037054
   3.71385623  7.08387029 14.09037054
   3.39284229  6.35802660 14.93570773
 


--------------------------------------------------------------------------------------------------------


 k-point  1 :   0.0000 0.0000 0.0000  plane waves:   59589
 k-point  2 :   0.3333-0.0000 0.0000  plane waves:   59570
 k-point  3 :  -0.0000 0.3333 0.0000  plane waves:   59618
 k-point  4 :   0.3333 0.3333 0.0000  plane waves:   59652
 k-point  5 :  -0.3333 0.3333 0.0000  plane waves:   59570

 maximum and minimum number of plane-waves per node :      4995     4930

 maximum number of plane-waves:     59652
 maximum index in each direction: 
   IXMAX=   25   IYMAX=   25   IZMAX=   25
   IXMIN=  -25   IYMIN=  -25   IZMIN=  -25


 parallel 3D FFT for wavefunctions:
    minimum data exchange during FFTs selected (reduces bandwidth)
 parallel 3D FFT for charge:
    minimum data exchange during FFTs selected (reduces bandwidth)


 total amount of memory used by VASP MPI-rank0   115989. kBytes
=======================================================================

   base      :      30000. kBytes
   nonl-proj :      27264. kBytes
   fftplans  :       4700. kBytes
   grid      :      15193. kBytes
   one-center:        217. kBytes
   wavefun   :      38615. kBytes
 
     INWAV:  cpu time    0.0000: real time    0.0001
 Broyden mixing: mesh for mixing (old mesh)
   NGX = 51   NGY = 51   NGZ = 51
  (NGX  =160   NGY  =160   NGZ  =160)
  gives a total of 132651 points

 initial charge density was supplied:
 charge density of overlapping atoms calculated
 number of electron     303.0000000 magnetization       2.0000000
 keeping initial charge density in first step


--------------------------------------------------------------------------------------------------------


 Maximum index for augmentation-charges          183 (set IRDMAX)


--------------------------------------------------------------------------------------------------------


 First call to EWALD:  gamma=   0.125
 Maximum number of real-space cells 3x 3x 3
 Maximum number of reciprocal cells 3x 3x 3

    FEWALD:  cpu time    0.0032: real time    0.0033


--------------------------------------- Iteration      1(   1)  ---------------------------------------


    POTLOK:  cpu time    0.2137: real time    0.2392
    SETDIJ:  cpu time    0.0085: real time    0.0094
     EDDAV:  cpu time   11.4012: real time   11.5052
 BZINTS: Fermi energy:  7.949583;303.000000 electrons
         Band energy:***********;  BLOECHL correction: -0.033248
       DOS:  cpu time    0.1085: real time    0.1087
    --------------------------------------------
      LOOP:  cpu time   11.7319: real time   11.8625

 eigenvalue-minimisations  :  4400
 total energy-change (2. order) : 0.2494930E+04  (-0.1121867E+05)
 number of electron     303.0000000 magnetization       2.0000000
 augmentation part      303.0000000 magnetization       2.0000000

 Free energy of the ion-electron system (eV)
  ---------------------------------------------------
  alpha Z        PSCENC =       167.23241197
  Ewald energy   TEWEN  =     28888.69786066
  -Hartree energ DENC   =    -38568.44393795
  -exchange      EXHF   =         0.00000000
  -V(xc)+E(xc)   XCENC  =      1022.09760738
  PAW double counting   =      9455.23336183    -9546.47664214
  entropy T*S    EENTRO =         0.00000000
  eigenvalues    EBANDS =     -1568.16337721
  atomic energy  EATOM  =     12644.75315347
  Solvation  Ediel_sol  =         0.00000000
  ---------------------------------------------------
  free energy    TOTEN  =      2494.93043802 eV

  energy without entropy =     2494.93043802  energy(sigma->0) =     2494.93043802


--------------------------------------------------------------------------------------------------------




--------------------------------------- Iteration      1(   2)  ---------------------------------------


     EDDAV:  cpu time   14.7936: real time   15.1447
 BZINTS: Fermi energy: -1.349894;303.000000 electrons
         Band energy:***********;  BLOECHL correction: -0.080566
       DOS:  cpu time    0.0116: real time    0.0116
    --------------------------------------------
      LOOP:  cpu time   14.8052: real time   15.1563

 eigenvalue-minimisations  :  5504
 total energy-change (2. order) :-0.2741617E+04  (-0.2619040E+04)
 number of electron     303.0000000 magnetization       2.0000000
 augmentation part      303.0000000 magnetization       2.0000000

 Free energy of the ion-electron system (eV)
  ---------------------------------------------------
  alpha Z        PSCENC =       167.23241197
  Ewald energy   TEWEN  =     28888.69786066
  -Hartree energ DENC   =    -38568.44393795
  -exchange      EXHF   =         0.00000000
  -V(xc)+E(xc)   XCENC  =      1022.09760738
  PAW double counting   =      9455.23336183    -9546.47664214
  entropy T*S    EENTRO =         0.00000000
  eigenvalues    EBANDS =     -4309.77999685
  atomic energy  EATOM  =     12644.75315347
  Solvation  Ediel_sol  =         0.00000000
  ---------------------------------------------------
  free energy    TOTEN  =      -246.68618162 eV

  energy without entropy =     -246.68618162  energy(sigma->0) =     -246.68618162


--------------------------------------------------------------------------------------------------------




--------------------------------------- Iteration      1(   3)  ---------------------------------------


     EDDAV:  cpu time   13.1451: real time   13.3538
 BZINTS: Fermi energy: -4.505310;303.000000 electrons
         Band energy:***********;  BLOECHL correction: -0.025101
       DOS:  cpu time    0.0119: real time    0.0119
    --------------------------------------------
      LOOP:  cpu time   13.1570: real time   13.3657

 eigenvalue-minimisations  :  4560
 total energy-change (2. order) :-0.4557617E+03  (-0.4519749E+03)
 number of electron     303.0000000 magnetization       2.0000000
 augmentation part      303.0000000 magnetization       2.0000000

 Free energy of the ion-electron system (eV)
  ---------------------------------------------------
  alpha Z        PSCENC =       167.23241197
  Ewald energy   TEWEN  =     28888.69786066
  -Hartree energ DENC   =    -38568.44393795
  -exchange      EXHF   =         0.00000000
  -V(xc)+E(xc)   XCENC  =      1022.09760738
  PAW double counting   =      9455.23336183    -9546.47664214
  entropy T*S    EENTRO =         0.00000000
  eigenvalues    EBANDS =     -4765.54168386
  atomic energy  EATOM  =     12644.75315347
  Solvation  Ediel_sol  =         0.00000000
  ---------------------------------------------------
  free energy    TOTEN  =      -702.44786863 eV

  energy without entropy =     -702.44786863  energy(sigma->0) =     -702.44786863


--------------------------------------------------------------------------------------------------------




--------------------------------------- Iteration      1(   4)  ---------------------------------------


     EDDAV:  cpu time   13.1053: real time   13.2007
 BZINTS: Fermi energy: -4.696697;303.000000 electrons
         Band energy:***********;  BLOECHL correction: -0.028308
       DOS:  cpu time    0.0116: real time    0.0116
    --------------------------------------------
      LOOP:  cpu time   13.1169: real time   13.2123

 eigenvalue-minimisations  :  4624
 total energy-change (2. order) :-0.1642431E+02  (-0.1628034E+02)
 number of electron     303.0000000 magnetization       2.0000000
 augmentation part      303.0000000 magnetization       2.0000000

 Free energy of the ion-electron system (eV)
  ---------------------------------------------------
  alpha Z        PSCENC =       167.23241197
  Ewald energy   TEWEN  =     28888.69786066
  -Hartree energ DENC   =    -38568.44393795
  -exchange      EXHF   =         0.00000000
  -V(xc)+E(xc)   XCENC  =      1022.09760738
  PAW double counting   =      9455.23336183    -9546.47664214
  entropy T*S    EENTRO =         0.00000000
  eigenvalues    EBANDS =     -4781.96599550
  atomic energy  EATOM  =     12644.75315347
  Solvation  Ediel_sol  =         0.00000000
  ---------------------------------------------------
  free energy    TOTEN  =      -718.87218027 eV

  energy without entropy =     -718.87218027  energy(sigma->0) =     -718.87218027


--------------------------------------------------------------------------------------------------------




--------------------------------------- Iteration      1(   5)  ---------------------------------------


     EDDAV:  cpu time   14.1493: real time   14.5362
 BZINTS: Fermi energy: -4.706781;303.000000 electrons
         Band energy:***********;  BLOECHL correction: -0.028473
       DOS:  cpu time    0.0118: real time    0.0119
    CHARGE:  cpu time    0.1658: real time    0.1694
    MIXING:  cpu time    0.0045: real time    0.0049
    --------------------------------------------
      LOOP:  cpu time   14.3315: real time   14.7224

 eigenvalue-minimisations  :  5288
 total energy-change (2. order) :-0.5432026E+00  (-0.5414358E+00)
 number of electron     302.9999987 magnetization       0.0245439
 augmentation part       12.3781094 magnetization       0.0686596

 Broyden mixing:
  rms(total) = 0.47658E+01    rms(broyden)= 0.47652E+01
  rms(prec ) = 0.55164E+01
  weight for this iteration     100.00

 Free energy of the ion-electron system (eV)
  ---------------------------------------------------
  alpha Z        PSCENC =       167.23241197
  Ewald energy   TEWEN  =     28888.69786066
  -Hartree energ DENC   =    -38568.44393795
  -exchange      EXHF   =         0.00000000
  -V(xc)+E(xc)   XCENC  =      1022.09760738
  PAW double counting   =      9455.23336183    -9546.47664214
  entropy T*S    EENTRO =         0.00000000
  eigenvalues    EBANDS =     -4782.50919813
  atomic energy  EATOM  =     12644.75315347
  Solvation  Ediel_sol  =         0.00000000
  ---------------------------------------------------
  free energy    TOTEN  =      -719.41538290 eV

  energy without entropy =     -719.41538290  energy(sigma->0) =     -719.41538290


--------------------------------------------------------------------------------------------------------




--------------------------------------- Iteration      1(   6)  ---------------------------------------


    POTLOK:  cpu time    0.1502: real time    0.1528
    SETDIJ:  cpu time    0.0084: real time    0.0087
     EDDAV:  cpu time   12.9532: real time   13.0598
 BZINTS: Fermi energy: -5.564778;303.000000 electrons
         Band energy:***********;  BLOECHL correction: -0.024023
       DOS:  cpu time    0.0101: real time    0.0101
    CHARGE:  cpu time    0.1654: real time    0.1724
    MIXING:  cpu time    0.0034: real time    0.0063
    --------------------------------------------
      LOOP:  cpu time   13.2907: real time   13.4101

 eigenvalue-minimisations  :  4848
 total energy-change (2. order) : 0.6446500E+00  (-0.8728049E+01)
 number of electron     303.0000032 magnetization       0.0184633
 augmentation part       17.9967412 magnetization       0.0289069

 Broyden mixing:
  rms(total) = 0.74066E+01    rms(broyden)= 0.74063E+01
  rms(prec ) = 0.84755E+01
  weight for this iteration     100.00

 eigenvalues of (default mixing * dielectric matrix)
  average eigenvalue GAMMA=   0.2855
  0.2855

 Free energy of the ion-electron system (eV)
  ---------------------------------------------------
  alpha Z        PSCENC =       167.23241197
  Ewald energy   TEWEN  =     28888.69786066
  -Hartree energ DENC   =    -38943.23575997
  -exchange      EXHF   =         0.00000000
  -V(xc)+E(xc)   XCENC  =      1034.86807785
  PAW double counting   =     13239.52831292   -13330.76221589
  entropy T*S    EENTRO =         0.00000000
  eigenvalues    EBANDS =     -4419.85257392
  atomic energy  EATOM  =     12644.75315347
  Solvation  Ediel_sol  =         0.00000000
  ---------------------------------------------------
  free energy    TOTEN  =      -718.77073291 eV

  energy without entropy =     -718.77073291  energy(sigma->0) =     -718.77073291


--------------------------------------------------------------------------------------------------------




--------------------------------------- Iteration      1(   7)  ---------------------------------------


    POTLOK:  cpu time    0.1670: real time    0.1755
    SETDIJ:  cpu time    0.0086: real time    0.0086
     EDDAV:  cpu time   13.0850: real time   13.3263
 BZINTS: Fermi energy: -4.035152;303.000000 electrons
         Band energy:***********;  BLOECHL correction: -0.013743
       DOS:  cpu time    0.0125: real time    0.0126
    CHARGE:  cpu time    0.1657: real time    0.1691
    MIXING:  cpu time    0.0040: real time    0.0049
    --------------------------------------------
      LOOP:  cpu time   13.4428: real time   13.6970

 eigenvalue-minimisations  :  4984
 total energy-change (2. order) : 0.4526544E+02  (-0.6319256E+01)
 number of electron     303.0000022 magnetization       0.6088942
 augmentation part       14.4616200 magnetization       0.3989710

 Broyden mixing:
  rms(total) = 0.26569E+01    rms(broyden)= 0.26563E+01
  rms(prec ) = 0.29242E+01
  weight for this iteration     100.00

 eigenvalues of (default mixing * dielectric matrix)
  average eigenvalue GAMMA=   0.6307
  0.9431  0.3183

 Free energy of the ion-electron system (eV)
  ---------------------------------------------------
  alpha Z        PSCENC =       167.23241197
  Ewald energy   TEWEN  =     28888.69786066
  -Hartree energ DENC   =    -39085.33060155
  -exchange      EXHF   =         0.00000000
  -V(xc)+E(xc)   XCENC  =      1039.36352493
  PAW double counting   =     14471.46629907   -14567.25690128
  entropy T*S    EENTRO =         0.00000000
  eigenvalues    EBANDS =     -4232.43104303
  atomic energy  EATOM  =     12644.75315347
  Solvation  Ediel_sol  =         0.00000000
  ---------------------------------------------------
  free energy    TOTEN  =      -673.50529576 eV

  energy without entropy =     -673.50529576  energy(sigma->0) =     -673.50529576


--------------------------------------------------------------------------------------------------------




--------------------------------------- Iteration      1(   8)  ---------------------------------------


    POTLOK:  cpu time    0.1457: real time    0.1480
    SETDIJ:  cpu time    0.0086: real time    0.0086
     EDDAV:  cpu time   12.9404: real time   13.0544
 BZINTS: Fermi energy: -2.437108;303.000000 electrons
         Band energy:***********;  BLOECHL correction: -0.068538
       DOS:  cpu time    0.0118: real time    0.0119
    CHARGE:  cpu time    0.1660: real time    0.1677
    MIXING:  cpu time    0.0037: real time    0.0044
    --------------------------------------------
      LOOP:  cpu time   13.2762: real time   13.3951

 eigenvalue-minimisations  :  4872
 total energy-change (2. order) : 0.3680554E+01  (-0.3577710E+01)
 number of electron     302.9999995 magnetization       0.3300607
 augmentation part       12.2340445 magnetization       0.2260342

 Broyden mixing:
  rms(total) = 0.26246E+01    rms(broyden)= 0.26238E+01
  rms(prec ) = 0.30963E+01
  weight for this iteration     100.00

 eigenvalues of (default mixing * dielectric matrix)
  average eigenvalue GAMMA=   1.1197
  2.5683  0.3954  0.3954

 Free energy of the ion-electron system (eV)
  ---------------------------------------------------
  alpha Z        PSCENC =       167.23241197
  Ewald energy   TEWEN  =     28888.69786066
  -Hartree energ DENC   =    -39375.33959125
  -exchange      EXHF   =         0.00000000
  -V(xc)+E(xc)   XCENC  =      1049.19642188
  PAW double counting   =     18177.71001301   -18276.70446249
  entropy T*S    EENTRO =         0.00000000
  eigenvalues    EBANDS =     -3945.37054912
  atomic energy  EATOM  =     12644.75315347
  Solvation  Ediel_sol  =         0.00000000
  ---------------------------------------------------
  free energy    TOTEN  =      -669.82474188 eV

  energy without entropy =     -669.82474188  energy(sigma->0) =     -669.82474188


--------------------------------------------------------------------------------------------------------




--------------------------------------- Iteration      1(   9)  ---------------------------------------


    POTLOK:  cpu time    0.1268: real time    0.1291
    SETDIJ:  cpu time    0.0104: real time    0.0104
     EDDAV:  cpu time   12.3162: real time   12.4367
 BZINTS: Fermi energy: -2.799445;303.000000 electrons
         Band energy:***********;  BLOECHL correction: -0.073549
       DOS:  cpu time    0.0117: real time    0.0117
    CHARGE:  cpu time    0.1634: real time    0.1644
    MIXING:  cpu time    0.0036: real time    0.0036
    --------------------------------------------
      LOOP:  cpu time   12.6321: real time   12.7560

 eigenvalue-minimisations  :  4576
 total energy-change (2. order) : 0.5101125E+01  (-0.2489418E+01)
 number of electron     303.0000026 magnetization      -0.0056719
 augmentation part       15.0261904 magnetization      -0.0413003

 Broyden mixing:
  rms(total) = 0.21105E+01    rms(broyden)= 0.21090E+01
  rms(prec ) = 0.27127E+01
  weight for this iteration     100.00

 eigenvalues of (default mixing * dielectric matrix)
  average eigenvalue GAMMA=   1.0527
  2.7226  0.7849  0.3516  0.3516

 Free energy of the ion-electron system (eV)
  ---------------------------------------------------
  alpha Z        PSCENC =       167.23241197
  Ewald energy   TEWEN  =     28888.69786066
  -Hartree energ DENC   =    -39790.04130219
  -exchange      EXHF   =         0.00000000
  -V(xc)+E(xc)   XCENC  =      1064.27519584
  PAW double counting   =     25892.92078616   -25995.26775922
  entropy T*S    EENTRO =         0.00000000
  eigenvalues    EBANDS =     -3537.29396359
  atomic energy  EATOM  =     12644.75315347
  Solvation  Ediel_sol  =         0.00000000
  ---------------------------------------------------
  free energy    TOTEN  =      -664.72361690 eV

  energy without entropy =     -664.72361690  energy(sigma->0) =     -664.72361690


--------------------------------------------------------------------------------------------------------




--------------------------------------- Iteration      1(  10)  ---------------------------------------


    POTLOK:  cpu time    0.1853: real time    0.1884
    SETDIJ:  cpu time    0.0103: real time    0.0104
     EDDAV:  cpu time   13.5237: real time   13.6488
 BZINTS: Fermi energy: -1.264700;303.000000 electrons
         Band energy:***********;  BLOECHL correction: -0.068959
       DOS:  cpu time    0.0114: real time    0.0114
    CHARGE:  cpu time    0.1653: real time    0.1662
    MIXING:  cpu time    0.0034: real time    0.0034
    --------------------------------------------
      LOOP:  cpu time   13.8994: real time   14.0287

 eigenvalue-minimisations  :  5192
 total energy-change (2. order) : 0.2647563E+01  (-0.2097824E+01)
 number of electron     303.0000016 magnetization      -0.0564300
 augmentation part       12.6749894 magnetization      -0.0675963

 Broyden mixing:
  rms(total) = 0.10993E+01    rms(broyden)= 0.10973E+01
  rms(prec ) = 0.12812E+01
  weight for this iteration     100.00

 eigenvalues of (default mixing * dielectric matrix)
  average eigenvalue GAMMA=   1.1742
  3.3896  1.1766  0.6447  0.3300  0.3300

 Free energy of the ion-electron system (eV)
  ---------------------------------------------------
  alpha Z        PSCENC =       167.23241197
  Ewald energy   TEWEN  =     28888.69786066
  -Hartree energ DENC   =    -39820.74084662
  -exchange      EXHF   =         0.00000000
  -V(xc)+E(xc)   XCENC  =      1065.48197175
  PAW double counting   =     27761.38357193   -27864.21588266
  entropy T*S    EENTRO =         0.00000000
  eigenvalues    EBANDS =     -3504.66829452
  atomic energy  EATOM  =     12644.75315347
  Solvation  Ediel_sol  =         0.00000000
  ---------------------------------------------------
  free energy    TOTEN  =      -662.07605402 eV

  energy without entropy =     -662.07605402  energy(sigma->0) =     -662.07605402


--------------------------------------------------------------------------------------------------------




--------------------------------------- Iteration      1(  11)  ---------------------------------------


    POTLOK:  cpu time    0.1406: real time    0.1430
    SETDIJ:  cpu time    0.0085: real time    0.0086
     EDDAV:  cpu time   14.6096: real time   14.7262
 BZINTS: Fermi energy: -1.734198;303.000000 electrons
         Band energy:***********;  BLOECHL correction: -0.021808
       DOS:  cpu time    0.0126: real time    0.0126
    CHARGE:  cpu time    0.1638: real time    0.1647
    MIXING:  cpu time    0.0038: real time    0.0038
    --------------------------------------------
      LOOP:  cpu time   14.9389: real time   15.0590

 eigenvalue-minimisations  :  5384
 total energy-change (2. order) : 0.5358660E+00  (-0.1396912E+00)
 number of electron     303.0000020 magnetization      -0.7424979
 augmentation part       13.3891705 magnetization      -0.3695670

 Broyden mixing:
  rms(total) = 0.68596E+00    rms(broyden)= 0.68506E+00
  rms(prec ) = 0.70100E+00
  weight for this iteration     100.00

 eigenvalues of (default mixing * dielectric matrix)
  average eigenvalue GAMMA=   1.1414
  3.4098  1.4133  0.9840  0.3382  0.3382  0.3648

 Free energy of the ion-electron system (eV)
  ---------------------------------------------------
  alpha Z        PSCENC =       167.23241197
  Ewald energy   TEWEN  =     28888.69786066
  -Hartree energ DENC   =    -39808.46601714
  -exchange      EXHF   =         0.00000000
  -V(xc)+E(xc)   XCENC  =      1065.36352935
  PAW double counting   =     29512.37339319   -29614.75405277
  entropy T*S    EENTRO =         0.00000000
  eigenvalues    EBANDS =     -3516.74046673
  atomic energy  EATOM  =     12644.75315347
  Solvation  Ediel_sol  =         0.00000000
  ---------------------------------------------------
  free energy    TOTEN  =      -661.54018800 eV

  energy without entropy =     -661.54018800  energy(sigma->0) =     -661.54018800


--------------------------------------------------------------------------------------------------------




--------------------------------------- Iteration      1(  12)  ---------------------------------------


    POTLOK:  cpu time    0.1603: real time    0.1631
    SETDIJ:  cpu time    0.0113: real time    0.0116
     EDDAV:  cpu time   12.2527: real time   12.4983
 BZINTS: Fermi energy: -2.047011;303.000000 electrons
         Band energy:***********;  BLOECHL correction:  0.000000
       DOS:  cpu time    0.0074: real time    0.0075
    CHARGE:  cpu time    0.1647: real time    0.1661
    MIXING:  cpu time    0.0036: real time    0.0036
    --------------------------------------------
      LOOP:  cpu time   12.6000: real time   12.8501

 eigenvalue-minimisations  :  4560
 total energy-change (2. order) :-0.3190615E+00  (-0.8860041E-01)
 number of electron     303.0000020 magnetization      -0.9187995
 augmentation part       13.6795061 magnetization      -0.5891666

 Broyden mixing:
  rms(total) = 0.64169E+00    rms(broyden)= 0.64121E+00
  rms(prec ) = 0.71483E+00
  weight for this iteration     100.00

 eigenvalues of (default mixing * dielectric matrix)
  average eigenvalue GAMMA=   1.2299
  3.5945  1.7151  1.3333  0.6521  0.6521  0.3312  0.3312

 Free energy of the ion-electron system (eV)
  ---------------------------------------------------
  alpha Z        PSCENC =       167.23241197
  Ewald energy   TEWEN  =     28888.69786066
  -Hartree energ DENC   =    -39763.69241445
  -exchange      EXHF   =         0.00000000
  -V(xc)+E(xc)   XCENC  =      1064.08717975
  PAW double counting   =     30589.65315889   -30691.27304920
  entropy T*S    EENTRO =         0.00000000
  eigenvalues    EBANDS =     -3561.31755063
  atomic energy  EATOM  =     12644.75315347
  Solvation  Ediel_sol  =         0.00000000
  ---------------------------------------------------
  free energy    TOTEN  =      -661.85924954 eV

  energy without entropy =     -661.85924954  energy(sigma->0) =     -661.85924954


--------------------------------------------------------------------------------------------------------




--------------------------------------- Iteration      1(  13)  ---------------------------------------


    POTLOK:  cpu time    0.1666: real time    0.1693
    SETDIJ:  cpu time    0.0083: real time    0.0086
     EDDAV:  cpu time   13.0275: real time   13.1344
 BZINTS: Fermi energy: -2.114099;303.000000 electrons
         Band energy:***********;  BLOECHL correction: -0.001329
       DOS:  cpu time    0.0114: real time    0.0115
    CHARGE:  cpu time    0.1647: real time    0.1660
    MIXING:  cpu time    0.0041: real time    0.0041
    --------------------------------------------
      LOOP:  cpu time   13.3827: real time   13.4939

 eigenvalue-minimisations  :  4832
 total energy-change (2. order) :-0.1103943E+00  (-0.4449469E-01)
 number of electron     303.0000017 magnetization      -0.8780364
 augmentation part       13.6420954 magnetization      -0.7907373

 Broyden mixing:
  rms(total) = 0.43785E+00    rms(broyden)= 0.43773E+00
  rms(prec ) = 0.50533E+00
  weight for this iteration     100.00

 eigenvalues of (default mixing * dielectric matrix)
  average eigenvalue GAMMA=   1.2608
  3.6160  1.7584  1.7584  0.8675  0.8675  0.3317  0.3317  0.5553

 Free energy of the ion-electron system (eV)
  ---------------------------------------------------
  alpha Z        PSCENC =       167.23241197
  Ewald energy   TEWEN  =     28888.69786066
  -Hartree energ DENC   =    -39739.73245592
  -exchange      EXHF   =         0.00000000
  -V(xc)+E(xc)   XCENC  =      1063.59730088
  PAW double counting   =     31620.29731750   -31721.42811110
  entropy T*S    EENTRO =         0.00000000
  eigenvalues    EBANDS =     -3585.38712136
  atomic energy  EATOM  =     12644.75315347
  Solvation  Ediel_sol  =         0.00000000
  ---------------------------------------------------
  free energy    TOTEN  =      -661.96964389 eV

  energy without entropy =     -661.96964389  energy(sigma->0) =     -661.96964389


--------------------------------------------------------------------------------------------------------




--------------------------------------- Iteration      1(  14)  ---------------------------------------


    POTLOK:  cpu time    0.1504: real time    0.1524
    SETDIJ:  cpu time    0.0084: real time    0.0088
     EDDAV:  cpu time   12.3325: real time   12.4590
 BZINTS: Fermi energy: -2.094256;303.000000 electrons
         Band energy:***********;  BLOECHL correction: -0.002110
       DOS:  cpu time    0.0097: real time    0.0099
    CHARGE:  cpu time    0.1649: real time    0.1657
    MIXING:  cpu time    0.0038: real time    0.0038
    --------------------------------------------
      LOOP:  cpu time   12.6696: real time   12.7996

 eigenvalue-minimisations  :  4656
 total energy-change (2. order) :-0.2263988E-01  (-0.8161050E-02)
 number of electron     303.0000016 magnetization      -0.8895324
 augmentation part       13.6119600 magnetization      -0.8825599

 Broyden mixing:
  rms(total) = 0.37769E+00    rms(broyden)= 0.37765E+00
  rms(prec ) = 0.44048E+00
  weight for this iteration     100.00

 eigenvalues of (default mixing * dielectric matrix)
  average eigenvalue GAMMA=   1.3313
  3.5648  2.1161  2.1161  1.1325  1.1325  0.3315  0.3315  0.6286  0.6286

 Free energy of the ion-electron system (eV)
  ---------------------------------------------------
  alpha Z        PSCENC =       167.23241197
  Ewald energy   TEWEN  =     28888.69786066
  -Hartree energ DENC   =    -39742.43332290
  -exchange      EXHF   =         0.00000000
  -V(xc)+E(xc)   XCENC  =      1063.72308058
  PAW double counting   =     31694.87869015   -31795.98588477
  entropy T*S    EENTRO =         0.00000000
  eigenvalues    EBANDS =     -3582.85827294
  atomic energy  EATOM  =     12644.75315347
  Solvation  Ediel_sol  =         0.00000000
  ---------------------------------------------------
  free energy    TOTEN  =      -661.99228377 eV

  energy without entropy =     -661.99228377  energy(sigma->0) =     -661.99228377


--------------------------------------------------------------------------------------------------------




--------------------------------------- Iteration      1(  15)  ---------------------------------------


    POTLOK:  cpu time    0.1483: real time    0.1509
    SETDIJ:  cpu time    0.0102: real time    0.0103
     EDDAV:  cpu time   13.3447: real time   13.5134
 BZINTS: Fermi energy: -2.095236;303.000000 electrons
         Band energy:***********;  BLOECHL correction: -0.002097
       DOS:  cpu time    0.0110: real time    0.0111
    CHARGE:  cpu time    0.1638: real time    0.1647
    MIXING:  cpu time    0.0045: real time    0.0045
    --------------------------------------------
      LOOP:  cpu time   13.6824: real time   13.8547

 eigenvalue-minimisations  :  4928
 total energy-change (2. order) :-0.1064362E-01  (-0.1043198E-01)
 number of electron     303.0000015 magnetization      -0.9298713
 augmentation part       13.5826100 magnetization      -1.0476995

 Broyden mixing:
  rms(total) = 0.29025E+00    rms(broyden)= 0.29020E+00
  rms(prec ) = 0.34820E+00
  weight for this iteration     100.00

 eigenvalues of (default mixing * dielectric matrix)
  average eigenvalue GAMMA=   1.3349
  3.6105  2.3117  1.6110  1.5288  1.5288  0.7526  0.7526  0.3315  0.3315  0.5901

 Free energy of the ion-electron system (eV)
  ---------------------------------------------------
  alpha Z        PSCENC =       167.23241197
  Ewald energy   TEWEN  =     28888.69786066
  -Hartree energ DENC   =    -39739.70102615
  -exchange      EXHF   =         0.00000000
  -V(xc)+E(xc)   XCENC  =      1063.74356365
  PAW double counting   =     31742.16084461   -31843.15153511
  entropy T*S    EENTRO =         0.00000000
  eigenvalues    EBANDS =     -3585.73820051
  atomic energy  EATOM  =     12644.75315347
  Solvation  Ediel_sol  =         0.00000000
  ---------------------------------------------------
  free energy    TOTEN  =      -662.00292740 eV

  energy without entropy =     -662.00292740  energy(sigma->0) =     -662.00292740


--------------------------------------------------------------------------------------------------------




--------------------------------------- Iteration      1(  16)  ---------------------------------------


    POTLOK:  cpu time    0.1574: real time    0.1603
    SETDIJ:  cpu time    0.0103: real time    0.0104
     EDDAV:  cpu time   12.8093: real time   12.8958
 BZINTS: Fermi energy: -2.095732;303.000000 electrons
         Band energy:***********;  BLOECHL correction: -0.002203
       DOS:  cpu time    0.0112: real time    0.0112
    CHARGE:  cpu time    0.1683: real time    0.1719
    MIXING:  cpu time    0.0042: real time    0.0051
    --------------------------------------------
      LOOP:  cpu time   13.1607: real time   13.2548

 eigenvalue-minimisations  :  4808
 total energy-change (2. order) : 0.1766301E-01  (-0.2026304E-02)
 number of electron     303.0000014 magnetization      -0.9527913
 augmentation part       13.5400840 magnetization      -1.1020486

 Broyden mixing:
  rms(total) = 0.21818E+00    rms(broyden)= 0.21817E+00
  rms(prec ) = 0.26478E+00
  weight for this iteration     100.00

 eigenvalues of (default mixing * dielectric matrix)
  average eigenvalue GAMMA=   1.3458
  3.6479  2.3275  2.3275  1.3614  1.3614  0.8979  0.8979  0.3315  0.3315  0.6597
  0.6597

 Free energy of the ion-electron system (eV)
  ---------------------------------------------------
  alpha Z        PSCENC =       167.23241197
  Ewald energy   TEWEN  =     28888.69786066
  -Hartree energ DENC   =    -39738.32338717
  -exchange      EXHF   =         0.00000000
  -V(xc)+E(xc)   XCENC  =      1063.74758385
  PAW double counting   =     31783.47514702   -31884.42581309
  entropy T*S    EENTRO =         0.00000000
  eigenvalues    EBANDS =     -3587.14222110
  atomic energy  EATOM  =     12644.75315347
  Solvation  Ediel_sol  =         0.00000000
  ---------------------------------------------------
  free energy    TOTEN  =      -661.98526439 eV

  energy without entropy =     -661.98526439  energy(sigma->0) =     -661.98526439


[...]
   0.132E+01 -.571E+01 0.442E+01   -.407E+00 0.604E+01 -.437E+01   -.889E+00 -.468E+00 -.535E-01   -.237E-01 0.244E-01 0.495E-02
   0.277E+02 0.115E+02 0.138E+02   -.265E+02 -.118E+02 -.143E+02   -.125E+01 0.462E+00 0.569E+00   -.406E-01 -.429E-01 -.109E-01
   0.273E+02 -.128E+02 0.139E+02   -.262E+02 0.132E+02 -.145E+02   -.120E+01 -.463E+00 0.573E+00   -.466E-01 0.183E-01 -.151E-01
   -.275E+02 0.113E+02 0.135E+02   0.264E+02 -.117E+02 -.140E+02   0.127E+01 0.454E+00 0.527E+00   0.407E-01 -.449E-01 -.109E-01
   -.272E+02 -.125E+02 0.137E+02   0.261E+02 0.129E+02 -.142E+02   0.122E+01 -.454E+00 0.532E+00   0.478E-01 0.173E-01 -.154E-01
   0.272E+01 0.221E+01 0.649E+01   -.426E+01 -.173E+01 -.642E+01   0.154E+01 -.365E+00 -.649E-01   0.563E-02 0.101E-02 0.477E-02
   -.912E+00 -.560E+01 0.671E+01   -.557E-02 0.593E+01 -.666E+01   0.893E+00 -.469E+00 -.422E-01   0.256E-01 0.246E-01 0.492E-02
   -.639E-02 -.144E+02 0.816E+01   -.116E+01 0.156E+02 -.821E+01   0.110E+01 -.981E+00 0.421E-01   0.608E-01 -.679E-01 0.214E-02
   0.249E+00 -.641E+01 0.701E+01   -.322E+00 0.709E+01 -.699E+01   0.839E-01 -.725E+00 -.190E-01   0.281E-01 -.185E-01 0.176E-02
   0.436E+00 -.145E+02 0.652E+01   0.733E+00 0.156E+02 -.656E+01   -.110E+01 -.981E+00 0.267E-01   -.587E-01 -.669E-01 0.169E-02
   0.467E-01 -.655E+01 0.576E+01   0.226E-01 0.723E+01 -.575E+01   -.829E-01 -.725E+00 -.228E-01   -.256E-01 -.184E-01 0.157E-02
   0.111E+02 -.104E+02 0.550E+01   -.102E+02 0.104E+02 -.557E+01   -.749E+00 -.128E+00 0.865E-01   -.598E-01 0.240E-01 -.934E-03
   0.490E+01 -.131E+02 0.730E+01   -.459E+01 0.133E+02 -.728E+01   -.316E+00 -.175E+00 -.130E-01   -.222E-01 -.250E-01 0.317E-02
   -.510E+01 -.394E+02 0.303E+02   0.116E+02 0.358E+02 -.295E+02   -.644E+01 0.367E+01 -.845E+00   -.119E-01 0.113E-01 -.198E-01
   0.112E+01 -.221E+02 0.131E+02   -.769E+00 0.210E+02 -.133E+02   -.388E+00 0.102E+01 0.171E+00   0.230E-02 0.276E-01 0.120E-02
   0.454E+01 -.389E+02 0.282E+02   -.110E+02 0.353E+02 -.273E+02   0.643E+01 0.369E+01 -.896E+00   0.858E-02 0.123E-01 -.202E-01
   -.150E+01 -.218E+02 0.122E+02   0.116E+01 0.207E+02 -.124E+02   0.383E+00 0.103E+01 0.165E+00   -.446E-02 0.300E-01 0.917E-03
   -.109E+02 -.101E+02 0.700E+01   0.100E+02 0.102E+02 -.707E+01   0.759E+00 -.127E+00 0.919E-01   0.614E-01 0.241E-01 -.135E-02
   -.483E+01 -.128E+02 0.821E+01   0.452E+01 0.130E+02 -.819E+01   0.318E+00 -.175E+00 -.183E-01   0.217E-01 -.245E-01 0.297E-02
   -.299E+01 -.564E+01 0.827E+01   0.273E+01 0.590E+01 -.830E+01   0.191E+00 -.201E+00 0.297E-01   -.125E-01 -.466E-01 0.276E-02
   -.145E+01 -.449E+01 0.797E+01   0.142E+01 0.461E+01 -.798E+01   0.114E-01 -.170E+00 0.508E-02   -.427E-02 0.138E-01 0.116E-02
   0.107E+00 -.697E+01 0.645E+01   -.110E+00 0.730E+01 -.648E+01   0.103E-02 -.355E+00 0.236E-01   0.123E-02 0.107E-01 0.137E-02
   0.284E-01 -.197E+01 0.625E+01   -.302E-01 0.223E+01 -.624E+01   0.989E-03 -.244E+00 -.157E-01   0.896E-04 -.258E-01 0.167E-02
   0.318E+01 -.589E+01 0.689E+01   -.292E+01 0.615E+01 -.692E+01   -.189E+00 -.201E+00 0.228E-01   0.137E-01 -.480E-01 0.268E-02
   0.151E+01 -.474E+01 0.711E+01   -.148E+01 0.486E+01 -.712E+01   -.113E-01 -.170E+00 0.469E-02   0.567E-02 0.122E-01 0.101E-02
   -.122E+01 -.102E+02 0.999E+01   0.185E+01 0.100E+02 -.101E+02   -.578E+00 0.262E+00 0.942E-01   -.430E-01 -.232E-01 0.242E-02
   0.213E+01 -.619E+01 0.882E+01   -.210E+01 0.600E+01 -.885E+01   -.390E-01 0.139E+00 0.378E-01   -.215E-01 0.137E-01 0.872E-03
   -.230E+00 -.124E+02 0.708E+01   0.237E+00 0.118E+02 -.676E+01   -.494E-02 0.730E+00 -.331E+00   -.134E-02 0.392E-01 0.356E-02
   -.693E-01 -.762E+01 0.789E+01   0.708E-01 0.709E+01 -.792E+01   -.172E-03 0.475E+00 0.408E-01   -.183E-02 -.146E-01 0.222E-02
   0.118E+01 -.990E+01 0.984E+01   -.182E+01 0.974E+01 -.995E+01   0.580E+00 0.264E+00 0.896E-01   0.422E-01 -.232E-01 0.218E-02
   -.216E+01 -.588E+01 0.857E+01   0.213E+01 0.568E+01 -.860E+01   0.376E-01 0.140E+00 0.347E-01   0.215E-01 0.144E-01 0.704E-03
   -.195E+01 -.283E+01 -.614E+03   0.210E+01 0.291E+01 0.595E+03   -.140E+00 0.663E-01 0.193E+02   -.756E-02 -.129E+00 0.491E-03
   -.637E+02 -.144E+03 0.107E+03   0.710E+02 0.161E+03 -.126E+03   -.774E+01 -.175E+02 0.204E+02   0.322E-03 -.515E-03 0.948E-03
   0.556E+02 0.126E+03 -.140E+03   -.713E+02 -.162E+03 0.181E+03   0.162E+02 0.365E+02 -.426E+02   -.530E-03 -.165E-02 0.138E-02
 -----------------------------------------------------------------------------------------------
   -.833E+01 -.186E+02 0.297E+01   0.256E-12 0.313E-12 0.625E-12   0.833E+01 0.187E+02 -.305E+01   -.171E-02 -.561E-01 0.590E-01
 
 
 POSITION                                       TOTAL-FORCE (eV/Angst)
 -----------------------------------------------------------------------------------
     -7.42842     12.75389      7.25362        -0.001905     -0.002213      0.008061
      0.00065      1.42346      7.25473         0.012622     -0.003605      0.007770
      2.48188      0.02388      7.25233         0.009976      0.036390     -0.003949
      2.48036      1.44609      7.26303         0.029236     -0.037749     -0.002374
      4.95208      0.02378      7.25494        -0.009242      0.038550     -0.006475
      4.95364      1.44596      7.26464        -0.029356     -0.039048     -0.004699
      0.00181     12.75377      7.25485         0.001634     -0.001105      0.007650
      7.43326      1.42333      7.25363        -0.014148     -0.001945      0.007830
      2.47968     12.73025      7.26328         0.031135      0.051579     -0.001843
      9.91086      1.39534      7.25229         0.007441     -0.050779     -0.004574
      4.95434     12.73038      7.26481        -0.029511      0.051205     -0.004224
     12.38364      1.39545      7.25486        -0.007364     -0.051627     -0.007056
     13.61552      2.11690      7.25591         0.007508      0.052215     -0.003930
     -1.25099      3.53901      7.26584         0.112519     -0.022710     -0.000835
      1.23825      2.14650      7.26522        -0.031213      0.043592      0.006161
      1.23625      3.57131      7.29160         0.036302     -0.082182     -0.018735
      3.71704      2.16921      7.27909        -0.000440      0.056955      0.014400
      3.71711      3.59266      7.32536        -0.001367     -0.113159     -0.000796
      6.19572      2.14639      7.26551         0.032104      0.046108      0.003703
      6.19771      3.57133      7.29083        -0.036409     -0.080042     -0.020550
      8.67896      2.11678      7.25195        -0.006562      0.052942     -0.001339
      8.68486      3.53888      7.25958        -0.113586     -0.022271      0.003976
     11.14721      2.10587      7.25276         0.000147      0.033232     -0.002870
     11.14718      3.52486      7.25464        -0.000224     -0.023077     -0.002313
     12.36913      4.24790      7.26315        -0.047738      0.099433     -0.006071
     -2.50002      5.66946      7.27099         0.013840     -0.076919     -0.005062
     -0.01803      4.24845      7.28973        -0.044719      0.005507      0.009339
     -0.04788      5.66293      7.31726         0.074032      0.039037      0.022761
      2.47603      4.31290      7.34027        -0.040070      0.053475     -0.021092
      2.43285      5.72820      7.42857         0.015994     -0.040860     -0.054324
      4.95813      4.31334      7.34214         0.040635      0.059096     -0.024846
      5.00149      5.72883      7.43244        -0.021350     -0.040129     -0.057177
      7.45192      4.24835      7.28450         0.045171      0.006130      0.010830
      7.48167      5.66290      7.31020        -0.073923      0.039273      0.025054
      9.92522      4.24784      7.25797         0.049369      0.100182     -0.001375
      9.93379      5.66946      7.26479        -0.012804     -0.077114     -0.000154
     11.14713      6.37439      7.26382         0.000530      0.047405     -0.002412
     -3.71340      7.78574      7.26188        -0.001183     -0.039934     -0.004662
     -1.27839      6.37937      7.29445        -0.025535      0.111543      0.004881
     -1.26384      7.79969      7.29422        -0.008195     -0.116434      0.004758
      1.17710      6.37090      7.37073        -0.171056      0.058246     -0.014220
      1.18301      7.80151      7.37051        -0.179112     -0.055297     -0.020735
      6.25718      6.37091      7.36928         0.171341      0.061722     -0.018009
      6.25126      7.80147      7.36907         0.178519     -0.057990     -0.024053
      8.71214      6.37941      7.28472         0.026301      0.111907      0.011563
      8.69760      7.79965      7.28430         0.006448     -0.117171      0.011066
     -4.93533      8.49997      7.26219        -0.003150      0.067590     -0.001339
     -4.93902      9.92871      7.25728         0.037775     -0.063437     -0.003684
     -2.49143      8.49998      7.26892         0.007695      0.068259     -0.006867
     -2.48769      9.92868      7.26269        -0.038020     -0.064774     -0.008121
     -0.04002      8.50990      7.31779         0.080429     -0.051811      0.020557
     -0.01676      9.92798      7.29010        -0.031571      0.002459      0.008463
      2.43643      8.44486      7.42622         0.023030      0.043014     -0.036229
      2.47632      9.86134      7.33998        -0.020104     -0.065440     -0.023690
      4.99789      8.44419      7.43005        -0.026980      0.040910     -0.041156
      4.95783      9.86089      7.34182         0.019826     -0.069001     -0.027599
      7.47382      8.50991      7.31063        -0.079293     -0.051365      0.022388
      7.45065      9.92807      7.28483         0.030442      0.000815      0.009243
     -6.17638     10.63989      7.25976        -0.082761      0.014009      0.002901
     -6.18255     12.06065      7.25213        -0.026087     -0.041507     -0.001122
     -3.71335     10.64507      7.25459        -0.000317     -0.015749     -0.004477
     -3.71333     12.06944      7.25299        -0.000705     -0.009190     -0.002433
     -1.25027     10.63980      7.26605         0.083893      0.013736     -0.000959
     -1.24405     12.06055      7.25616         0.026098     -0.041052     -0.003807
      1.23624     10.60421      7.29174         0.016415      0.080097     -0.017698
      1.23790     12.02982      7.26543        -0.025643     -0.045153      0.006646
      3.71712     10.58290      7.32576         0.000053      0.111009     -0.004795
      3.71704     12.00660      7.27964        -0.000525     -0.069393      0.015791
      6.19775     10.60416      7.29090        -0.016212      0.077483     -0.019300
      6.19607     12.02992      7.26559         0.024564     -0.047269      0.004673
      3.71386      7.08387      8.11037         0.005973      0.015445      0.300178
      3.71386      7.08387     14.09037        -0.489111     -1.107861      1.271078
      3.39284      6.35803     14.93571         0.488498      1.105817     -1.277695
 -----------------------------------------------------------------------------------
    total drift:                                0.000475      0.004865     -0.015329


--------------------------------------------------------------------------------------------------------



  FREE ENERGIE OF THE ION-ELECTRON SYSTEM (eV)
  ---------------------------------------------------
  free  energy   TOTEN  =      -668.37194082 eV

  energy  without entropy=     -668.37194082  energy(sigma->0) =     -668.37194082
 


--------------------------------------------------------------------------------------------------------


    POTLOK:  cpu time    0.1596: real time    0.1600


--------------------------------------------------------------------------------------------------------


 stress matrix after NEB project (eV)
     -3.07712     -0.33987      0.40750
     -0.33987     -5.85260      0.90725
      0.40750      0.90725     -4.47542
  FORCES: max atom, RMS     1.758968    0.304078
  FORCE total and by dimension    2.598046    1.277695
  Stress total and by dimension    8.121597    5.852604
     LOOP+:  cpu time  304.4335: real time  307.9996
    4ORBIT:  cpu time    0.0000: real time    0.0000
 


 total charge     
 
# of ion       s       p       d       tot
------------------------------------------
    1        0.863   1.779   0.000   2.642
    2        0.863   1.778   0.000   2.641
    3        0.865   1.783   0.000   2.648
    4        0.863   1.783   0.000   2.647
    5        0.865   1.783   0.000   2.648
    6        0.863   1.783   0.000   2.647
    7        0.863   1.779   0.000   2.642
    8        0.863   1.778   0.000   2.641
    9        0.863   1.784   0.000   2.647
   10        0.865   1.784   0.000   2.648
   11        0.863   1.784   0.000   2.647
   12        0.865   1.784   0.000   2.649
   13        0.864   1.785   0.000   2.650
   14        0.864   1.787   0.000   2.651
   15        0.864   1.778   0.000   2.642
   16        0.863   1.770   0.000   2.632
   17        0.863   1.772   0.000   2.635
   18        0.863   1.772   0.000   2.635
   19        0.863   1.778   0.000   2.641
   20        0.863   1.770   0.000   2.632
   21        0.864   1.785   0.000   2.650
   22        0.864   1.787   0.000   2.651
   23        0.864   1.792   0.000   2.656
   24        0.867   1.791   0.000   2.658
   25        0.862   1.795   0.000   2.658
   26        0.856   1.762   0.000   2.617
   27        0.867   1.792   0.000   2.659
   28        0.868   1.799   0.000   2.667
   29        0.862   1.757   0.000   2.619
   30        0.874   1.686   0.000   2.560
   31        0.862   1.757   0.000   2.619
   32        0.874   1.685   0.000   2.559
   33        0.867   1.792   0.000   2.659
   34        0.868   1.799   0.000   2.668
   35        0.862   1.795   0.000   2.658
   36        0.856   1.762   0.000   2.617
   37        1.211   2.706   0.000   3.917
   38        0.854   1.759   0.000   2.613
   39        0.865   1.803   0.000   2.668
   40        0.869   1.800   0.000   2.668
   41        0.876   1.784   0.000   2.660
   42        0.877   1.785   0.000   2.662
   43        0.876   1.784   0.000   2.660
   44        0.877   1.785   0.000   2.662
   45        0.865   1.803   0.000   2.668
   46        0.869   1.800   0.000   2.668
   47        0.865   1.801   0.000   2.667
   48        0.863   1.788   0.000   2.651
   49        0.865   1.801   0.000   2.667
   50        0.863   1.788   0.000   2.651
   51        0.870   1.806   0.000   2.675
   52        0.867   1.788   0.000   2.655
   53        0.874   1.687   0.000   2.561
   54        0.862   1.755   0.000   2.617
   55        0.874   1.686   0.000   2.560
   56        0.862   1.754   0.000   2.616
   57        0.870   1.806   0.000   2.676
   58        0.867   1.788   0.000   2.655
   59        0.865   1.787   0.000   2.652
   60        0.864   1.786   0.000   2.650
   61        0.866   1.791   0.000   2.657
   62        0.864   1.787   0.000   2.651
   63        0.865   1.787   0.000   2.652
   64        0.864   1.786   0.000   2.650
   65        0.863   1.770   0.000   2.633
   66        0.863   1.779   0.000   2.642
   67        0.863   1.773   0.000   2.636
   68        0.863   1.769   0.000   2.632
   69        0.863   1.770   0.000   2.632
   70        0.863   1.779   0.000   2.642
   71        0.392   6.292   4.288  10.972
   72        1.036   1.403   0.000   2.439
   73        1.637   3.515   0.000   5.152
--------------------------------------------------
tot         63.979 136.563   4.288 204.829
 


 magnetization (x)
 
# of ion       s       p       d       tot
------------------------------------------
    1        0.000   0.001   0.000   0.001
    2        0.000   0.004   0.000   0.004
    3       -0.000  -0.001   0.000  -0.001
    4        0.001   0.010   0.000   0.010
    5       -0.000  -0.001   0.000  -0.001
    6        0.001   0.010   0.000   0.010
    7        0.000   0.001   0.000   0.001
    8        0.000   0.004   0.000   0.004
    9        0.000   0.006   0.000   0.006
   10        0.000   0.001   0.000   0.001
   11        0.000   0.006   0.000   0.006
   12        0.000   0.001   0.000   0.001
   13       -0.000  -0.001   0.000  -0.001
   14        0.000   0.007   0.000   0.007
   15        0.000  -0.000   0.000   0.000
   16        0.001   0.005   0.000   0.006
   17       -0.001  -0.005   0.000  -0.006
   18        0.002   0.031   0.000   0.033
   19        0.000   0.000   0.000   0.000
   20        0.001   0.005   0.000   0.006
   21       -0.000  -0.001   0.000  -0.001
   22        0.000   0.007   0.000   0.007
   23        0.000   0.008   0.000   0.008
   24       -0.000  -0.001   0.000  -0.001
   25        0.000   0.005   0.000   0.005
   26        0.000   0.002   0.000   0.002
   27       -0.000  -0.000   0.000  -0.000
   28        0.000   0.005   0.000   0.006
   29       -0.001  -0.008   0.000  -0.009
   30        0.015   0.085   0.000   0.100
   31       -0.001  -0.008   0.000  -0.009
   32        0.015   0.085   0.000   0.100
   33       -0.000  -0.000   0.000  -0.000
   34        0.000   0.005   0.000   0.006
   35        0.000   0.005   0.000   0.005
   36        0.000   0.002   0.000   0.002
   37        0.000   0.007   0.000   0.007
   38        0.000   0.011   0.000   0.011
   39        0.000   0.006   0.000   0.006
   40        0.001   0.012   0.000   0.012
   41       -0.001   0.005   0.000   0.004
   42       -0.001   0.009   0.000   0.009
   43       -0.001   0.005   0.000   0.004
   44       -0.001   0.009   0.000   0.008
   45        0.000   0.006   0.000   0.006
   46        0.001   0.011   0.000   0.012
   47       -0.000  -0.001   0.000  -0.001
   48        0.001   0.009   0.000   0.010
   49       -0.000  -0.001   0.000  -0.001
   50        0.001   0.009   0.000   0.010
   51        0.000   0.003   0.000   0.003
   52        0.000   0.003   0.000   0.003
   53        0.015   0.079   0.000   0.094
   54       -0.001  -0.005   0.000  -0.006
   55        0.015   0.079   0.000   0.093
   56       -0.001  -0.005   0.000  -0.006
   57        0.000   0.003   0.000   0.003
   58        0.000   0.003   0.000   0.003
   59        0.000   0.003   0.000   0.003
   60        0.000   0.001   0.000   0.002
   61       -0.000  -0.002   0.000  -0.002
   62        0.001   0.011   0.000   0.012
   63        0.000   0.003   0.000   0.003
   64        0.000   0.002   0.000   0.002
   65        0.001   0.003   0.000   0.003
   66        0.000   0.004   0.000   0.004
   67        0.001   0.024   0.000   0.026
   68       -0.001  -0.003   0.000  -0.004
   69        0.001   0.003   0.000   0.003
   70        0.000   0.004   0.000   0.004
   71       -0.033   0.013  -1.922  -1.942
   72        0.000   0.000   0.000   0.000
   73       -0.000  -0.000   0.000  -0.000
--------------------------------------------------
tot          0.033   0.594  -1.922  -1.296
 
 BZINTS: Fermi energy: -2.032253;303.000000 electrons
         Band energy:***********;  BLOECHL correction: -0.006579

 total amount of memory used by VASP MPI-rank0   115989. kBytes
=======================================================================

   base      :      30000. kBytes
   nonl-proj :      27264. kBytes
   fftplans  :       4700. kBytes
   grid      :      15193. kBytes
   one-center:        217. kBytes
   wavefun   :      38615. kBytes
 
  
  
 General timing and accounting informations for this job:
 ========================================================
  
                  Total CPU time used (sec):      321.292
                            User time (sec):      311.723
                          System time (sec):        9.569
                         Elapsed time (sec):      333.829
  
                   Maximum memory used (kb):      473644.
                   Average memory used (kb):           0.
  
                          Minor page faults:      1554269
                          Major page faults:            0
                 Voluntary context switches:         8782
