  71  71   0   0
  0.4011563E+02  0.1487831E-08  0.1477209E-08  0.1500000E-08  0.3000000E-15
  1.000000000000000E-004
  CAR 
 unknown system                          
      5.27888271    -48.61895780  301     -2.10211009      1.00000000
    -48.619  0.0000E+00  0.0000E+00  0.0000E+00  0.0000E+00
    -48.439  0.0000E+00  0.0000E+00  0.0000E+00  0.0000E+00
    -48.260  0.0000E+00  0.0000E+00  0.0000E+00  0.0000E+00
    -48.080  0.0000E+00  0.0000E+00  0.0000E+00  0.0000E+00
    -47.900  0.0000E+00  0.0000E+00  0.0000E+00  0.0000E+00
    -47.721  0.0000E+00  0.0000E+00  0.0000E+00  0.0000E+00
    -47.541  0.0000E+00  0.0000E+00  0.0000E+00  0.0000E+00
    -47.361  0.0000E+00  0.0000E+00  0.0000E+00  0.0000E+00
    -47.182  0.0000E+00  0.0000E+00  0.0000E+00  0.0000E+00
    -47.002  0.0000E+00  0.0000E+00  0.0000E+00  0.0000E+00
    -46.822  0.0000E+00  0.0000E+00  0.0000E+00  0.0000E+00
    -46.643  0.1466E-12  0.0000E+00  0.2634E-13  0.0000E+00
    -46.463  0.2237E-06  0.0000E+00  0.4020E-07  0.0000E+00
    -46.283  0.7367E-03  0.0000E+00  0.1324E-03  0.0000E+00
    -46.104  0.1104E-01  0.0000E+00  0.2116E-02  0.0000E+00
    -45.924  0.1811E-01  0.0000E+00  0.5370E-02  0.0000E+00
    -45.744  0.1174E-01  0.0000E+00  0.7479E-02  0.0000E+00
    -45.565  0.1182E-03  0.0000E+00  0.7500E-02  0.0000E+00
    -45.385  0.4494E-08  0.0000E+00  0.7500E-02  0.0000E+00
    -45.205  0.3677E-15  0.0000E+00  0.7500E-02  0.0000E+00
    -45.026  0.0000E+00  0.0000E+00  0.7500E-02  0.0000E+00
    -44.846  0.0000E+00  0.0000E+00  0.7500E-02  0.0000E+00
    -44.666  0.0000E+00  0.1622E-16  0.7500E-02  0.2914E-17
    -44.487  0.0000E+00  0.5145E-09  0.7500E-02  0.9243E-10
    -44.307  0.0000E+00  0.3133E-04  0.7500E-02  0.5630E-05
    -44.127  0.0000E+00  0.5288E-02  0.7500E-02  0.9557E-03
    -43.948  0.0000E+00  0.1022E-01  0.7500E-02  0.2792E-02
    -43.768  0.0000E+00  0.1544E-01  0.7500E-02  0.5566E-02
    -43.588  0.0000E+00  0.1047E-01  0.7500E-02  0.7448E-02
    -43.409  0.0000E+00  0.2918E-03  0.7500E-02  0.7500E-02
    -43.229  0.0000E+00  0.3303E-07  0.7500E-02  0.7500E-02
    -43.050  0.0000E+00  0.7709E-14  0.7500E-02  0.7500E-02
    -42.870  0.0000E+00  0.0000E+00  0.7500E-02  0.7500E-02
    -42.690  0.0000E+00  0.0000E+00  0.7500E-02  0.7500E-02
    -42.511  0.0000E+00  0.0000E+00  0.7500E-02  0.7500E-02
    -42.331  0.0000E+00  0.0000E+00  0.7500E-02  0.7500E-02
    -42.151  0.0000E+00  0.0000E+00  0.7500E-02  0.7500E-02
    -41.972  0.0000E+00  0.0000E+00  0.7500E-02  0.7500E-02
    -41.792  0.0000E+00  0.0000E+00  0.7500E-02  0.7500E-02
    -41.612  0.0000E+00  0.0000E+00  0.7500E-02  0.7500E-02
    -41.433  0.0000E+00  0.0000E+00  0.7500E-02  0.7500E-02
    -41.253  0.0000E+00  0.0000E+00  0.7500E-02  0.7500E-02
    -41.073  0.0000E+00  0.0000E+00  0.7500E-02  0.7500E-02
    -40.894  0.0000E+00  0.0000E+00  0.7500E-02  0.7500E-02
    -40.714  0.0000E+00  0.0000E+00  0.7500E-02  0.7500E-02
    -40.534  0.0000E+00  0.0000E+00  0.7500E-02  0.7500E-02
    -40.355  0.0000E+00  0.0000E+00  0.7500E-02  0.7500E-02
    -40.175  0.0000E+00  0.0000E+00  0.7500E-02  0.7500E-02
    -39.995  0.0000E+00  0.0000E+00  0.7500E-02  0.7500E-02
    -39.816  0.0000E+00  0.0000E+00  0.7500E-02  0.7500E-02
    -39.636  0.0000E+00  0.0000E+00  0.7500E-02  0.7500E-02
    -39.456  0.0000E+00  0.0000E+00  0.7500E-02  0.7500E-02
    -39.277  0.0000E+00  0.0000E+00  0.7500E-02  0.7500E-02
    -39.097  0.0000E+00  0.0000E+00  0.7500E-02  0.7500E-02
    -38.917  0.0000E+00  0.0000E+00  0.7500E-02  0.7500E-02
    -38.738  0.0000E+00  0.0000E+00  0.7500E-02  0.7500E-02
    -38.558  0.0000E+00  0.0000E+00  0.7500E-02  0.7500E-02
    -38.378  0.0000E+00  0.0000E+00  0.7500E-02  0.7500E-02
    -38.199  0.0000E+00  0.0000E+00  0.7500E-02  0.7500E-02
    -38.019  0.0000E+00  0.0000E+00  0.7500E-02  0.7500E-02
    -37.839  0.0000E+00  0.0000E+00  0.7500E-02  0.7500E-02
    -37.660  0.0000E+00  0.0000E+00  0.7500E-02  0.7500E-02
    -37.480  0.0000E+00  0.0000E+00  0.7500E-02  0.7500E-02
    -37.300  0.0000E+00  0.0000E+00  0.7500E-02  0.7500E-02
    -37.121  0.0000E+00  0.0000E+00  0.7500E-02  0.7500E-02
    -36.941  0.0000E+00  0.0000E+00  0.7500E-02  0.7500E-02
    -36.761  0.0000E+00  0.0000E+00  0.7500E-02  0.7500E-02
    -36.582  0.0000E+00  0.0000E+00  0.7500E-02  0.7500E-02
    -36.402  0.0000E+00  0.0000E+00  0.7500E-02  0.7500E-02
    -36.222  0.0000E+00  0.0000E+00  0.7500E-02  0.7500E-02
    -36.043  0.0000E+00  0.0000E+00  0.7500E-02  0.7500E-02
    -35.863  0.0000E+00  0.0000E+00  0.7500E-02  0.7500E-02
    -35.683  0.0000E+00  0.0000E+00  0.7500E-02  0.7500E-02
    -35.504  0.0000E+00  0.0000E+00  0.7500E-02  0.7500E-02
    -35.324  0.0000E+00  0.0000E+00  0.7500E-02  0.7500E-02
    -35.144  0.0000E+00  0.0000E+00  0.7500E-02  0.7500E-02
    -34.965  0.0000E+00  0.0000E+00  0.7500E-02  0.7500E-02
    -34.785  0.0000E+00  0.0000E+00  0.7500E-02  0.7500E-02
    -34.606  0.0000E+00  0.0000E+00  0.7500E-02  0.7500E-02
    -34.426  0.0000E+00  0.0000E+00  0.7500E-02  0.7500E-02
    -34.246  0.0000E+00  0.0000E+00  0.7500E-02  0.7500E-02
    -34.067  0.0000E+00  0.0000E+00  0.7500E-02  0.7500E-02
    -33.887  0.0000E+00  0.0000E+00  0.7500E-02  0.7500E-02
    -33.707  0.0000E+00  0.0000E+00  0.7500E-02  0.7500E-02
    -33.528  0.0000E+00  0.0000E+00  0.7500E-02  0.7500E-02
    -33.348  0.0000E+00  0.0000E+00  0.7500E-02  0.7500E-02
    -33.168  0.0000E+00  0.0000E+00  0.7500E-02  0.7500E-02
    -32.989  0.0000E+00  0.0000E+00  0.7500E-02  0.7500E-02
    -32.809  0.0000E+00  0.0000E+00  0.7500E-02  0.7500E-02
    -32.629  0.0000E+00  0.0000E+00  0.7500E-02  0.7500E-02
    -32.450  0.0000E+00  0.0000E+00  0.7500E-02  0.7500E-02
    -32.270  0.0000E+00  0.0000E+00  0.7500E-02  0.7500E-02
    -32.090  0.0000E+00  0.0000E+00  0.7500E-02  0.7500E-02
    -31.911  0.0000E+00  0.0000E+00  0.7500E-02  0.7500E-02
    -31.731  0.0000E+00  0.0000E+00  0.7500E-02  0.7500E-02
    -31.551  0.0000E+00  0.0000E+00  0.7500E-02  0.7500E-02
    -31.372  0.0000E+00  0.0000E+00  0.7500E-02  0.7500E-02
    -31.192  0.0000E+00  0.0000E+00  0.7500E-02  0.7500E-02
    -31.012  0.0000E+00  0.0000E+00  0.7500E-02  0.7500E-02
    -30.833  0.0000E+00  0.0000E+00  0.7500E-02  0.7500E-02
    -30.653  0.0000E+00  0.0000E+00  0.7500E-02  0.7500E-02
    -30.473  0.0000E+00  0.0000E+00  0.7500E-02  0.7500E-02
    -30.294  0.0000E+00  0.0000E+00  0.7500E-02  0.7500E-02
    -30.114  0.0000E+00  0.0000E+00  0.7500E-02  0.7500E-02
    -29.934  0.0000E+00  0.0000E+00  0.7500E-02  0.7500E-02
    -29.755  0.0000E+00  0.0000E+00  0.7500E-02  0.7500E-02
    -29.575  0.0000E+00  0.0000E+00  0.7500E-02  0.7500E-02
    -29.395  0.0000E+00  0.0000E+00  0.7500E-02  0.7500E-02
    -29.216  0.0000E+00  0.0000E+00  0.7500E-02  0.7500E-02
    -29.036  0.0000E+00  0.0000E+00  0.7500E-02  0.7500E-02
    -28.856  0.0000E+00  0.0000E+00  0.7500E-02  0.7500E-02
    -28.677  0.0000E+00  0.0000E+00  0.7500E-02  0.7500E-02
    -28.497  0.0000E+00  0.0000E+00  0.7500E-02  0.7500E-02
    -28.317  0.0000E+00  0.0000E+00  0.7500E-02  0.7500E-02
    -28.138  0.0000E+00  0.0000E+00  0.7500E-02  0.7500E-02
    -27.958  0.0000E+00  0.0000E+00  0.7500E-02  0.7500E-02
    -27.778  0.0000E+00  0.0000E+00  0.7500E-02  0.7500E-02
    -27.599  0.0000E+00  0.0000E+00  0.7500E-02  0.7500E-02
    -27.419  0.0000E+00  0.0000E+00  0.7500E-02  0.7500E-02
    -27.239  0.0000E+00  0.0000E+00  0.7500E-02  0.7500E-02
    -27.060  0.0000E+00  0.0000E+00  0.7500E-02  0.7500E-02
    -26.880  0.0000E+00  0.0000E+00  0.7500E-02  0.7500E-02
    -26.701  0.0000E+00  0.0000E+00  0.7500E-02  0.7500E-02
    -26.521  0.0000E+00  0.0000E+00  0.7500E-02  0.7500E-02
    -26.341  0.0000E+00  0.0000E+00  0.7500E-02  0.7500E-02
    -26.162  0.0000E+00  0.0000E+00  0.7500E-02  0.7500E-02
    -25.982  0.0000E+00  0.0000E+00  0.7500E-02  0.7500E-02
    -25.802  0.0000E+00  0.0000E+00  0.7500E-02  0.7500E-02
    -25.623  0.0000E+00  0.0000E+00  0.7500E-02  0.7500E-02
    -25.443  0.0000E+00  0.0000E+00  0.7500E-02  0.7500E-02
    -25.263  0.0000E+00  0.0000E+00  0.7500E-02  0.7500E-02
    -25.084  0.0000E+00  0.0000E+00  0.7500E-02  0.7500E-02
    -24.904  0.0000E+00  0.0000E+00  0.7500E-02  0.7500E-02
    -24.724  0.1545E-17  0.3090E-17  0.7500E-02  0.7500E-02
    -24.545  0.9666E-10  0.1748E-09  0.7500E-02  0.7500E-02
    -24.365  0.1200E-04  0.1692E-04  0.7502E-02  0.7503E-02
    -24.185  0.3836E-02  0.4321E-02  0.8191E-02  0.8279E-02
    -24.006  0.9709E-02  0.9296E-02  0.9936E-02  0.9950E-02
    -23.826  0.3580E-03  0.2809E-03  0.1000E-01  0.1000E-01
    -23.646  0.4994E-07  0.3074E-07  0.1000E-01  0.1000E-01
    -23.467  0.1446E-13  0.6910E-14  0.1000E-01  0.1000E-01
    -23.287  0.0000E+00  0.0000E+00  0.1000E-01  0.1000E-01
    -23.107  0.0000E+00  0.0000E+00  0.1000E-01  0.1000E-01
    -22.928  0.0000E+00  0.0000E+00  0.1000E-01  0.1000E-01
    -22.748  0.0000E+00  0.0000E+00  0.1000E-01  0.1000E-01
    -22.568  0.0000E+00  0.0000E+00  0.1000E-01  0.1000E-01
    -22.389  0.0000E+00  0.0000E+00  0.1000E-01  0.1000E-01
    -22.209  0.0000E+00  0.0000E+00  0.1000E-01  0.1000E-01
    -22.029  0.3143E-14  0.4895E-14  0.1000E-01  0.1000E-01
    -21.850  0.1209E-07  0.1619E-07  0.1000E-01  0.1000E-01
    -21.670  0.1155E-03  0.1348E-03  0.1002E-01  0.1002E-01
    -21.490  0.6756E-02  0.7098E-02  0.1123E-01  0.1130E-01
    -21.311  0.1436E-01  0.1425E-01  0.1381E-01  0.1386E-01
    -21.131  0.9537E-02  0.9638E-02  0.1553E-01  0.1559E-01
    -20.951  0.1336E-01  0.1341E-01  0.1793E-01  0.1800E-01
    -20.772  0.1319E-01  0.1330E-01  0.2030E-01  0.2039E-01
    -20.592  0.1235E-01  0.1247E-01  0.2252E-01  0.2263E-01
    -20.412  0.1508E-01  0.1494E-01  0.2523E-01  0.2531E-01
    -20.233  0.1319E-01  0.1335E-01  0.2760E-01  0.2771E-01
    -20.053  0.1318E-01  0.1320E-01  0.2996E-01  0.3008E-01
    -19.873  0.1000E-01  0.9812E-02  0.3176E-01  0.3185E-01
    -19.694  0.1545E-01  0.1599E-01  0.3454E-01  0.3472E-01
    -19.514  0.1584E-01  0.1551E-01  0.3738E-01  0.3750E-01
    -19.334  0.1625E-01  0.1658E-01  0.4030E-01  0.4048E-01
    -19.155  0.1394E-01  0.1343E-01  0.4280E-01  0.4290E-01
    -18.975  0.1137E-01  0.1164E-01  0.4485E-01  0.4499E-01
    -18.795  0.1096E-01  0.1088E-01  0.4682E-01  0.4694E-01
    -18.616  0.1192E-01  0.1194E-01  0.4896E-01  0.4909E-01
    -18.436  0.1853E-01  0.1870E-01  0.5229E-01  0.5245E-01
    -18.257  0.2081E-01  0.2130E-01  0.5603E-01  0.5627E-01
    -18.077  0.1560E-01  0.1490E-01  0.5883E-01  0.5895E-01
    -17.897  0.9971E-02  0.9795E-02  0.6062E-01  0.6071E-01
    -17.718  0.5330E-02  0.5179E-02  0.6158E-01  0.6164E-01
    -17.538  0.1543E-01  0.1611E-01  0.6435E-01  0.6454E-01
    -17.358  0.1788E-01  0.1780E-01  0.6756E-01  0.6773E-01
    -17.179  0.1977E-01  0.2000E-01  0.7112E-01  0.7133E-01
    -16.999  0.2125E-01  0.2087E-01  0.7493E-01  0.7508E-01
    -16.819  0.1343E-01  0.1333E-01  0.7735E-01  0.7747E-01
    -16.640  0.1272E-01  0.1281E-01  0.7963E-01  0.7977E-01
    -16.460  0.1310E-01  0.1327E-01  0.8199E-01  0.8216E-01
    -16.280  0.1261E-01  0.1226E-01  0.8425E-01  0.8436E-01
    -16.101  0.9680E-02  0.1017E-01  0.8599E-01  0.8619E-01
    -15.921  0.1990E-01  0.2010E-01  0.8957E-01  0.8980E-01
    -15.741  0.1376E-01  0.1351E-01  0.9204E-01  0.9223E-01
    -15.562  0.8395E-02  0.8099E-02  0.9355E-01  0.9368E-01
    -15.382  0.9697E-02  0.9563E-02  0.9529E-01  0.9540E-01
    -15.202  0.1234E-01  0.1264E-01  0.9750E-01  0.9767E-01
    -15.023  0.1160E-01  0.1120E-01  0.9959E-01  0.9968E-01
    -14.843  0.1526E-01  0.1549E-01  0.1023E+00  0.1025E+00
    -14.663  0.1703E-01  0.1736E-01  0.1054E+00  0.1056E+00
    -14.484  0.1701E-01  0.1689E-01  0.1084E+00  0.1086E+00
    -14.304  0.1421E-01  0.1405E-01  0.1110E+00  0.1111E+00
    -14.124  0.1705E-01  0.1707E-01  0.1141E+00  0.1142E+00
    -13.945  0.1755E-01  0.1786E-01  0.1172E+00  0.1174E+00
    -13.765  0.1784E-01  0.1737E-01  0.1204E+00  0.1205E+00
    -13.585  0.9013E-02  0.9012E-02  0.1220E+00  0.1222E+00
    -13.406  0.1901E-01  0.1975E-01  0.1255E+00  0.1257E+00
    -13.226  0.1120E-01  0.1059E-01  0.1275E+00  0.1276E+00
    -13.046  0.1242E-01  0.1226E-01  0.1297E+00  0.1298E+00
    -12.867  0.1316E-01  0.1321E-01  0.1321E+00  0.1322E+00
    -12.687  0.1968E-01  0.2019E-01  0.1356E+00  0.1358E+00
    -12.507  0.1356E-01  0.1301E-01  0.1380E+00  0.1381E+00
    -12.328  0.9202E-02  0.9087E-02  0.1397E+00  0.1398E+00
    -12.148  0.1148E-01  0.1154E-01  0.1418E+00  0.1419E+00
    -11.968  0.1196E-01  0.1225E-01  0.1439E+00  0.1441E+00
    -11.789  0.2510E-01  0.2524E-01  0.1484E+00  0.1486E+00
    -11.609  0.2832E-01  0.2872E-01  0.1535E+00  0.1538E+00
    -11.429  0.1750E-01  0.1637E-01  0.1566E+00  0.1567E+00
    -11.250  0.5364E-02  0.5619E-02  0.1576E+00  0.1577E+00
    -11.070  0.1961E-01  0.1984E-01  0.1611E+00  0.1613E+00
    -10.890  0.1378E-01  0.1362E-01  0.1636E+00  0.1637E+00
    -10.711  0.1689E-01  0.1717E-01  0.1666E+00  0.1668E+00
    -10.531  0.1764E-01  0.1750E-01  0.1698E+00  0.1699E+00
    -10.351  0.2260E-01  0.2334E-01  0.1739E+00  0.1741E+00
    -10.172  0.2692E-01  0.2605E-01  0.1787E+00  0.1788E+00
     -9.992  0.2401E-01  0.2445E-01  0.1830E+00  0.1832E+00
     -9.813  0.2368E-01  0.2332E-01  0.1873E+00  0.1874E+00
     -9.633  0.1938E-01  0.1953E-01  0.1908E+00  0.1909E+00
     -9.453  0.3158E-01  0.3201E-01  0.1964E+00  0.1967E+00
     -9.274  0.3110E-01  0.3073E-01  0.2020E+00  0.2022E+00
     -9.094  0.2892E-01  0.2908E-01  0.2072E+00  0.2074E+00
     -8.914  0.3212E-01  0.3206E-01  0.2130E+00  0.2132E+00
     -8.735  0.4020E-01  0.4059E-01  0.2202E+00  0.2205E+00
     -8.555  0.4559E-01  0.4637E-01  0.2284E+00  0.2288E+00
     -8.375  0.4844E-01  0.4790E-01  0.2371E+00  0.2374E+00
     -8.196  0.3626E-01  0.3565E-01  0.2436E+00  0.2438E+00
     -8.016  0.3386E-01  0.3433E-01  0.2497E+00  0.2500E+00
     -7.836  0.3079E-01  0.3041E-01  0.2552E+00  0.2554E+00
     -7.657  0.1722E-01  0.1664E-01  0.2583E+00  0.2584E+00
     -7.477  0.3287E-01  0.3424E-01  0.2642E+00  0.2646E+00
     -7.297  0.3681E-01  0.3638E-01  0.2708E+00  0.2711E+00
     -7.118  0.4185E-01  0.4105E-01  0.2784E+00  0.2785E+00
     -6.938  0.3551E-01  0.3549E-01  0.2847E+00  0.2849E+00
     -6.758  0.1554E-01  0.1567E-01  0.2875E+00  0.2877E+00
     -6.579  0.1507E-01  0.1529E-01  0.2902E+00  0.2904E+00
     -6.399  0.2015E-01  0.1750E-01  0.2939E+00  0.2936E+00
     -6.219  0.3735E-01  0.3894E-01  0.3006E+00  0.3006E+00
     -6.040  0.3094E-01  0.3161E-01  0.3061E+00  0.3062E+00
     -5.860  0.3183E-01  0.3200E-01  0.3118E+00  0.3120E+00
     -5.680  0.2370E-01  0.2068E-01  0.3161E+00  0.3157E+00
     -5.501  0.1699E-01  0.1909E-01  0.3192E+00  0.3191E+00
     -5.321  0.1842E-01  0.1618E-01  0.3225E+00  0.3220E+00
     -5.141  0.1963E-01  0.1807E-01  0.3260E+00  0.3253E+00
     -4.962  0.2749E-01  0.2144E-01  0.3309E+00  0.3291E+00
     -4.782  0.2874E-01  0.3690E-01  0.3361E+00  0.3358E+00
     -4.602  0.3269E-01  0.3142E-01  0.3420E+00  0.3414E+00
     -4.423  0.1415E-01  0.1670E-01  0.3445E+00  0.3444E+00
     -4.243  0.9267E-02  0.7037E-02  0.3462E+00  0.3457E+00
     -4.063  0.2044E-01  0.8703E-02  0.3498E+00  0.3472E+00
     -3.884  0.1859E-01  0.1880E-01  0.3532E+00  0.3506E+00
     -3.704  0.1111E-01  0.2127E-01  0.3552E+00  0.3544E+00
     -3.524  0.1017E-01  0.1275E-01  0.3570E+00  0.3567E+00
     -3.345  0.1584E-01  0.1120E-01  0.3599E+00  0.3587E+00
     -3.165  0.1701E-01  0.8550E-02  0.3629E+00  0.3603E+00
     -2.985  0.8548E-02  0.7348E-02  0.3644E+00  0.3616E+00
     -2.806  0.9677E-02  0.1539E-02  0.3662E+00  0.3619E+00
     -2.626  0.2547E-02  0.1045E-04  0.3666E+00  0.3619E+00
     -2.446  0.1277E-02  0.4100E-05  0.3669E+00  0.3619E+00
     -2.267  0.1503E-02  0.1812E-02  0.3671E+00  0.3622E+00
     -2.087  0.6319E-02  0.1290E-01  0.3683E+00  0.3645E+00
     -1.907  0.3509E-02  0.6096E-02  0.3689E+00  0.3656E+00
     -1.728  0.1106E-01  0.9484E-04  0.3709E+00  0.3656E+00
     -1.548  0.1583E-01  0.2019E-02  0.3737E+00  0.3660E+00
     -1.369  0.1037E-01  0.4005E-02  0.3756E+00  0.3667E+00
     -1.189  0.6577E-02  0.7681E-02  0.3768E+00  0.3681E+00
     -1.009  0.7818E-02  0.9055E-02  0.3782E+00  0.3697E+00
     -0.830  0.1241E-01  0.3006E-01  0.3804E+00  0.3751E+00
     -0.650  0.2368E-01  0.2847E-01  0.3847E+00  0.3802E+00
     -0.470  0.1081E-01  0.2325E-01  0.3866E+00  0.3844E+00
     -0.291  0.1654E-01  0.2118E-01  0.3896E+00  0.3882E+00
     -0.111  0.1627E-01  0.1879E-01  0.3925E+00  0.3916E+00
      0.069  0.1124E-01  0.1128E-01  0.3945E+00  0.3936E+00
      0.248  0.1861E-01  0.1870E-01  0.3979E+00  0.3970E+00
      0.428  0.1962E-01  0.2521E-01  0.4014E+00  0.4015E+00
      0.608  0.1491E-01  0.1500E-01  0.4041E+00  0.4042E+00
      0.787  0.1486E-01  0.7661E-02  0.4067E+00  0.4056E+00
      0.967  0.1909E-01  0.1735E-01  0.4102E+00  0.4087E+00
      1.147  0.8406E-02  0.1515E-01  0.4117E+00  0.4114E+00
      1.326  0.1717E-01  0.1373E-01  0.4148E+00  0.4139E+00
      1.506  0.1735E-01  0.1856E-01  0.4179E+00  0.4172E+00
      1.686  0.2370E-01  0.2335E-01  0.4221E+00  0.4214E+00
      1.865  0.2381E-01  0.2363E-01  0.4264E+00  0.4257E+00
      2.045  0.3814E-01  0.3286E-01  0.4333E+00  0.4316E+00
      2.225  0.2888E-01  0.3034E-01  0.4385E+00  0.4370E+00
      2.404  0.2102E-01  0.1969E-01  0.4422E+00  0.4406E+00
      2.584  0.3913E-01  0.3996E-01  0.4493E+00  0.4477E+00
      2.764  0.4750E-01  0.5219E-01  0.4578E+00  0.4571E+00
      2.943  0.1186E-01  0.1567E-01  0.4599E+00  0.4599E+00
      3.123  0.3350E-03  0.4132E-03  0.4600E+00  0.4600E+00
      3.303  0.7622E-07  0.7696E-07  0.4600E+00  0.4600E+00
      3.482  0.4332E-13  0.3584E-13  0.4600E+00  0.4600E+00
      3.662  0.0000E+00  0.0000E+00  0.4600E+00  0.4600E+00
      3.842  0.0000E+00  0.0000E+00  0.4600E+00  0.4600E+00
      4.021  0.0000E+00  0.0000E+00  0.4600E+00  0.4600E+00
      4.201  0.0000E+00  0.0000E+00  0.4600E+00  0.4600E+00
      4.381  0.0000E+00  0.0000E+00  0.4600E+00  0.4600E+00
      4.560  0.0000E+00  0.0000E+00  0.4600E+00  0.4600E+00
      4.740  0.0000E+00  0.0000E+00  0.4600E+00  0.4600E+00
      4.920  0.0000E+00  0.0000E+00  0.4600E+00  0.4600E+00
      5.099  0.0000E+00  0.0000E+00  0.4600E+00  0.4600E+00
      5.279  0.0000E+00  0.0000E+00  0.4600E+00  0.4600E+00
