 running on   48 total cores
 distrk:  each k-point on   48 cores,    1 groups
 distr:  one band on   12 cores,    4 groups
 using from now: INCAR     
 vasp.5.4.4.18Apr17-6-g9f103f2a35 (build Jan 14 2022 15:04:31) complex          
  
 POSCAR found type information on POSCAR  C  N  C  Cr
 POSCAR found :  4 types and      71 ions
 scaLAPACK will be used
 LDA part: xc-table for Pade appr. of Perdew
 POSCAR found type information on POSCAR  C  N  C  Cr
 POSCAR found :  4 types and      71 ions
 POSCAR, INCAR and KPOINTS ok, starting setup
 FFT: planning ...
 WAVECAR not read
 entering main loop
       N       E                     dE             d eps       ncg     rms          rms(c)
DAV:   1     0.246169913247E+04    0.24617E+04   -0.10808E+05  3376   0.107E+03
DAV:   2    -0.229679617328E+03   -0.26914E+04   -0.25726E+04  4216   0.279E+02
DAV:   3    -0.687218444693E+03   -0.45754E+03   -0.45475E+03  3560   0.122E+02
DAV:   4    -0.703997616999E+03   -0.16779E+02   -0.16646E+02  3568   0.285E+01
DAV:   5    -0.704544312038E+03   -0.54670E+00   -0.54467E+00  4064   0.435E+00    0.469E+01
RMM:   6    -0.732401028996E+03   -0.27857E+02   -0.52836E+02  4008   0.384E+01    0.844E+01
RMM:   7    -0.662464399645E+03    0.69937E+02   -0.56488E+01  3090   0.133E+01    0.322E+01
RMM:   8    -0.662551403717E+03   -0.87004E-01   -0.21424E+01  3106   0.690E+00    0.285E+01
RMM:   9    -0.647368933294E+03    0.15182E+02   -0.19990E+01  2966   0.837E+00    0.118E+01
RMM:  10    -0.647804790112E+03   -0.43586E+00   -0.31712E+00  2994   0.305E+00    0.145E+01
RMM:  11    -0.646703478181E+03    0.11013E+01   -0.39857E-01  3116   0.104E+00    0.781E+00
RMM:  12    -0.646590276325E+03    0.11320E+00   -0.15163E-01  2944   0.912E-01    0.674E+00
RMM:  13    -0.646704575361E+03   -0.11430E+00   -0.32034E-02  2972   0.362E-01    0.733E+00
RMM:  14    -0.646430913876E+03    0.27366E+00   -0.41660E-02  2969   0.480E-01    0.630E+00
RMM:  15    -0.646508918346E+03   -0.78004E-01   -0.19357E-02  2981   0.205E-01    0.678E+00
RMM:  16    -0.646503071385E+03    0.58470E-02   -0.44486E-02  2956   0.685E-01    0.625E+00
RMM:  17    -0.646442915963E+03    0.60155E-01   -0.34727E-02  2990   0.295E-01    0.342E+00
RMM:  18    -0.646507816975E+03   -0.64901E-01   -0.21989E-02  2983   0.309E-01    0.341E+00
RMM:  19    -0.646526676209E+03   -0.18859E-01   -0.99986E-03  2982   0.285E-01    0.372E+00
RMM:  20    -0.646481019988E+03    0.45656E-01   -0.59723E-03  2954   0.213E-01    0.384E+00
RMM:  21    -0.646492234076E+03   -0.11214E-01   -0.19751E-03  2934   0.888E-02    0.395E+00
RMM:  22    -0.646579262430E+03   -0.87028E-01   -0.95200E-02  2945   0.461E-01    0.265E+00
RMM:  23    -0.646612527148E+03   -0.33265E-01   -0.39747E-02  3019   0.203E-01    0.212E+00
RMM:  24    -0.646635077504E+03   -0.22550E-01   -0.90934E-03  3176   0.111E-01    0.213E+00
RMM:  25    -0.646631471979E+03    0.36055E-02   -0.12874E-02  2982   0.174E-01    0.183E+00
RMM:  26    -0.646635721798E+03   -0.42498E-02   -0.15645E-02  2978   0.192E-01    0.161E+00
RMM:  27    -0.646621366216E+03    0.14356E-01   -0.10028E-02  2976   0.120E-01    0.174E+00
RMM:  28    -0.646568146550E+03    0.53220E-01   -0.23005E-02  2983   0.224E-01    0.219E+00
RMM:  29    -0.646566778867E+03    0.13677E-02   -0.56002E-03  3079   0.121E-01    0.227E+00
RMM:  30    -0.646556476505E+03    0.10302E-01   -0.41598E-03  2981   0.107E-01    0.230E+00
RMM:  31    -0.646546736988E+03    0.97395E-02   -0.11371E-02  2975   0.164E-01    0.185E+00
RMM:  32    -0.646557556897E+03   -0.10820E-01   -0.21474E-03  2983   0.851E-02    0.173E+00
RMM:  33    -0.646561633296E+03   -0.40764E-02   -0.62271E-04  2867   0.600E-02    0.179E+00
RMM:  34    -0.646558328413E+03    0.33049E-02   -0.24945E-03  2930   0.646E-02    0.185E+00
RMM:  35    -0.646569928571E+03   -0.11600E-01   -0.63366E-03  2951   0.132E-01    0.146E+00
RMM:  36    -0.646572356979E+03   -0.24284E-02   -0.13673E-03  2913   0.747E-02    0.139E+00
RMM:  37    -0.646584641211E+03   -0.12284E-01   -0.16800E-03  2861   0.563E-02    0.140E+00
RMM:  38    -0.646625956505E+03   -0.41315E-01   -0.19852E-02  2946   0.206E-01    0.171E+00
RMM:  39    -0.646634666889E+03   -0.87104E-02   -0.14251E-02  2996   0.152E-01    0.154E+00
RMM:  40    -0.646626643777E+03    0.80231E-02   -0.13890E-02  3006   0.163E-01    0.125E+00
RMM:  41    -0.646623199201E+03    0.34446E-02   -0.42625E-03  3018   0.958E-02    0.103E+00
RMM:  42    -0.646621157182E+03    0.20420E-02   -0.26024E-03  3029   0.756E-02    0.106E+00
RMM:  43    -0.646622643230E+03   -0.14860E-02   -0.22435E-03  2916   0.768E-02    0.870E-01
RMM:  44    -0.646623092179E+03   -0.44895E-03   -0.19753E-03  2857   0.589E-02    0.948E-01
RMM:  45    -0.646624227365E+03   -0.11352E-02   -0.56661E-04  2819   0.548E-02    0.894E-01
RMM:  46    -0.646624007447E+03    0.21992E-03   -0.13265E-03  2917   0.573E-02    0.736E-01
RMM:  47    -0.646624462362E+03   -0.45491E-03   -0.45943E-04  2635   0.323E-02    0.542E-01
RMM:  48    -0.646624748167E+03   -0.28581E-03   -0.94332E-04  2848   0.443E-02    0.368E-01
RMM:  49    -0.646625027894E+03   -0.27973E-03   -0.28765E-04  2367   0.276E-02    0.380E-01
RMM:  50    -0.646624683184E+03    0.34471E-03   -0.83943E-05  2057   0.179E-02
   1 F= -.65302460E+03 E0= -.65300618E+03  d E =-.653025E+03  mag=    -0.0624
 curvature:   0.00 expect dE= 0.000E+00 dE for cont linesearch  0.000E+00
 trial: gam= 0.00000 g(F)=  0.147E-01 g(S)=  0.000E+00 ort = 0.000E+00 (trialstep = 0.100E+01)
 search vector abs. value=  0.147E-01
 bond charge predicted
       N       E                     dE             d eps       ncg     rms          rms(c)
DAV:   1    -0.646628207635E+03   -0.31797E-02   -0.11429E+00  3120   0.260E+00    0.470E-01
RMM:   2    -0.646636015195E+03   -0.78076E-02   -0.30139E-02  2997   0.411E-01    0.900E-01
RMM:   3    -0.646635606052E+03    0.40914E-03   -0.27864E-03  3450   0.117E-01    0.109E+00
RMM:   4    -0.646648523535E+03   -0.12917E-01   -0.38721E-03  3022   0.904E-02    0.222E+00
RMM:   5    -0.646643147717E+03    0.53758E-02   -0.29116E-03  3007   0.865E-02    0.193E+00
RMM:   6    -0.646647762867E+03   -0.46151E-02   -0.21829E-03  2993   0.568E-02    0.226E+00
RMM:   7    -0.646642079315E+03    0.56836E-02   -0.11167E-03  2924   0.681E-02    0.241E+00
RMM:   8    -0.646626033069E+03    0.16046E-01   -0.70844E-03  2994   0.131E-01    0.214E+00
RMM:   9    -0.646616129828E+03    0.99032E-02   -0.37181E-02  3003   0.278E-01    0.211E+00
RMM:  10    -0.646627024913E+03   -0.10895E-01   -0.84165E-03  2959   0.279E-01    0.127E+00
RMM:  11    -0.646624846967E+03    0.21779E-02   -0.22891E-03  2948   0.872E-02    0.812E-01
RMM:  12    -0.646624566848E+03    0.28012E-03   -0.18576E-03  3023   0.669E-02    0.463E-01
RMM:  13    -0.646626634471E+03   -0.20676E-02   -0.63445E-04  2944   0.555E-02    0.434E-01
RMM:  14    -0.646628006034E+03   -0.13716E-02   -0.27406E-04  2562   0.403E-02    0.423E-01
RMM:  15    -0.646628432553E+03   -0.42652E-03   -0.12423E-04  2187   0.138E-02    0.350E-01
RMM:  16    -0.646628607398E+03   -0.17485E-03   -0.25266E-05  1873   0.749E-03    0.358E-01
RMM:  17    -0.646628538004E+03    0.69394E-04   -0.86085E-06  1762   0.598E-03    0.363E-01
RMM:  18    -0.646628837750E+03   -0.29975E-03   -0.26590E-04  2545   0.256E-02    0.234E-01
RMM:  19    -0.646628851515E+03   -0.13764E-04   -0.11117E-04  2184   0.174E-02    0.202E-01
RMM:  20    -0.646628821563E+03    0.29952E-04   -0.55497E-05  1979   0.108E-02    0.168E-01
RMM:  21    -0.646628848743E+03   -0.27180E-04   -0.19504E-05  1855   0.644E-03    0.151E-01
RMM:  22    -0.646628878068E+03   -0.29325E-04   -0.56966E-06  1660   0.401E-03    0.140E-01
RMM:  23    -0.646628945835E+03   -0.67767E-04   -0.26913E-05  1892   0.816E-03    0.881E-02
RMM:  24    -0.646628934865E+03    0.10970E-04   -0.50254E-05  1967   0.107E-02    0.260E-02
RMM:  25    -0.646628945335E+03   -0.10470E-04   -0.94499E-06  1768   0.643E-03    0.189E-02
RMM:  26    -0.646628981524E+03   -0.36189E-04   -0.22621E-06  1698   0.411E-03    0.226E-02
RMM:  27    -0.646629035096E+03   -0.53572E-04   -0.35678E-06  1460   0.334E-03    0.845E-03
RMM:  28    -0.646629062231E+03   -0.27135E-04   -0.50506E-06  1538   0.332E-03    0.185E-02
RMM:  29    -0.646629064408E+03   -0.21775E-05   -0.13635E-06  1384   0.284E-03
   2 F= -.65302946E+03 E0= -.65300769E+03  d E =-.486270E-02  mag=    -0.0115
 trial-energy change:   -0.004863  1 .order   -0.004830   -0.014724    0.005064
 step:   0.7441(harm=  0.7441)  dis= 0.00623  next Energy=  -653.030078 (dE=-0.548E-02)
 bond charge predicted
       N       E                     dE             d eps       ncg     rms          rms(c)
DAV:   1    -0.646629785038E+03   -0.72281E-03   -0.74873E-02  3112   0.666E-01    0.100E-01
RMM:   2    -0.646631338732E+03   -0.15537E-02   -0.31867E-03  2961   0.126E-01    0.529E-01
RMM:   3    -0.646629839376E+03    0.14994E-02   -0.74500E-04  3020   0.469E-02    0.672E-02
RMM:   4    -0.646629828631E+03    0.10745E-04   -0.60215E-05  2059   0.165E-02    0.570E-02
RMM:   5    -0.646629812339E+03    0.16292E-04   -0.21523E-05  1871   0.880E-03    0.858E-02
RMM:   6    -0.646629799930E+03    0.12408E-04   -0.10514E-05  1796   0.959E-03    0.772E-02
RMM:   7    -0.646629712750E+03    0.87180E-04   -0.57172E-05  1969   0.127E-02    0.388E-02
RMM:   8    -0.646629787090E+03   -0.74340E-04   -0.18542E-05  1813   0.115E-02    0.603E-02
RMM:   9    -0.646629797953E+03   -0.10863E-04   -0.20562E-05  1833   0.103E-02    0.248E-02
RMM:  10    -0.646629785896E+03    0.12057E-04   -0.55409E-06  1698   0.429E-03    0.883E-03
RMM:  11    -0.646629812482E+03   -0.26586E-04   -0.13900E-06  1650   0.384E-03    0.804E-03
RMM:  12    -0.646629824722E+03   -0.12240E-04   -0.73162E-07   942   0.194E-03    0.242E-03
RMM:  13    -0.646629827755E+03   -0.30326E-05   -0.17075E-07   606   0.128E-03
   3 F= -.65303011E+03 E0= -.65300877E+03  d E =-.550871E-02  mag=    -0.0114
 curvature:  -0.37 expect dE=-0.286E-02 dE for cont linesearch -0.350E-06
 trial: gam= 0.51364 g(F)=  0.768E-02 g(S)=  0.000E+00 ort = 0.118E-03 (trialstep = 0.949E+00)
 search vector abs. value=  0.117E-01
 bond charge predicted
       N       E                     dE             d eps       ncg     rms          rms(c)
DAV:   1    -0.646632548191E+03   -0.27235E-02   -0.68639E-01  2992   0.209E+00    0.358E-01
RMM:   2    -0.646650754931E+03   -0.18207E-01   -0.33526E-02  2974   0.371E-01    0.166E+00
RMM:   3    -0.646633724291E+03    0.17031E-01   -0.94421E-03  3246   0.161E-01    0.422E-01
RMM:   4    -0.646633289503E+03    0.43479E-03   -0.63989E-04  3099   0.506E-02    0.414E-01
RMM:   5    -0.646633237134E+03    0.52368E-04   -0.73705E-05  2105   0.120E-02    0.411E-01
RMM:   6    -0.646632999217E+03    0.23792E-03   -0.29540E-05  1915   0.106E-02    0.347E-01
RMM:   7    -0.646632048485E+03    0.95073E-03   -0.51875E-04  2889   0.376E-02    0.150E-01
RMM:   8    -0.646632881324E+03   -0.83284E-03   -0.26338E-04  2895   0.384E-02    0.179E-01
RMM:   9    -0.646632254293E+03    0.62703E-03   -0.55496E-04  2892   0.459E-02    0.128E-01
RMM:  10    -0.646632435669E+03   -0.18138E-03   -0.59337E-05  1996   0.174E-02    0.139E-01
RMM:  11    -0.646632637053E+03   -0.20138E-03   -0.46711E-05  1991   0.172E-02    0.884E-02
RMM:  12    -0.646632874894E+03   -0.23784E-03   -0.85734E-05  2149   0.132E-02    0.363E-02
RMM:  13    -0.646632911582E+03   -0.36688E-04   -0.16472E-05  1806   0.131E-02    0.484E-02
RMM:  14    -0.646632861846E+03    0.49737E-04   -0.52375E-06  1729   0.594E-03    0.291E-02
RMM:  15    -0.646632855829E+03    0.60166E-05   -0.34063E-06  1405   0.325E-03
   4 F= -.65303339E+03 E0= -.65301081E+03  d E =-.328147E-02  mag=    -0.0125
 trial-energy change:   -0.003281  1 .order   -0.003360   -0.007345    0.000624
 step:   0.8702(harm=  0.8745)  dis= 0.00553  next Energy=  -653.033416 (dE=-0.331E-02)
 bond charge predicted
       N       E                     dE             d eps       ncg     rms          rms(c)
DAV:   1    -0.646632947167E+03   -0.85321E-04   -0.47097E-03  3152   0.174E-01    0.318E-02
RMM:   2    -0.646633141701E+03   -0.19453E-03   -0.26793E-04  2691   0.323E-02    0.181E-01
RMM:   3    -0.646632959481E+03    0.18222E-03   -0.92316E-05  1973   0.164E-02    0.231E-02
RMM:   4    -0.646632968975E+03   -0.94938E-05   -0.60533E-06  1753   0.609E-03
   5 F= -.65303348E+03 E0= -.65301095E+03  d E =-.337536E-02  mag=    -0.0120
 curvature:  -0.66 expect dE=-0.219E-02 dE for cont linesearch -0.934E-09
 trial: gam= 0.40524 g(F)=  0.333E-02 g(S)=  0.000E+00 ort = 0.407E-05 (trialstep = 0.933E+00)
 search vector abs. value=  0.526E-02
 bond charge predicted
       N       E                     dE             d eps       ncg     rms          rms(c)
DAV:   1    -0.646633671649E+03   -0.71217E-03   -0.30967E-01  3312   0.173E+00    0.145E-01
RMM:   2    -0.646634912292E+03   -0.12406E-02   -0.12439E-02  3038   0.226E-01    0.232E-01
RMM:   3    -0.646634797556E+03    0.11474E-03   -0.10880E-03  3406   0.609E-02    0.261E-01
RMM:   4    -0.646634651139E+03    0.14642E-03   -0.13870E-04  2385   0.229E-02    0.241E-01
RMM:   5    -0.646634363423E+03    0.28772E-03   -0.90227E-05  2132   0.251E-02    0.145E-01
RMM:   6    -0.646634346139E+03    0.17284E-04   -0.10722E-04  2210   0.174E-02    0.560E-02
RMM:   7    -0.646634525799E+03   -0.17966E-03   -0.55863E-05  2085   0.207E-02    0.649E-02
RMM:   8    -0.646634442464E+03    0.83335E-04   -0.39389E-05  1963   0.143E-02    0.173E-02
RMM:   9    -0.646634451335E+03   -0.88710E-05   -0.64705E-06  1762   0.616E-03
   6 F= -.65303501E+03 E0= -.65301208E+03  d E =-.152554E-02  mag=    -0.0136
 trial-energy change:   -0.001526  1 .order   -0.001616   -0.003111   -0.000120
 step:   0.9794(harm=  0.9706)  dis= 0.00287  next Energy=  -653.035012 (dE=-0.153E-02)
 bond charge predicted
       N       E                     dE             d eps       ncg     rms          rms(c)
DAV:   1    -0.646634488624E+03   -0.46160E-04   -0.77146E-04  3480   0.859E-02    0.119E-02
RMM:   2    -0.646634501753E+03   -0.13128E-04   -0.29569E-05  1804   0.119E-02    0.217E-02
RMM:   3    -0.646634502836E+03   -0.10827E-05   -0.29320E-06  1643   0.478E-03
   7 F= -.65303506E+03 E0= -.65301215E+03  d E =-.157860E-02  mag=    -0.0141
 curvature:  -0.72 expect dE=-0.158E-02 dE for cont linesearch -0.257E-06
 trial: gam= 0.67343 g(F)=  0.219E-02 g(S)=  0.000E+00 ort =-0.432E-04 (trialstep = 0.942E+00)
 search vector abs. value=  0.452E-02
 bond charge predicted
       N       E                     dE             d eps       ncg     rms          rms(c)
DAV:   1    -0.646634740712E+03   -0.23896E-03   -0.27732E-01  3296   0.162E+00    0.161E-01
RMM:   2    -0.646635950747E+03   -0.12100E-02   -0.10576E-02  3042   0.216E-01    0.328E-01
RMM:   3    -0.646635741724E+03    0.20902E-03   -0.74248E-04  3522   0.540E-02    0.355E-01
RMM:   4    -0.646635358165E+03    0.38356E-03   -0.20367E-04  2570   0.335E-02    0.330E-01
RMM:   5    -0.646634850791E+03    0.50737E-03   -0.26844E-04  2558   0.280E-02    0.934E-02
RMM:   6    -0.646635333789E+03   -0.48300E-03   -0.17796E-04  2854   0.327E-02    0.866E-02
RMM:   7    -0.646635200001E+03    0.13379E-03   -0.15548E-04  2703   0.280E-02    0.441E-02
RMM:   8    -0.646635265075E+03   -0.65073E-04   -0.17349E-05  1841   0.105E-02    0.234E-02
RMM:   9    -0.646635338363E+03   -0.73288E-04   -0.71020E-06  1757   0.596E-03    0.569E-03
RMM:  10    -0.646635369841E+03   -0.31478E-04   -0.27529E-06  1599   0.334E-03    0.120E-02
RMM:  11    -0.646635373321E+03   -0.34798E-05   -0.75060E-07  1240   0.242E-03
   8 F= -.65303592E+03 E0= -.65301251E+03  d E =-.860586E-03  mag=    -0.0160
 trial-energy change:   -0.000861  1 .order   -0.000854   -0.002037    0.000328
 step:   0.8116(harm=  0.8116)  dis= 0.00184  next Energy=  -653.035939 (dE=-0.877E-03)
 bond charge predicted
       N       E                     dE             d eps       ncg     rms          rms(c)
DAV:   1    -0.646635382741E+03   -0.12900E-04   -0.53276E-03  3328   0.225E-01    0.202E-02
RMM:   2    -0.646635428350E+03   -0.45609E-04   -0.20930E-04  2885   0.305E-02    0.563E-02
RMM:   3    -0.646635415457E+03    0.12893E-04   -0.20137E-05  1797   0.904E-03    0.262E-02
RMM:   4    -0.646635422898E+03   -0.74413E-05   -0.30666E-06  1691   0.453E-03
   9 F= -.65303597E+03 E0= -.65301267E+03  d E =-.912441E-03  mag=    -0.0161
 curvature:  -0.85 expect dE=-0.782E-03 dE for cont linesearch -0.228E-06
 trial: gam= 0.40326 g(F)=  0.922E-03 g(S)=  0.000E+00 ort =-0.348E-04 (trialstep = 0.916E+00)
 search vector abs. value=  0.163E-02
 reached required accuracy - stopping structural energy minimisation
