  71  71   0   0
  0.3998751E+02  0.1484806E-08  0.1475171E-08  0.1500000E-08  0.3000000E-15
  1.000000000000000E-004
  CAR 
 unknown system                          
      5.89737340    -48.61900378  301     -2.13550342      1.00000000
    -48.619  0.0000E+00  0.0000E+00  0.0000E+00  0.0000E+00
    -48.437  0.0000E+00  0.0000E+00  0.0000E+00  0.0000E+00
    -48.256  0.0000E+00  0.0000E+00  0.0000E+00  0.0000E+00
    -48.074  0.0000E+00  0.0000E+00  0.0000E+00  0.0000E+00
    -47.892  0.0000E+00  0.0000E+00  0.0000E+00  0.0000E+00
    -47.710  0.0000E+00  0.0000E+00  0.0000E+00  0.0000E+00
    -47.529  0.0000E+00  0.0000E+00  0.0000E+00  0.0000E+00
    -47.347  0.0000E+00  0.0000E+00  0.0000E+00  0.0000E+00
    -47.165  0.0000E+00  0.0000E+00  0.0000E+00  0.0000E+00
    -46.984  0.0000E+00  0.0000E+00  0.0000E+00  0.0000E+00
    -46.802  0.0000E+00  0.0000E+00  0.0000E+00  0.0000E+00
    -46.620  0.8536E-13  0.0000E+00  0.1551E-13  0.0000E+00
    -46.438  0.1792E-06  0.0000E+00  0.3257E-07  0.0000E+00
    -46.257  0.7012E-03  0.0000E+00  0.1275E-03  0.0000E+00
    -46.075  0.1136E-01  0.0000E+00  0.2192E-02  0.0000E+00
    -45.893  0.1907E-01  0.0000E+00  0.5656E-02  0.0000E+00
    -45.711  0.1004E-01  0.0000E+00  0.7481E-02  0.0000E+00
    -45.530  0.1072E-03  0.0000E+00  0.7500E-02  0.0000E+00
    -45.348  0.3944E-08  0.0000E+00  0.7500E-02  0.0000E+00
    -45.166  0.2566E-15  0.0000E+00  0.7500E-02  0.0000E+00
    -44.985  0.0000E+00  0.0000E+00  0.7500E-02  0.0000E+00
    -44.803  0.0000E+00  0.0000E+00  0.7500E-02  0.0000E+00
    -44.621  0.0000E+00  0.2756E-11  0.7500E-02  0.5009E-12
    -44.439  0.0000E+00  0.1580E-05  0.7500E-02  0.2872E-06
    -44.258  0.0000E+00  0.1824E-02  0.7500E-02  0.3317E-03
    -44.076  0.0000E+00  0.1204E-01  0.7500E-02  0.2520E-02
    -43.894  0.0000E+00  0.1226E-01  0.7500E-02  0.4747E-02
    -43.713  0.0000E+00  0.1098E-01  0.7500E-02  0.6743E-02
    -43.531  0.0000E+00  0.4150E-02  0.7500E-02  0.7497E-02
    -43.349  0.0000E+00  0.1391E-04  0.7500E-02  0.7500E-02
    -43.167  0.0000E+00  0.1061E-09  0.7500E-02  0.7500E-02
    -42.986  0.0000E+00  0.1527E-17  0.7500E-02  0.7500E-02
    -42.804  0.0000E+00  0.0000E+00  0.7500E-02  0.7500E-02
    -42.622  0.0000E+00  0.0000E+00  0.7500E-02  0.7500E-02
    -42.440  0.0000E+00  0.0000E+00  0.7500E-02  0.7500E-02
    -42.259  0.0000E+00  0.0000E+00  0.7500E-02  0.7500E-02
    -42.077  0.0000E+00  0.0000E+00  0.7500E-02  0.7500E-02
    -41.895  0.0000E+00  0.0000E+00  0.7500E-02  0.7500E-02
    -41.714  0.0000E+00  0.0000E+00  0.7500E-02  0.7500E-02
    -41.532  0.0000E+00  0.0000E+00  0.7500E-02  0.7500E-02
    -41.350  0.0000E+00  0.0000E+00  0.7500E-02  0.7500E-02
    -41.168  0.0000E+00  0.0000E+00  0.7500E-02  0.7500E-02
    -40.987  0.0000E+00  0.0000E+00  0.7500E-02  0.7500E-02
    -40.805  0.0000E+00  0.0000E+00  0.7500E-02  0.7500E-02
    -40.623  0.0000E+00  0.0000E+00  0.7500E-02  0.7500E-02
    -40.442  0.0000E+00  0.0000E+00  0.7500E-02  0.7500E-02
    -40.260  0.0000E+00  0.0000E+00  0.7500E-02  0.7500E-02
    -40.078  0.0000E+00  0.0000E+00  0.7500E-02  0.7500E-02
    -39.896  0.0000E+00  0.0000E+00  0.7500E-02  0.7500E-02
    -39.715  0.0000E+00  0.0000E+00  0.7500E-02  0.7500E-02
    -39.533  0.0000E+00  0.0000E+00  0.7500E-02  0.7500E-02
    -39.351  0.0000E+00  0.0000E+00  0.7500E-02  0.7500E-02
    -39.169  0.0000E+00  0.0000E+00  0.7500E-02  0.7500E-02
    -38.988  0.0000E+00  0.0000E+00  0.7500E-02  0.7500E-02
    -38.806  0.0000E+00  0.0000E+00  0.7500E-02  0.7500E-02
    -38.624  0.0000E+00  0.0000E+00  0.7500E-02  0.7500E-02
    -38.443  0.0000E+00  0.0000E+00  0.7500E-02  0.7500E-02
    -38.261  0.0000E+00  0.0000E+00  0.7500E-02  0.7500E-02
    -38.079  0.0000E+00  0.0000E+00  0.7500E-02  0.7500E-02
    -37.897  0.0000E+00  0.0000E+00  0.7500E-02  0.7500E-02
    -37.716  0.0000E+00  0.0000E+00  0.7500E-02  0.7500E-02
    -37.534  0.0000E+00  0.0000E+00  0.7500E-02  0.7500E-02
    -37.352  0.0000E+00  0.0000E+00  0.7500E-02  0.7500E-02
    -37.171  0.0000E+00  0.0000E+00  0.7500E-02  0.7500E-02
    -36.989  0.0000E+00  0.0000E+00  0.7500E-02  0.7500E-02
    -36.807  0.0000E+00  0.0000E+00  0.7500E-02  0.7500E-02
    -36.625  0.0000E+00  0.0000E+00  0.7500E-02  0.7500E-02
    -36.444  0.0000E+00  0.0000E+00  0.7500E-02  0.7500E-02
    -36.262  0.0000E+00  0.0000E+00  0.7500E-02  0.7500E-02
    -36.080  0.0000E+00  0.0000E+00  0.7500E-02  0.7500E-02
    -35.899  0.0000E+00  0.0000E+00  0.7500E-02  0.7500E-02
    -35.717  0.0000E+00  0.0000E+00  0.7500E-02  0.7500E-02
    -35.535  0.0000E+00  0.0000E+00  0.7500E-02  0.7500E-02
    -35.353  0.0000E+00  0.0000E+00  0.7500E-02  0.7500E-02
    -35.172  0.0000E+00  0.0000E+00  0.7500E-02  0.7500E-02
    -34.990  0.0000E+00  0.0000E+00  0.7500E-02  0.7500E-02
    -34.808  0.0000E+00  0.0000E+00  0.7500E-02  0.7500E-02
    -34.626  0.0000E+00  0.0000E+00  0.7500E-02  0.7500E-02
    -34.445  0.0000E+00  0.0000E+00  0.7500E-02  0.7500E-02
    -34.263  0.0000E+00  0.0000E+00  0.7500E-02  0.7500E-02
    -34.081  0.0000E+00  0.0000E+00  0.7500E-02  0.7500E-02
    -33.900  0.0000E+00  0.0000E+00  0.7500E-02  0.7500E-02
    -33.718  0.0000E+00  0.0000E+00  0.7500E-02  0.7500E-02
    -33.536  0.0000E+00  0.0000E+00  0.7500E-02  0.7500E-02
    -33.354  0.0000E+00  0.0000E+00  0.7500E-02  0.7500E-02
    -33.173  0.0000E+00  0.0000E+00  0.7500E-02  0.7500E-02
    -32.991  0.0000E+00  0.0000E+00  0.7500E-02  0.7500E-02
    -32.809  0.0000E+00  0.0000E+00  0.7500E-02  0.7500E-02
    -32.628  0.0000E+00  0.0000E+00  0.7500E-02  0.7500E-02
    -32.446  0.0000E+00  0.0000E+00  0.7500E-02  0.7500E-02
    -32.264  0.0000E+00  0.0000E+00  0.7500E-02  0.7500E-02
    -32.082  0.0000E+00  0.0000E+00  0.7500E-02  0.7500E-02
    -31.901  0.0000E+00  0.0000E+00  0.7500E-02  0.7500E-02
    -31.719  0.0000E+00  0.0000E+00  0.7500E-02  0.7500E-02
    -31.537  0.0000E+00  0.0000E+00  0.7500E-02  0.7500E-02
    -31.355  0.0000E+00  0.0000E+00  0.7500E-02  0.7500E-02
    -31.174  0.0000E+00  0.0000E+00  0.7500E-02  0.7500E-02
    -30.992  0.0000E+00  0.0000E+00  0.7500E-02  0.7500E-02
    -30.810  0.0000E+00  0.0000E+00  0.7500E-02  0.7500E-02
    -30.629  0.0000E+00  0.0000E+00  0.7500E-02  0.7500E-02
    -30.447  0.0000E+00  0.0000E+00  0.7500E-02  0.7500E-02
    -30.265  0.0000E+00  0.0000E+00  0.7500E-02  0.7500E-02
    -30.083  0.0000E+00  0.0000E+00  0.7500E-02  0.7500E-02
    -29.902  0.0000E+00  0.0000E+00  0.7500E-02  0.7500E-02
    -29.720  0.0000E+00  0.0000E+00  0.7500E-02  0.7500E-02
    -29.538  0.0000E+00  0.0000E+00  0.7500E-02  0.7500E-02
    -29.357  0.0000E+00  0.0000E+00  0.7500E-02  0.7500E-02
    -29.175  0.0000E+00  0.0000E+00  0.7500E-02  0.7500E-02
    -28.993  0.0000E+00  0.0000E+00  0.7500E-02  0.7500E-02
    -28.811  0.0000E+00  0.0000E+00  0.7500E-02  0.7500E-02
    -28.630  0.0000E+00  0.0000E+00  0.7500E-02  0.7500E-02
    -28.448  0.0000E+00  0.0000E+00  0.7500E-02  0.7500E-02
    -28.266  0.0000E+00  0.0000E+00  0.7500E-02  0.7500E-02
    -28.085  0.0000E+00  0.0000E+00  0.7500E-02  0.7500E-02
    -27.903  0.0000E+00  0.0000E+00  0.7500E-02  0.7500E-02
    -27.721  0.0000E+00  0.0000E+00  0.7500E-02  0.7500E-02
    -27.539  0.0000E+00  0.0000E+00  0.7500E-02  0.7500E-02
    -27.358  0.0000E+00  0.0000E+00  0.7500E-02  0.7500E-02
    -27.176  0.0000E+00  0.0000E+00  0.7500E-02  0.7500E-02
    -26.994  0.0000E+00  0.0000E+00  0.7500E-02  0.7500E-02
    -26.812  0.0000E+00  0.0000E+00  0.7500E-02  0.7500E-02
    -26.631  0.0000E+00  0.0000E+00  0.7500E-02  0.7500E-02
    -26.449  0.0000E+00  0.0000E+00  0.7500E-02  0.7500E-02
    -26.267  0.0000E+00  0.0000E+00  0.7500E-02  0.7500E-02
    -26.086  0.0000E+00  0.0000E+00  0.7500E-02  0.7500E-02
    -25.904  0.0000E+00  0.0000E+00  0.7500E-02  0.7500E-02
    -25.722  0.0000E+00  0.0000E+00  0.7500E-02  0.7500E-02
    -25.540  0.0000E+00  0.0000E+00  0.7500E-02  0.7500E-02
    -25.359  0.0000E+00  0.0000E+00  0.7500E-02  0.7500E-02
    -25.177  0.0000E+00  0.0000E+00  0.7500E-02  0.7500E-02
    -24.995  0.0000E+00  0.0000E+00  0.7500E-02  0.7500E-02
    -24.814  0.0000E+00  0.0000E+00  0.7500E-02  0.7500E-02
    -24.632  0.0000E+00  0.0000E+00  0.7500E-02  0.7500E-02
    -24.450  0.0000E+00  0.0000E+00  0.7500E-02  0.7500E-02
    -24.268  0.0000E+00  0.0000E+00  0.7500E-02  0.7500E-02
    -24.087  0.2686E-12  0.2205E-11  0.7500E-02  0.7500E-02
    -23.905  0.3713E-06  0.1378E-05  0.7500E-02  0.7500E-02
    -23.723  0.9775E-03  0.1723E-02  0.7678E-02  0.7813E-02
    -23.541  0.1092E-01  0.1097E-01  0.9662E-02  0.9806E-02
    -23.360  0.1858E-02  0.1067E-02  0.1000E-01  0.1000E-01
    -23.178  0.1655E-05  0.4522E-06  0.1000E-01  0.1000E-01
    -22.996  0.2972E-11  0.3674E-12  0.1000E-01  0.1000E-01
    -22.815  0.0000E+00  0.0000E+00  0.1000E-01  0.1000E-01
    -22.633  0.0000E+00  0.0000E+00  0.1000E-01  0.1000E-01
    -22.451  0.0000E+00  0.0000E+00  0.1000E-01  0.1000E-01
    -22.269  0.0000E+00  0.0000E+00  0.1000E-01  0.1000E-01
    -22.088  0.6988E-16  0.1369E-15  0.1000E-01  0.1000E-01
    -21.906  0.1114E-08  0.1754E-08  0.1000E-01  0.1000E-01
    -21.724  0.3563E-04  0.4579E-04  0.1001E-01  0.1001E-01
    -21.543  0.4490E-02  0.4888E-02  0.1082E-01  0.1090E-01
    -21.361  0.1373E-01  0.1373E-01  0.1332E-01  0.1339E-01
    -21.179  0.9138E-02  0.9090E-02  0.1498E-01  0.1504E-01
    -20.997  0.1624E-01  0.1678E-01  0.1793E-01  0.1809E-01
    -20.816  0.1204E-01  0.1140E-01  0.2012E-01  0.2016E-01
    -20.634  0.6659E-02  0.7199E-02  0.2133E-01  0.2147E-01
    -20.452  0.2018E-01  0.2022E-01  0.2499E-01  0.2515E-01
    -20.270  0.1489E-01  0.1485E-01  0.2770E-01  0.2785E-01
    -20.089  0.1076E-01  0.1063E-01  0.2965E-01  0.2978E-01
    -19.907  0.8916E-02  0.8680E-02  0.3128E-01  0.3136E-01
    -19.725  0.1245E-01  0.1324E-01  0.3354E-01  0.3376E-01
    -19.544  0.2078E-01  0.2025E-01  0.3732E-01  0.3744E-01
    -19.362  0.1423E-01  0.1455E-01  0.3990E-01  0.4009E-01
    -19.180  0.1309E-01  0.1304E-01  0.4228E-01  0.4246E-01
    -18.998  0.1226E-01  0.1243E-01  0.4451E-01  0.4472E-01
    -18.817  0.9704E-02  0.8995E-02  0.4627E-01  0.4635E-01
    -18.635  0.1137E-01  0.1184E-01  0.4834E-01  0.4850E-01
    -18.453  0.2017E-01  0.2003E-01  0.5200E-01  0.5214E-01
    -18.272  0.1768E-01  0.1905E-01  0.5522E-01  0.5560E-01
    -18.090  0.1799E-01  0.1689E-01  0.5849E-01  0.5867E-01
    -17.908  0.1098E-01  0.1046E-01  0.6048E-01  0.6058E-01
    -17.726  0.6642E-02  0.6839E-02  0.6169E-01  0.6182E-01
    -17.545  0.9843E-02  0.9998E-02  0.6348E-01  0.6364E-01
    -17.363  0.1918E-01  0.1969E-01  0.6696E-01  0.6721E-01
    -17.181  0.2227E-01  0.2202E-01  0.7101E-01  0.7121E-01
    -17.000  0.1802E-01  0.1821E-01  0.7429E-01  0.7452E-01
    -16.818  0.1986E-01  0.1958E-01  0.7789E-01  0.7808E-01
    -16.636  0.1287E-01  0.1273E-01  0.8023E-01  0.8040E-01
    -16.454  0.9158E-02  0.9172E-02  0.8190E-01  0.8206E-01
    -16.273  0.1014E-01  0.1007E-01  0.8374E-01  0.8389E-01
    -16.091  0.1398E-01  0.1407E-01  0.8628E-01  0.8645E-01
    -15.909  0.1941E-01  0.2010E-01  0.8981E-01  0.9010E-01
    -15.727  0.1709E-01  0.1705E-01  0.9291E-01  0.9320E-01
    -15.546  0.6899E-02  0.5873E-02  0.9417E-01  0.9427E-01
    -15.364  0.6113E-02  0.5932E-02  0.9528E-01  0.9534E-01
    -15.182  0.1011E-01  0.1068E-01  0.9712E-01  0.9728E-01
    -15.001  0.1010E-01  0.1002E-01  0.9895E-01  0.9911E-01
    -14.819  0.1846E-01  0.1875E-01  0.1023E+00  0.1025E+00
    -14.637  0.2010E-01  0.2078E-01  0.1060E+00  0.1063E+00
    -14.455  0.1975E-01  0.1861E-01  0.1095E+00  0.1097E+00
    -14.274  0.8550E-02  0.8464E-02  0.1111E+00  0.1112E+00
    -14.092  0.1563E-01  0.1616E-01  0.1139E+00  0.1141E+00
    -13.910  0.1951E-01  0.1963E-01  0.1175E+00  0.1177E+00
    -13.729  0.1780E-01  0.1740E-01  0.1207E+00  0.1209E+00
    -13.547  0.1035E-01  0.1055E-01  0.1226E+00  0.1228E+00
    -13.365  0.1942E-01  0.1966E-01  0.1261E+00  0.1264E+00
    -13.183  0.7715E-02  0.7302E-02  0.1275E+00  0.1277E+00
    -13.002  0.1275E-01  0.1321E-01  0.1299E+00  0.1301E+00
    -12.820  0.1784E-01  0.1716E-01  0.1331E+00  0.1332E+00
    -12.638  0.1651E-01  0.1700E-01  0.1361E+00  0.1363E+00
    -12.456  0.1178E-01  0.1167E-01  0.1382E+00  0.1384E+00
    -12.275  0.9914E-02  0.9456E-02  0.1400E+00  0.1401E+00
    -12.093  0.8772E-02  0.8753E-02  0.1416E+00  0.1417E+00
    -11.911  0.1633E-01  0.1693E-01  0.1446E+00  0.1448E+00
    -11.730  0.2993E-01  0.3041E-01  0.1500E+00  0.1503E+00
    -11.548  0.2827E-01  0.2821E-01  0.1552E+00  0.1555E+00
    -11.366  0.1212E-01  0.1072E-01  0.1574E+00  0.1574E+00
    -11.184  0.4136E-02  0.4662E-02  0.1581E+00  0.1583E+00
    -11.003  0.1827E-01  0.1817E-01  0.1614E+00  0.1616E+00
    -10.821  0.1087E-01  0.1132E-01  0.1634E+00  0.1636E+00
    -10.639  0.2313E-01  0.2302E-01  0.1676E+00  0.1678E+00
    -10.458  0.1858E-01  0.1837E-01  0.1710E+00  0.1711E+00
    -10.276  0.1877E-01  0.1884E-01  0.1744E+00  0.1746E+00
    -10.094  0.2441E-01  0.2582E-01  0.1789E+00  0.1793E+00
     -9.912  0.3305E-01  0.3250E-01  0.1849E+00  0.1852E+00
     -9.731  0.1971E-01  0.1899E-01  0.1884E+00  0.1886E+00
     -9.549  0.2836E-01  0.2909E-01  0.1936E+00  0.1939E+00
     -9.367  0.2378E-01  0.2347E-01  0.1979E+00  0.1982E+00
     -9.185  0.3472E-01  0.3502E-01  0.2042E+00  0.2045E+00
     -9.004  0.3782E-01  0.3812E-01  0.2111E+00  0.2115E+00
     -8.822  0.3518E-01  0.3439E-01  0.2175E+00  0.2177E+00
     -8.640  0.3392E-01  0.3520E-01  0.2237E+00  0.2241E+00
     -8.459  0.5469E-01  0.5526E-01  0.2336E+00  0.2341E+00
     -8.277  0.4415E-01  0.4272E-01  0.2416E+00  0.2419E+00
     -8.095  0.2965E-01  0.2991E-01  0.2470E+00  0.2473E+00
     -7.913  0.3273E-01  0.3301E-01  0.2530E+00  0.2533E+00
     -7.732  0.2688E-01  0.2537E-01  0.2578E+00  0.2579E+00
     -7.550  0.2206E-01  0.2346E-01  0.2618E+00  0.2622E+00
     -7.368  0.3556E-01  0.3599E-01  0.2683E+00  0.2687E+00
     -7.187  0.4115E-01  0.4071E-01  0.2758E+00  0.2761E+00
     -7.005  0.3475E-01  0.3409E-01  0.2821E+00  0.2823E+00
     -6.823  0.2414E-01  0.2424E-01  0.2865E+00  0.2867E+00
     -6.641  0.1621E-01  0.1631E-01  0.2894E+00  0.2897E+00
     -6.460  0.1633E-01  0.1438E-01  0.2924E+00  0.2923E+00
     -6.278  0.2726E-01  0.2753E-01  0.2974E+00  0.2973E+00
     -6.096  0.3706E-01  0.3844E-01  0.3041E+00  0.3043E+00
     -5.915  0.3346E-01  0.3496E-01  0.3102E+00  0.3107E+00
     -5.733  0.2522E-01  0.2138E-01  0.3148E+00  0.3145E+00
     -5.551  0.1810E-01  0.1931E-01  0.3180E+00  0.3181E+00
     -5.369  0.1975E-01  0.1907E-01  0.3216E+00  0.3215E+00
     -5.188  0.1946E-01  0.1486E-01  0.3252E+00  0.3242E+00
     -5.006  0.2134E-01  0.2219E-01  0.3290E+00  0.3283E+00
     -4.824  0.2890E-01  0.3333E-01  0.3343E+00  0.3343E+00
     -4.642  0.3530E-01  0.3336E-01  0.3407E+00  0.3404E+00
     -4.461  0.1996E-01  0.2152E-01  0.3443E+00  0.3443E+00
     -4.279  0.9531E-02  0.7662E-02  0.3461E+00  0.3457E+00
     -4.097  0.1604E-01  0.1055E-01  0.3490E+00  0.3476E+00
     -3.916  0.1942E-01  0.1138E-01  0.3525E+00  0.3497E+00
     -3.734  0.1212E-01  0.1790E-01  0.3547E+00  0.3529E+00
     -3.552  0.1060E-01  0.1896E-01  0.3566E+00  0.3564E+00
     -3.370  0.1691E-01  0.1417E-01  0.3597E+00  0.3589E+00
     -3.189  0.1979E-01  0.1236E-01  0.3633E+00  0.3612E+00
     -3.007  0.3317E-02  0.3663E-02  0.3639E+00  0.3618E+00
     -2.825  0.1097E-01  0.1494E-03  0.3659E+00  0.3619E+00
     -2.644  0.4793E-02  0.4041E-06  0.3668E+00  0.3619E+00
     -2.462  0.5496E-03  0.4577E-03  0.3669E+00  0.3620E+00
     -2.280  0.7794E-03  0.5954E-02  0.3670E+00  0.3630E+00
     -2.098  0.6001E-02  0.1016E-01  0.3681E+00  0.3649E+00
     -1.917  0.8059E-02  0.3927E-02  0.3696E+00  0.3656E+00
     -1.735  0.7942E-02  0.1856E-03  0.3710E+00  0.3656E+00
     -1.553  0.1208E-01  0.2218E-02  0.3732E+00  0.3660E+00
     -1.371  0.1180E-01  0.1225E-02  0.3754E+00  0.3663E+00
     -1.190  0.2464E-02  0.4237E-02  0.3758E+00  0.3670E+00
     -1.008  0.7674E-02  0.1144E-01  0.3772E+00  0.3691E+00
     -0.826  0.1438E-01  0.3443E-01  0.3798E+00  0.3754E+00
     -0.645  0.2046E-01  0.3044E-01  0.3835E+00  0.3809E+00
     -0.463  0.1561E-01  0.2083E-01  0.3864E+00  0.3847E+00
     -0.281  0.1682E-01  0.1764E-01  0.3894E+00  0.3879E+00
     -0.099  0.1747E-01  0.2171E-01  0.3926E+00  0.3918E+00
      0.082  0.1009E-01  0.8133E-02  0.3944E+00  0.3933E+00
      0.264  0.1929E-01  0.2017E-01  0.3979E+00  0.3970E+00
      0.446  0.2025E-01  0.2708E-01  0.4016E+00  0.4019E+00
      0.627  0.1509E-01  0.1421E-01  0.4044E+00  0.4045E+00
      0.809  0.1739E-01  0.9913E-02  0.4075E+00  0.4063E+00
      0.991  0.1460E-01  0.1611E-01  0.4102E+00  0.4092E+00
      1.173  0.9327E-02  0.1272E-01  0.4119E+00  0.4115E+00
      1.354  0.1966E-01  0.1876E-01  0.4154E+00  0.4149E+00
      1.536  0.1578E-01  0.1642E-01  0.4183E+00  0.4179E+00
      1.718  0.2437E-01  0.2293E-01  0.4227E+00  0.4221E+00
      1.900  0.2839E-01  0.2663E-01  0.4279E+00  0.4269E+00
      2.081  0.3566E-01  0.3344E-01  0.4344E+00  0.4330E+00
      2.263  0.2871E-01  0.2800E-01  0.4396E+00  0.4381E+00
      2.445  0.1752E-01  0.1715E-01  0.4428E+00  0.4412E+00
      2.626  0.3487E-01  0.4179E-01  0.4491E+00  0.4488E+00
      2.808  0.3225E-01  0.3156E-01  0.4550E+00  0.4545E+00
      2.990  0.1394E-01  0.1380E-01  0.4575E+00  0.4570E+00
      3.172  0.8042E-02  0.1118E-01  0.4590E+00  0.4591E+00
      3.353  0.4484E-02  0.2289E-02  0.4598E+00  0.4595E+00
      3.535  0.1215E-02  0.2666E-02  0.4600E+00  0.4600E+00
      3.717  0.5425E-05  0.1753E-03  0.4600E+00  0.4600E+00
      3.898  0.5759E-10  0.4483E-07  0.4600E+00  0.4600E+00
      4.080  0.7637E-18  0.2135E-13  0.4600E+00  0.4600E+00
      4.262  0.0000E+00  0.0000E+00  0.4600E+00  0.4600E+00
      4.444  0.0000E+00  0.0000E+00  0.4600E+00  0.4600E+00
      4.625  0.0000E+00  0.0000E+00  0.4600E+00  0.4600E+00
      4.807  0.0000E+00  0.0000E+00  0.4600E+00  0.4600E+00
      4.989  0.0000E+00  0.0000E+00  0.4600E+00  0.4600E+00
      5.170  0.0000E+00  0.0000E+00  0.4600E+00  0.4600E+00
      5.352  0.0000E+00  0.0000E+00  0.4600E+00  0.4600E+00
      5.534  0.0000E+00  0.0000E+00  0.4600E+00  0.4600E+00
      5.716  0.0000E+00  0.0000E+00  0.4600E+00  0.4600E+00
      5.897  0.0000E+00  0.0000E+00  0.4600E+00  0.4600E+00
