       N       E                     dE             d eps       ncg     rms          rms(c)
DAV:   1     0.244687043707E+04    0.24469E+04   -0.10834E+05  3384   0.107E+03
DAV:   2    -0.234206114939E+03   -0.26811E+04   -0.25627E+04  4224   0.279E+02
DAV:   3    -0.687657441918E+03   -0.45345E+03   -0.45075E+03  3560   0.121E+02
DAV:   4    -0.704227037415E+03   -0.16570E+02   -0.16433E+02  3520   0.283E+01
DAV:   5    -0.704771670725E+03   -0.54463E+00   -0.54289E+00  4040   0.433E+00    0.469E+01
RMM:   6    -0.730686326074E+03   -0.25915E+02   -0.52392E+02  4077   0.394E+01    0.828E+01
RMM:   7    -0.661905013684E+03    0.68781E+02   -0.56484E+01  3047   0.136E+01    0.306E+01
RMM:   8    -0.661803425510E+03    0.10159E+00   -0.21450E+01  3130   0.717E+00    0.279E+01
RMM:   9    -0.647396685269E+03    0.14407E+02   -0.20762E+01  2969   0.848E+00    0.925E+00
RMM:  10    -0.647718714266E+03   -0.32203E+00   -0.20066E+00  3039   0.266E+00    0.114E+01
RMM:  11    -0.647205585592E+03    0.51313E+00   -0.34283E-01  3036   0.925E-01    0.664E+00
RMM:  12    -0.647328017764E+03   -0.12243E+00   -0.20875E-01  2969   0.715E-01    0.564E+00
RMM:  13    -0.647118196217E+03    0.20982E+00   -0.28262E-01  3032   0.704E-01    0.368E+00
RMM:  14    -0.647156280380E+03   -0.38084E-01   -0.86659E-02  3007   0.465E-01    0.278E+00
RMM:  15    -0.647159906378E+03   -0.36260E-02   -0.12838E-01  2972   0.546E-01    0.139E+00
RMM:  16    -0.647265851652E+03   -0.10595E+00   -0.44354E-02  3021   0.288E-01    0.106E+00
RMM:  17    -0.647364046387E+03   -0.98195E-01   -0.48163E-02  2975   0.262E-01    0.777E-01
RMM:  18    -0.647445372695E+03   -0.81326E-01   -0.71808E-02  2975   0.238E-01    0.610E-01
RMM:  19    -0.647444435349E+03    0.93735E-03   -0.12799E-02  3086   0.121E-01    0.387E-01
RMM:  20    -0.647450116959E+03   -0.56816E-02   -0.25000E-03  3035   0.576E-02    0.277E-01
RMM:  21    -0.647457928031E+03   -0.78111E-02   -0.57604E-03  2949   0.112E-01    0.281E-01
RMM:  22    -0.647445149866E+03    0.12778E-01   -0.25126E-03  2955   0.690E-02    0.130E-01
RMM:  23    -0.647448569533E+03   -0.34197E-02   -0.53098E-04  2487   0.313E-02    0.174E-01
RMM:  24    -0.647456703549E+03   -0.81340E-02   -0.58795E-04  2366   0.299E-02    0.175E-01
RMM:  25    -0.647464606840E+03   -0.79033E-02   -0.77303E-04  2597   0.315E-02    0.104E-01
RMM:  26    -0.647466183864E+03   -0.15770E-02   -0.13603E-04  2221   0.148E-02    0.744E-02
RMM:  27    -0.647468861038E+03   -0.26772E-02   -0.21989E-04  2232   0.185E-02    0.371E-02
RMM:  28    -0.647469644859E+03   -0.78382E-03   -0.13603E-04  2213   0.138E-02    0.122E-02
RMM:  29    -0.647469841223E+03   -0.19636E-03   -0.22954E-05  1898   0.602E-03    0.758E-03
RMM:  30    -0.647470015475E+03   -0.17425E-03   -0.12330E-05  1398   0.435E-03    0.598E-03
RMM:  31    -0.647470145061E+03   -0.12959E-03   -0.80747E-06  1237   0.318E-03    0.585E-03
RMM:  32    -0.647470233818E+03   -0.88756E-04   -0.50957E-06  1197   0.269E-03    0.451E-03
RMM:  33    -0.647470250592E+03   -0.16774E-04   -0.12034E-06  1004   0.187E-03    0.280E-03
RMM:  34    -0.647470260653E+03   -0.10062E-04   -0.86981E-07   890   0.172E-03    0.122E-03
RMM:  35    -0.647470262872E+03   -0.22188E-05   -0.39570E-07   708   0.150E-03
   1 F= -.65387236E+03 E0= -.65385798E+03  d E =-.653872E+03  mag=     1.3209
