 vasp.5.4.4.18Apr17-6-g9f103f2a35 (build Jan 14 2022 15:04:31) complex          
  
 executed on             LinuxIFC date 2023.01.23  17:52:23
 running on   48 total cores
 distrk:  each k-point on   48 cores,    1 groups
 distr:  one band on NCORES_PER_BAND=  12 cores,    4 groups


--------------------------------------------------------------------------------------------------------


 INCAR:
 POTCAR:    PAW_PBE C 08Apr2002                   
 POTCAR:    PAW_PBE N 08Apr2002                   
 POTCAR:    PAW_PBE C 08Apr2002                   
 POTCAR:    PAW_PBE Cr_pv 02Aug2007               
 POTCAR:    PAW_PBE C 08Apr2002                   
   SHA256 =  253f7b50bb8d59471dbedb8285d89021f4a42ed1a2c5d38a03a736e69125dd95 C/
   COPYR  = (c) Copyright 08Apr2002 Georg Kresse                                
   COPYR  = This file is part of the software VASP. Any use, copying, and all ot
   COPYR  = If you do not have a valid VASP license, you may not use, copy or di
   VRHFIN =C: s2p2                                                              
   LEXCH  = PE                                                                  
   EATOM  =   147.1560 eV,   10.8157 Ry                                         
                                                                                
   TITEL  = PAW_PBE C 08Apr2002                                                 
   LULTRA =        F    use ultrasoft PP ?                                      
   IUNSCR =        1    unscreen: 0-lin 1-nonlin 2-no                           
   RPACOR =    1.200    partial core radius                                     
   POMASS =   12.011; ZVAL   =    4.000    mass and valenz                      
   RCORE  =    1.500    outmost cutoff radius                                   
   RWIGS  =    1.630; RWIGS  =    0.863    wigner-seitz radius (au A)           
   ENMAX  =  400.000; ENMIN  =  300.000 eV                                      
   ICORE  =        2    local potential                                         
   LCOR   =        T    correct aug charges                                     
   LPAW   =        T    paw PP                                                  
   EAUG   =  644.873                                                            
   DEXC   =    0.000                                                            
   RMAX   =    1.529    core radius for proj-oper                               
   RAUG   =    1.300    factor for augmentation sphere                          
   RDEP   =    1.501    radius for radial grids                                 
   RDEPT  =    1.300    core radius for aug-charge                              
                                                                                
   Atomic configuration                                                         
    4 entries                                                                   
     n  l   j            E        occ.                                          
     1  0  0.50      -273.3789   2.0000                                         
     2  0  0.50       -13.7508   2.0000                                         
     2  1  0.50        -5.2854   2.0000                                         
     3  2  1.50        -5.4423   0.0000                                         
   Description                                                                  
     l       E           TYP  RCUT    TYP  RCUT                                 
     0    -13.7508458     23  1.200                                             
     0     -8.2022199     23  1.200                                             
     1     -5.2854383     23  1.500                                             
     1     34.0145650     23  1.500                                             
     2     -5.4423304      7  1.500                                             
  local pseudopotential read in
  partial core-charges read in
  partial kinetic energy density read in
  atomic valenz-charges read in
  non local Contribution for L=           0  read in
    real space projection operators read in
  non local Contribution for L=           0  read in
    real space projection operators read in
  non local Contribution for L=           1  read in
    real space projection operators read in
  non local Contribution for L=           1  read in
    real space projection operators read in
    PAW grid and wavefunctions read in
 
   number of l-projection  operators is LMAX  =           4
   number of lm-projection operators is LMMAX =           8
 
 POTCAR:    PAW_PBE N 08Apr2002                   
   SHA256 =  e053789ff3a61a86a1b75d8a110fcc91f86041011e7b0817c7c99e4e8a6349d7 N/
   COPYR  = (c) Copyright 08Apr2002 Georg Kresse                                
   COPYR  = This file is part of the software VASP. Any use, copying, and all ot
   COPYR  = If you do not have a valid VASP license, you may not use, copy or di
   VRHFIN =N: s2p3                                                              
   LEXCH  = PE                                                                  
   EATOM  =   264.5486 eV,   19.4438 Ry                                         
                                                                                
   TITEL  = PAW_PBE N 08Apr2002                                                 
   LULTRA =        F    use ultrasoft PP ?                                      
   IUNSCR =        1    unscreen: 0-lin 1-nonlin 2-no                           
   RPACOR =    1.200    partial core radius                                     
   POMASS =   14.001; ZVAL   =    5.000    mass and valenz                      
   RCORE  =    1.500    outmost cutoff radius                                   
   RWIGS  =    1.400; RWIGS  =    0.741    wigner-seitz radius (au A)           
   ENMAX  =  400.000; ENMIN  =  300.000 eV                                      
   ICORE  =        2    local potential                                         
   LCOR   =        T    correct aug charges                                     
   LPAW   =        T    paw PP                                                  
   EAUG   =  627.112                                                            
   DEXC   =    0.000                                                            
   RMAX   =    1.529    core radius for proj-oper                               
   RAUG   =    1.300    factor for augmentation sphere                          
   RDEP   =    1.514    radius for radial grids                                 
   RDEPT  =    1.338    core radius for aug-charge                              
                                                                                
   Atomic configuration                                                         
    4 entries                                                                   
     n  l   j            E        occ.                                          
     1  0  0.50      -384.7179   2.0000                                         
     2  0  0.50       -18.5828   2.0000                                         
     2  1  0.50        -7.0898   3.0000                                         
     3  2  1.50        -6.8029   0.0000                                         
   Description                                                                  
     l       E           TYP  RCUT    TYP  RCUT                                 
     0    -18.5828119     23  1.200                                             
     0    -13.5018863     23  1.200                                             
     1     -7.0897853     23  1.500                                             
     1      9.5240782     23  1.500                                             
     2     -6.8029130      7  1.500                                             
  local pseudopotential read in
  partial core-charges read in
  partial kinetic energy density read in
  atomic valenz-charges read in
  non local Contribution for L=           0  read in
    real space projection operators read in
  non local Contribution for L=           0  read in
    real space projection operators read in
  non local Contribution for L=           1  read in
    real space projection operators read in
  non local Contribution for L=           1  read in
    real space projection operators read in
    PAW grid and wavefunctions read in
 
   number of l-projection  operators is LMAX  =           4
   number of lm-projection operators is LMMAX =           8
 
 POTCAR:    PAW_PBE C 08Apr2002                   
   SHA256 =  253f7b50bb8d59471dbedb8285d89021f4a42ed1a2c5d38a03a736e69125dd95 C/
   COPYR  = (c) Copyright 08Apr2002 Georg Kresse                                
   COPYR  = This file is part of the software VASP. Any use, copying, and all ot
   COPYR  = If you do not have a valid VASP license, you may not use, copy or di
   VRHFIN =C: s2p2                                                              
   LEXCH  = PE                                                                  
   EATOM  =   147.1560 eV,   10.8157 Ry                                         
                                                                                
   TITEL  = PAW_PBE C 08Apr2002                                                 
   LULTRA =        F    use ultrasoft PP ?                                      
   IUNSCR =        1    unscreen: 0-lin 1-nonlin 2-no                           
   RPACOR =    1.200    partial core radius                                     
   POMASS =   12.011; ZVAL   =    4.000    mass and valenz                      
   RCORE  =    1.500    outmost cutoff radius                                   
   RWIGS  =    1.630; RWIGS  =    0.863    wigner-seitz radius (au A)           
   ENMAX  =  400.000; ENMIN  =  300.000 eV                                      
   ICORE  =        2    local potential                                         
   LCOR   =        T    correct aug charges                                     
   LPAW   =        T    paw PP                                                  
   EAUG   =  644.873                                                            
   DEXC   =    0.000                                                            
   RMAX   =    1.529    core radius for proj-oper                               
   RAUG   =    1.300    factor for augmentation sphere                          
   RDEP   =    1.501    radius for radial grids                                 
   RDEPT  =    1.300    core radius for aug-charge                              
                                                                                
   Atomic configuration                                                         
    4 entries                                                                   
     n  l   j            E        occ.                                          
     1  0  0.50      -273.3789   2.0000                                         
     2  0  0.50       -13.7508   2.0000                                         
     2  1  0.50        -5.2854   2.0000                                         
     3  2  1.50        -5.4423   0.0000                                         
   Description                                                                  
     l       E           TYP  RCUT    TYP  RCUT                                 
     0    -13.7508458     23  1.200                                             
     0     -8.2022199     23  1.200                                             
     1     -5.2854383     23  1.500                                             
     1     34.0145650     23  1.500                                             
     2     -5.4423304      7  1.500                                             
  local pseudopotential read in
  partial core-charges read in
  partial kinetic energy density read in
  atomic valenz-charges read in
  non local Contribution for L=           0  read in
    real space projection operators read in
  non local Contribution for L=           0  read in
    real space projection operators read in
  non local Contribution for L=           1  read in
    real space projection operators read in
  non local Contribution for L=           1  read in
    real space projection operators read in
    PAW grid and wavefunctions read in
 
   number of l-projection  operators is LMAX  =           4
   number of lm-projection operators is LMMAX =           8
 
 POTCAR:    PAW_PBE Cr_pv 02Aug2007               
   SHA256 =  c9a7df34d3cdbacf1090e328ef39c0b420964e11c23f63548d1ac9dd218cdba0 Cr
   COPYR  = (c) Copyright 02Aug2007 Georg Kresse                                
   COPYR  = This file is part of the software VASP. Any use, copying, and all ot
   COPYR  = If you do not have a valid VASP license, you may not use, copy or di
   VRHFIN =Cr : p6d5s1                                                          
   LEXCH  = PE                                                                  
   EATOM  =  1647.9177 eV,  121.1185 Ry                                         
                                                                                
   TITEL  = PAW_PBE Cr_pv 02Aug2007                                             
   LULTRA =        F    use ultrasoft PP ?                                      
   IUNSCR =        1    unscreen: 0-lin 1-nonlin 2-no                           
   RPACOR =    2.080    partial core radius                                     
   POMASS =   51.996; ZVAL   =   12.000    mass and valenz                      
   RCORE  =    2.300    outmost cutoff radius                                   
   RWIGS  =    2.500; RWIGS  =    1.323    wigner-seitz radius (au A)           
   ENMAX  =  265.681; ENMIN  =  199.261 eV                                      
   ICORE  =        3    local potential                                         
   LCOR   =        T    correct aug charges                                     
   LPAW   =        T    paw PP                                                  
   EAUG   =  519.424                                                            
   DEXC   =    0.000                                                            
   RMAX   =    2.356    core radius for proj-oper                               
   RAUG   =    1.300    factor for augmentation sphere                          
   RDEP   =    2.447    radius for radial grids                                 
   RDEPT  =    1.882    core radius for aug-charge                              
                                                                                
   Atomic configuration                                                         
    8 entries                                                                   
     n  l   j            E        occ.                                          
     1  0  0.50     -5880.4963   2.0000                                         
     2  0  0.50      -667.0865   2.0000                                         
     2  1  1.50      -560.6250   6.0000                                         
     3  0  0.50       -73.9860   2.0000                                         
     3  1  1.50       -45.4378   6.0000                                         
     3  2  2.50        -2.9137   5.0000                                         
     4  0  0.50        -4.0071   1.0000                                         
     4  3  2.50        -1.3606   0.0000                                         
   Description                                                                  
     l       E           TYP  RCUT    TYP  RCUT                                 
     1    -45.4377911     23  2.000                                             
     1      1.3605826     23  2.000                                             
     2     -2.9136672     23  2.300                                             
     2     -4.2742498     23  2.300                                             
     0     -4.0071320     23  2.300                                             
     0      9.4498803     23  2.300                                             
     3      2.7211652     23  2.300                                             
  local pseudopotential read in
  partial core-charges read in
  partial kinetic energy density read in
  atomic valenz-charges read in
  non local Contribution for L=           1  read in
    real space projection operators read in
  non local Contribution for L=           1  read in
    real space projection operators read in
  non local Contribution for L=           2  read in
    real space projection operators read in
  non local Contribution for L=           2  read in
    real space projection operators read in
  non local Contribution for L=           0  read in
    real space projection operators read in
  non local Contribution for L=           0  read in
    real space projection operators read in
    PAW grid and wavefunctions read in
 
   number of l-projection  operators is LMAX  =           6
   number of lm-projection operators is LMMAX =          18
 
 Optimization of the real space projectors (new method)

 maximal supplied QI-value         = 25.13
 optimisation between [QCUT,QGAM] = [ 10.56, 21.36] = [ 31.20,127.80] Ry 
 Optimized for a Real-space Cutoff    1.32 Angstroem

   l    n(q)    QCUT    max X(q) W(low)/X(q) W(high)/X(q)  e(spline) 
   0      8    10.556   115.676    0.17E-03    0.39E-03    0.26E-06
   0      8    10.556    87.132    0.17E-03    0.39E-03    0.26E-06
   1      8    10.556     4.429    0.24E-03    0.31E-03    0.16E-06
   1      8    10.556     2.733    0.17E-03    0.22E-03    0.19E-06
 Optimization of the real space projectors (new method)

 maximal supplied QI-value         = 25.13
 optimisation between [QCUT,QGAM] = [ 10.56, 21.36] = [ 31.20,127.80] Ry 
 Optimized for a Real-space Cutoff    1.40 Angstroem

   l    n(q)    QCUT    max X(q) W(low)/X(q) W(high)/X(q)  e(spline) 
   0      9    10.556    79.467    0.20E-03    0.22E-03    0.30E-06
   0      9    10.556    66.151    0.20E-03    0.22E-03    0.30E-06
   1      8    10.556    12.181    0.10E-03    0.78E-03    0.19E-05
   1      8    10.556     8.434    0.11E-03    0.81E-03    0.19E-05
 Optimization of the real space projectors (new method)

 maximal supplied QI-value         = 25.13
 optimisation between [QCUT,QGAM] = [ 10.56, 21.36] = [ 31.20,127.80] Ry 
 Optimized for a Real-space Cutoff    1.32 Angstroem

   l    n(q)    QCUT    max X(q) W(low)/X(q) W(high)/X(q)  e(spline) 
   0      8    10.556   115.676    0.17E-03    0.39E-03    0.26E-06
   0      8    10.556    87.132    0.17E-03    0.39E-03    0.26E-06
   1      8    10.556     4.429    0.24E-03    0.31E-03    0.16E-06
   1      8    10.556     2.733    0.17E-03    0.22E-03    0.19E-06
 Optimization of the real space projectors (new method)

 maximal supplied QI-value         = 16.25
 optimisation between [QCUT,QGAM] = [ 10.73, 21.45] = [ 32.22,128.87] Ry 
 Optimized for a Real-space Cutoff    1.53 Angstroem

   l    n(q)    QCUT    max X(q) W(low)/X(q) W(high)/X(q)  e(spline) 
   1      9    10.726     3.262    0.64E-04    0.35E-04    0.11E-06
   1      9    10.726     5.741    0.13E-03    0.48E-04    0.19E-06
   2      9    10.726    60.438    0.12E-03    0.29E-04    0.13E-06
   2      9    10.726    55.380    0.12E-03    0.29E-04    0.13E-06
   0     10    10.726    80.273    0.43E-04    0.74E-05    0.81E-07
   0     10    10.726    36.654    0.34E-04    0.61E-05    0.73E-07
  PAW_PBE C 08Apr2002                   :
 energy of atom  1       EATOM= -147.1560
 kinetic energy error for atom=    0.0132 (will be added to EATOM!!)
  PAW_PBE N 08Apr2002                   :
 energy of atom  2       EATOM= -264.5486
 kinetic energy error for atom=    0.0298 (will be added to EATOM!!)
  PAW_PBE C 08Apr2002                   :
 energy of atom  3       EATOM= -147.1560
 kinetic energy error for atom=    0.0132 (will be added to EATOM!!)
  PAW_PBE Cr_pv 02Aug2007               :
 energy of atom  4       EATOM=-1647.9177
 kinetic energy error for atom=    0.0134 (will be added to EATOM!!)
 
 
 POSCAR: POSCAR-clean                            
  positions in direct lattice
  velocities in cartesian coordinates
 exchange correlation table for  LEXCH =        8
   RHO(1)=    0.500       N(1)  =     2000
   RHO(2)=  100.500       N(2)  =     4000

 VTST: version 3.2, (02/03/18)

 CHAIN: initializing optimizer
 
 OPT: Using VASP Conjugate-Gradient optimizer
 CHAIN: Read ICHAIN            0
 
 POSCAR: POSCAR-clean                            
  positions in direct lattice
  velocities in cartesian coordinates
 


--------------------------------------------------------------------------------------------------------


 ion  position               nearest neighbor table
   1  0.000  1.000  0.498-  60 1.42   2 1.42  70 1.43
   2  0.056  0.112  0.498-  13 1.42   1 1.42  15 1.43
   3  0.169  0.003  0.498-  62 1.42   4 1.43  60 1.43
   4  0.225  0.114  0.498-  17 1.42  15 1.43   3 1.43
   5  0.334  0.003  0.498-  62 1.42   6 1.43  64 1.43
   6  0.390  0.114  0.499-  17 1.42  19 1.43   5 1.43
   7  0.500  1.000  0.498-  64 1.42   8 1.42  66 1.43
   8  0.556  0.112  0.498-  21 1.42   7 1.42  19 1.43
   9  0.666  0.998  0.498-  10 1.42  66 1.43  68 1.43
  10  0.722  0.109  0.498-   9 1.42  23 1.42  21 1.43
  11  0.832  0.998  0.498-  12 1.42  70 1.43  68 1.43
  12  0.888  0.109  0.498-  11 1.42  23 1.42  13 1.43
  13  1.000  0.166  0.498-  14 1.42   2 1.42  12 1.43
  14  0.055  0.277  0.499-  13 1.42  27 1.43  25 1.43
  15  0.168  0.168  0.498-  16 1.42   4 1.43   2 1.43
  16  0.224  0.280  0.500-  15 1.42  27 1.43  29 1.45
  17  0.336  0.171  0.500-  18 1.41   4 1.42   6 1.42
  18  0.391  0.281  0.503-  17 1.41  29 1.42  31 1.42
  19  0.501  0.168  0.498-  20 1.42   6 1.43   8 1.43
  20  0.556  0.280  0.500-  19 1.42  33 1.43  31 1.45
  21  0.667  0.166  0.498-  22 1.42   8 1.42  10 1.43
  22  0.722  0.277  0.498-  21 1.42  33 1.43  35 1.43
  23  0.833  0.165  0.498-  24 1.42  10 1.42  12 1.42
  24  0.888  0.277  0.498-  23 1.42  35 1.42  25 1.42
  25  0.999  0.332  0.498-  26 1.42  24 1.42  14 1.43
  26  0.055  0.444  0.499-  39 1.42  37 1.42  25 1.42
  27  0.166  0.333  0.500-  28 1.41  16 1.43  14 1.43
  28  0.220  0.444  0.502-  41 1.41  27 1.41  39 1.42
  29  0.337  0.338  0.503-  30 1.41  18 1.42  16 1.45
  30  0.390  0.448  0.509-  29 1.41  41 1.42  71 1.99
  31  0.502  0.338  0.503-  32 1.41  18 1.42  20 1.45
  32  0.559  0.448  0.509-  31 1.41  43 1.42  71 1.99
  33  0.667  0.333  0.500-  34 1.42  20 1.43  22 1.43
  34  0.724  0.444  0.501-  43 1.41  33 1.42  45 1.42
  35  0.833  0.332  0.498-  36 1.42  24 1.42  22 1.43
  36  0.889  0.444  0.498-  45 1.42  37 1.42  35 1.42
  37  1.000  0.500  0.498-  36 1.42  26 1.42  38 1.42
  38  0.056  0.611  0.498-  47 1.42  49 1.42  37 1.42
  39  0.165  0.500  0.500-  26 1.42  40 1.42  28 1.42
  40  0.221  0.611  0.500-  51 1.42  39 1.42  49 1.42
  41  0.330  0.499  0.505-  28 1.41  30 1.42  42 1.43
  42  0.385  0.611  0.505-  53 1.41  51 1.41  41 1.43
  43  0.669  0.499  0.505-  34 1.41  32 1.42  44 1.43
  44  0.726  0.611  0.505-  55 1.41  57 1.41  43 1.43
  45  0.835  0.500  0.500-  36 1.42  46 1.42  34 1.42
  46  0.891  0.611  0.500-  57 1.42  45 1.42  47 1.42
  47  0.001  0.667  0.498-  38 1.42  46 1.42  48 1.42
  48  0.057  0.779  0.498-  47 1.42  61 1.42  59 1.43
  49  0.166  0.667  0.499-  38 1.42  40 1.42  50 1.42
  50  0.222  0.779  0.498-  49 1.42  61 1.42  63 1.43
  51  0.331  0.667  0.502-  42 1.41  40 1.42  52 1.42
  52  0.388  0.778  0.500-  51 1.42  65 1.42  63 1.43
  53  0.495  0.662  0.509-  42 1.41  54 1.42  71 1.99
  54  0.553  0.773  0.503-  53 1.42  67 1.43  65 1.45
  55  0.667  0.662  0.510-  44 1.41  56 1.42  71 1.99
  56  0.720  0.773  0.503-  55 1.42  67 1.43  69 1.45
  57  0.836  0.667  0.502-  44 1.41  46 1.42  58 1.42
  58  0.890  0.778  0.500-  57 1.42  69 1.42  59 1.43
  59  0.001  0.835  0.498-  60 1.42  48 1.43  58 1.43
  60  0.057  0.946  0.497-  59 1.42   1 1.42   3 1.43
  61  0.168  0.835  0.498-  48 1.42  50 1.42  62 1.42
  62  0.223  0.947  0.498-   5 1.42   3 1.42  61 1.42
  63  0.333  0.835  0.498-  64 1.42  50 1.43  52 1.43
  64  0.389  0.946  0.498-  63 1.42   7 1.42   5 1.43
  65  0.499  0.831  0.500-  52 1.42  66 1.42  54 1.45
  66  0.555  0.943  0.498-  65 1.42   9 1.43   7 1.43
  67  0.665  0.830  0.502-  68 1.42  54 1.43  56 1.43
  68  0.721  0.941  0.499-  67 1.42  11 1.43   9 1.43
  69  0.833  0.831  0.500-  58 1.42  70 1.42  56 1.45
  70  0.889  0.943  0.498-  69 1.42  11 1.43   1 1.43
  71  0.528  0.556  0.556-  53 1.99  55 1.99  30 1.99  32 1.99
 

IMPORTANT INFORMATION: All symmetrisations will be switched off!
NOSYMM: (Re-)initialisation of all symmetry stuff for point group C_1.

 
 
 KPOINTS: K-Points                                

Automatic generation of k-mesh.
Space group operators:
 irot       det(A)        alpha          n_x          n_y          n_z        tau_x        tau_y        tau_z
    1     1.000000     0.000000     1.000000     0.000000     0.000000     0.000000     0.000000     0.000000
 
 Subroutine IBZKPT returns following result:
 ===========================================
 
 Found      4 irreducible k-points:
 
 Following reciprocal coordinates:
            Coordinates               Weight
  0.000000  0.000000  0.000000      1.000000
  0.500000  0.000000  0.000000      1.000000
  0.000000  0.500000  0.000000      1.000000
  0.500000  0.500000  0.000000      1.000000
 
 Following cartesian coordinates:
            Coordinates               Weight
  0.000000  0.000000  0.000000      1.000000
  0.033674  0.019612  0.000000      1.000000
  0.000000  0.039224  0.000000      1.000000
  0.033675  0.058836  0.000000      1.000000
 


--------------------------------------------------------------------------------------------------------




 Dimension of arrays:
   k-points           NKPTS =      4   k-points in BZ     NKDIM =      4   number of bands    NBANDS=    184
   number of dos      NEDOS =    301   number of ions     NIONS =     71
   non local maximal  LDIM  =      6   non local SUM 2l+1 LMDIM =     18
   total plane-waves  NPLWV = ******
   max r-space proj   IRMAX =   6653   max aug-charges    IRDMAX=  15637
   dimension x,y,z NGX =   108 NGY =  108 NGZ =  108
   dimension x,y,z NGXF=   216 NGYF=  216 NGZF=  216
   support grid    NGXF=   216 NGYF=  216 NGZF=  216
   ions per type =              17   1  52   1
   NGX,Y,Z   is equivalent  to a cutoff of  12.09, 12.17, 11.97 a.u.
   NGXF,Y,Z  is equivalent  to a cutoff of  24.18, 24.34, 23.94 a.u.

 SYSTEM =  unknown system                          
 POSCAR =  POSCAR-clean                            

 Startparameter for this run:
   NWRITE =      2    write-flag & timer
   PREC   = accura    normal or accurate (medium, high low for compatibility)
   ISTART =      0    job   : 0-new  1-cont  2-samecut
   ICHARG =      2    charge: 1-file 2-atom 10-const
   ISPIN  =      2    spin polarized calculation?
   LNONCOLLINEAR =      F non collinear calculations
   LSORBIT =      F    spin-orbit coupling
   INIWAV =      1    electr: 0-lowe 1-rand  2-diag
   LASPH  =      F    aspherical Exc in radial PAW
   METAGGA=      F    non-selfconsistent MetaGGA calc.

 Electronic Relaxation 1
   ENCUT  =  440.0 eV  32.34 Ry    5.69 a.u.  25.40 25.23 25.66*2*pi/ulx,y,z
   ENINI  =  440.0     initial cutoff
   ENAUG  =  644.9 eV  augmentation charge cutoff
   NELM   =     50;   NELMIN=  2; NELMDL= -5     # of ELM steps 
   EDIFF  = 0.1E-04   stopping-criterion for ELM
   LREAL  =      T    real-space projection
   NLSPLINE    = F    spline interpolate recip. space projectors
   LCOMPAT=      F    compatible to vasp.4.4
   GGA_COMPAT  = T    GGA compatible to vasp.4.4-vasp.4.6
   LMAXPAW     = -100 max onsite density
   LMAXMIX     =    2 max onsite mixed and CHGCAR
   VOSKOWN=      0    Vosko Wilk Nusair interpolation
   ROPT   =   -0.00025  -0.00025  -0.00025  -0.00025
 Ionic relaxation
   EDIFFG = -.5E-01   stopping-criterion for IOM
   NSW    =    400    number of steps for IOM
   NBLOCK =      1;   KBLOCK =    400    inner block; outer block 
   IBRION =      2    ionic relax: 0-MD 1-quasi-New 2-CG
   NFREE  =      1    steps in history (QN), initial steepest desc. (CG)
   ISIF   =      2    stress and relaxation
   IWAVPR =     11    prediction:  0-non 1-charg 2-wave 3-comb
   ISYM   =      0    0-nonsym 1-usesym 2-fastsym
   LCORR  =      T    Harris-Foulkes like correction to forces

   POTIM  = 0.3000    time-step for ionic-motion
   TEIN   =    0.0    initial temperature
   TEBEG  =    0.0;   TEEND  =   0.0 temperature during run
   SMASS  =  -3.00    Nose mass-parameter (am)
   estimated Nose-frequenzy (Omega)   =  0.10E-29 period in steps =****** mass=  -0.504E-26a.u.
   SCALEE = 1.0000    scale energy and forces
   NPACO  =    256;   APACO  = 16.0  distance and # of slots for P.C.
   PSTRESS=    0.0 pullay stress

  Mass of Ions in am
   POMASS =  12.01 14.00 12.01 52.00
  Ionic Valenz
   ZVAL   =   4.00  5.00  4.00 12.00
  Atomic Wigner-Seitz radii
   RWIGS  =  -1.00 -1.00 -1.00 -1.00
  virtual crystal weights 
   VCA    =   1.00  1.00  1.00  1.00
   NELECT =     293.0000    total number of electrons
   NUPDOWN=      -1.0000    fix difference up-down

 DOS related values:
   EMIN   =  10.00;   EMAX   =-10.00  energy-range for DOS
   EFERMI =   0.00
   ISMEAR =     0;   SIGMA  =   0.10  broadening in eV -4-tet -1-fermi 0-gaus

 Electronic relaxation 2 (details)
   IALGO  =     68    algorithm
   LDIAG  =      T    sub-space diagonalisation (order eigenvalues)
   LSUBROT=      F    optimize rotation matrix (better conditioning)
   TURBO    =      0    0=normal 1=particle mesh
   IRESTART =      0    0=no restart 2=restart with 2 vectors
   NREBOOT  =      0    no. of reboots
   NMIN     =      0    reboot dimension
   EREF     =   0.00    reference energy to select bands
   IMIX   =      4    mixing-type and parameters
     AMIX     =   0.40;   BMIX     =  1.00
     AMIX_MAG =   1.60;   BMIX_MAG =  1.00
     AMIN     =   0.10
     WC   =   100.;   INIMIX=   1;  MIXPRE=   1;  MAXMIX= -45

 Intra band minimization:
   WEIMIN = 0.0010     energy-eigenvalue tresh-hold
   EBREAK =  0.14E-07  absolut break condition
   DEPER  =   0.30     relativ break condition  

   TIME   =   0.40     timestep for ELM

  volume/ion in A,a.u.               =      39.99       269.85
  Fermi-wavevector in a.u.,A,eV,Ry     =   0.767897  1.451115  8.022896  0.589666
  Thomas-Fermi vector in A             =   1.868553
 
 Write flags
   LWAVE        =      F    write WAVECAR
   LDOWNSAMPLE  =      F    k-point downsampling of WAVECAR
   LCHARG       =      F    write CHGCAR
   LVTOT        =      F    write LOCPOT, total local potential
   LVHAR        =      F    write LOCPOT, Hartree potential only
   LELF         =      F    write electronic localiz. function (ELF)
   LORBIT       =      0    0 simple, 1 ext, 2 COOP (PROOUT), +10 PAW based schemes


 Dipole corrections
   LMONO  =      F    monopole corrections only (constant potential shift)
   LDIPOL =      F    correct potential (dipole corrections)
   IDIPOL =      0    1-x, 2-y, 3-z, 4-all directions 
   EPSILON=  1.0000000 bulk dielectric constant

 Exchange correlation treatment:
   GGA     =    --    GGA type
   LEXCH   =     8    internal setting for exchange type
   VOSKOWN=      0    Vosko Wilk Nusair interpolation
   LHFCALC =     F    Hartree Fock is set to
   LHFONE  =     F    Hartree Fock one center treatment
   AEXX    =    0.0000 exact exchange contribution

 Linear response parameters
   LEPSILON=     F    determine dielectric tensor
   LRPA    =     F    only Hartree local field effects (RPA)
   LNABLA  =     F    use nabla operator in PAW spheres
   LVEL    =     F    velocity operator in full k-point grid
   LINTERFAST=   F  fast interpolation
   KINTER  =     0    interpolate to denser k-point grid
   CSHIFT  =0.1000    complex shift for real part using Kramers Kronig
   OMEGAMAX=  -1.0    maximum frequency
   DEG_THRESHOLD= 0.2000000E-02 threshold for treating states as degnerate
   RTIME   =   -0.100 relaxation time in fs
  (WPLASMAI=    0.000 imaginary part of plasma frequency in eV, 0.658/RTIME)
   DFIELD  = 0.0000000 0.0000000 0.0000000 field for delta impulse in time
 
 Orbital magnetization related:
   ORBITALMAG=     F  switch on orbital magnetization
   LCHIMAG   =     F  perturbation theory with respect to B field
   DQ        =  0.001000  dq finite difference perturbation B field
   LLRAUG    =     F  two centre corrections for induced B field



--------------------------------------------------------------------------------------------------------


 conjugate gradient relaxation of ions
 charge density and potential will be updated during run
 spin polarized calculation
 RMM-DIIS sequential band-by-band and
  variant of blocked Davidson during initial phase
 perform sub-space diagonalisation
    before iterative eigenvector-optimisation
 modified Broyden-mixing scheme, WC =      100.0
 initial mixing is a Kerker type mixing with AMIX =  0.4000 and BMIX =      1.0000
 Hartree-type preconditioning will be used
 using additional bands           37
 real space projection scheme for non local part
 use partial core corrections
 calculate Harris-corrections to forces 
   (improved forces if not selfconsistent)
 use gradient corrections 
 use of overlap-Matrix (Vanderbilt PP)
 Gauss-broadening in eV      SIGMA  =   0.10


--------------------------------------------------------------------------------------------------------


  energy-cutoff  :      440.00
  volume of cell :     2839.11
      direct lattice vectors                 reciprocal lattice vectors
    14.848061936 -0.000035172  0.000000000     0.067348950  0.039223679  0.000000000
    -7.424030968 12.747419585  0.000000000     0.000000186  0.078447357  0.000000000
     0.000000000  0.000000000 15.000000000     0.000000000  0.000000000  0.066666667

  length of vectors
    14.848061936 14.751709796 15.000000000     0.077938296  0.078447357  0.066666667


 
 k-points in units of 2pi/SCALE and weight: K-Points                                
   0.00000000  0.00000000  0.00000000       0.250
   0.03367447  0.01961184  0.00000000       0.250
   0.00000009  0.03922368  0.00000000       0.250
   0.03367457  0.05883552  0.00000000       0.250
 
 k-points in reciprocal lattice and weights: K-Points                                
   0.00000000  0.00000000  0.00000000       0.250
   0.50000000  0.00000000  0.00000000       0.250
   0.00000000  0.50000000  0.00000000       0.250
   0.50000000  0.50000000  0.00000000       0.250
 
 position of ions in fractional coordinates (direct lattice) 
   0.00019158  0.99984579  0.49764879
   0.05617278  0.11160649  0.49772265
   0.16872809  0.00257188  0.49755618
   0.22460677  0.11440939  0.49846868
   0.33408497  0.00256076  0.49774536
   0.39004727  0.11439675  0.49859377
   0.49989333  0.99982744  0.49773417
   0.55567165  0.11158760  0.49765414
   0.66588096  0.99797627  0.49826201
   0.72161561  0.10935448  0.49751367
   0.83235461  0.99798825  0.49837799
   0.88799321  0.10936364  0.49770285
   0.99954344  0.16582240  0.49779189
   0.05509421  0.27683779  0.49850954
   0.16753918  0.16840917  0.49844118
   0.22393644  0.27953199  0.49991728
   0.33558850  0.17092313  0.49978485
   0.39087980  0.28149350  0.50250019
   0.50111223  0.16839353  0.49847558
   0.55584530  0.27952564  0.49985982
   0.66651769  0.16580834  0.49751006
   0.72198014  0.27682541  0.49807137
   0.83265413  0.16506408  0.49759653
   0.88840006  0.27655933  0.49774580
   0.99937161  0.33239089  0.49830339
   0.05462162  0.44378464  0.49872447
   0.16626998  0.33298458  0.50001426
   0.22000151  0.44394541  0.50177507
   0.33671504  0.33797031  0.50300807
   0.38958852  0.44801967  0.50913222
   0.50153392  0.33799300  0.50311739
   0.55871281  0.44804934  0.50939633
   0.66695626  0.33297579  0.49965441
   0.72417672  0.44394366  0.50129948
   0.83325467  0.33238551  0.49792443
   0.88939421  0.44378323  0.49824740
   0.99998274  0.49973509  0.49825544
   0.05580276  0.61137628  0.49820755
   0.16509445  0.49983029  0.50031271
   0.22057715  0.61107916  0.50036958
   0.32953866  0.49875267  0.50511107
   0.38536856  0.61089391  0.50526525
   0.66947560  0.49875371  0.50505683
   0.72578828  0.61089280  0.50521010
   0.83496675  0.49983125  0.49960219
   0.89073045  0.61107701  0.49965889
   0.00130401  0.66741043  0.49820220
   0.05677141  0.77889625  0.49788888
   0.16633554  0.66740739  0.49868780
   0.22235704  0.77888972  0.49827341
   0.33106883  0.66676717  0.50200483
   0.38807424  0.77807312  0.50010423
   0.49529425  0.66203216  0.50924002
   0.55321152  0.77292906  0.50325030
   0.66698711  0.66199654  0.50950281
   0.71996891  0.77290433  0.50338065
   0.83593460  0.66676928  0.50153129
   0.89024849  0.77808289  0.49974784
   0.00140675  0.83459622  0.49802834
   0.05703835  0.94594673  0.49749452
   0.16755238  0.83486827  0.49772939
   0.22343732  0.94663312  0.49760244
   0.33342311  0.83458306  0.49846526
   0.38914607  0.94593063  0.49778003
   0.49889526  0.83129336  0.50002654
   0.55467355  0.94296281  0.49838571
   0.66498551  0.82970385  0.50248525
   0.72073249  0.94120579  0.49944503
   0.83265064  0.83129665  0.49998476
   0.88854737  0.94297517  0.49841141
   0.52792116  0.55593464  0.55617615
 
 position of ions in cartesian coordinates  (Angst):
  -7.42004155 12.74545376  7.46473191
   0.00548690  1.42269276  7.46583980
   2.48619134  0.03277892  7.46334263
   2.48559641  1.45841665  7.47703026
   4.94150313  0.03263133  7.46618042
   4.94216092  1.45824969  7.47890650
  -0.00030270 12.74520232  7.46601259
   7.42221733  1.42243438  7.46481204
   2.47803509 12.72159879  7.47393015
   9.90274216  1.39396205  7.46270509
   4.94975722 12.72174564  7.47566978
  12.37305909  1.39407296  7.46554275
  13.61021219  2.11377261  7.46687829
  -1.23721010  3.52896550  7.47764311
   1.23735723  2.14677642  7.47661772
   1.24976797  3.56330372  7.49875923
   3.71390017  2.17881704  7.49677277
   3.71399104  3.58830200  7.53750282
   6.19038670  2.14656533  7.47713370
   6.17801837  3.56321112  7.49789736
   8.66552971  2.11360504  7.46265091
   8.66484541  3.52878428  7.47107054
  11.13785929  2.10411186  7.46394794
  11.13783409  3.52538663  7.46618700
  12.37105131  4.23709098  7.47455089
  -2.48364567  5.65710703  7.48086710
  -0.00330089  4.24468835  7.50021391
  -0.02926836  5.65915069  7.52662601
   2.49046363  4.30823754  7.54512101
   2.45852258  5.71108100  7.63698329
   4.93753623  4.30852101  7.54676083
   4.96947022  5.71145327  7.64094489
   7.43098527  4.24455870  7.49481622
   7.45676927  5.65911070  7.51949216
   9.90457659  4.23702820  7.46886642
   9.91111992  5.65705970  7.47371101
  11.13775694  6.37029772  7.47383162
  -3.71031365  7.79346806  7.47311329
  -1.25942284  6.37154057  7.50469070
  -1.26152744  7.78967475  7.50554367
   1.19025522  6.35779798  7.57666609
   1.18668101  7.78730739  7.57897868
   6.23765224  6.35779928  7.57585246
   6.24126224  7.78728126  7.57815153
   8.68687539  6.37152932  7.49403280
   8.68896627  7.78962375  7.49488336
  -4.93551359  8.50776070  7.47303302
  -4.93960440  9.92891532  7.46833317
  -2.48509280  8.50771620  7.48031694
  -2.48093025  9.92882623  7.47410119
  -0.03436960  8.49954929  7.53007242
  -0.01428855  9.91841089  7.50156348
   2.43921239  8.43918428  7.63860031
   2.47586964  9.85283160  7.54875453
   4.98878302  8.43872422  7.64254215
   4.95207728  9.85251049  7.55070974
   7.46189290  8.49955840  7.52296936
   7.44195320  9.91851774  7.49621761
  -6.17518058 10.63894810  7.47042503
  -6.17582881 12.05837787  7.46241777
  -3.71025973 10.64241019  7.46594092
  -3.71022246 12.06712173  7.46403663
  -1.24528353 10.63876874  7.47697895
  -1.24455340 12.05816097  7.46670051
   1.23608006 10.59682777  7.50039805
   1.23524220 12.02032304  7.47578562
   3.71399906 10.57655967  7.53727878
   3.71393974 11.99791979  7.49167552
   6.19167617 10.59685789  7.49977134
   6.19252953 12.02046892  7.47617119
   3.71133004  7.08671353  8.34264220
 


--------------------------------------------------------------------------------------------------------


 k-point  1 :   0.0000 0.0000 0.0000  plane waves:   59493
 k-point  2 :   0.5000 0.0000 0.0000  plane waves:   59480
 k-point  3 :   0.0000 0.5000 0.0000  plane waves:   59554
 k-point  4 :   0.5000 0.5000 0.0000  plane waves:   59480

 maximum and minimum number of plane-waves per node :      4981     4929

 maximum number of plane-waves:     59554
 maximum index in each direction: 
   IXMAX=   25   IYMAX=   25   IZMAX=   25
   IXMIN=  -25   IYMIN=  -25   IZMIN=  -25


 real space projection operators:
  total allocation   :      18916.69 KBytes
  max/ min on nodes  :       1625.84       1540.67


 parallel 3D FFT for wavefunctions:
    minimum data exchange during FFTs selected (reduces bandwidth)
 parallel 3D FFT for charge:
    minimum data exchange during FFTs selected (reduces bandwidth)


 total amount of memory used by VASP MPI-rank0   111486. kBytes
=======================================================================

   base      :      30000. kBytes
   nonlr-proj:       9918. kBytes
   fftplans  :      10852. kBytes
   grid      :      30996. kBytes
   one-center:        186. kBytes
   wavefun   :      29534. kBytes
 
     INWAV:  cpu time    0.0000: real time    0.0000
 Broyden mixing: mesh for mixing (old mesh)
   NGX = 51   NGY = 51   NGZ = 51
  (NGX  =216   NGY  =216   NGZ  =216)
  gives a total of 132651 points

 initial charge density was supplied:
 charge density of overlapping atoms calculated
 number of electron     293.0000000 magnetization       1.0000000
 keeping initial charge density in first step


--------------------------------------------------------------------------------------------------------


 Maximum index for non-local projection operator          550
 Maximum index for augmentation-charges          326 (set IRDMAX)


--------------------------------------------------------------------------------------------------------


 First call to EWALD:  gamma=   0.125
 Maximum number of real-space cells 3x 3x 3
 Maximum number of reciprocal cells 3x 3x 3

    FEWALD:  cpu time    0.0055: real time    0.0060


--------------------------------------- Iteration      1(   1)  ---------------------------------------


    POTLOK:  cpu time    0.3934: real time    0.4261
    SETDIJ:  cpu time    0.0128: real time    0.0129
     EDDAV:  cpu time   11.5779: real time   11.7135
       DOS:  cpu time    0.0013: real time    0.0013
    --------------------------------------------
      LOOP:  cpu time   11.9854: real time   12.1538

 eigenvalue-minimisations  :  3384
 total energy-change (2. order) : 0.2446870E+04  (-0.1083423E+05)
 number of electron     293.0000000 magnetization       1.0000000
 augmentation part      293.0000000 magnetization       1.0000000

 Free energy of the ion-electron system (eV)
  ---------------------------------------------------
  alpha Z        PSCENC =       157.45327768
  Ewald energy   TEWEN  =     30491.32492541
  -Hartree energ DENC   =    -39653.06145036
  -exchange      EXHF   =         0.00000000
  -V(xc)+E(xc)   XCENC  =       983.07567631
  PAW double counting   =      9000.30529238    -9089.18527416
  entropy T*S    EENTRO =        -0.11359552
  eigenvalues    EBANDS =     -1508.20574790
  atomic energy  EATOM  =     12065.27733323
  Solvation  Ediel_sol  =         0.00000000
  ---------------------------------------------------
  free energy    TOTEN  =      2446.87043707 eV

  energy without entropy =     2446.98403259  energy(sigma->0) =     2446.92723483


--------------------------------------------------------------------------------------------------------




--------------------------------------- Iteration      1(   2)  ---------------------------------------


     EDDAV:  cpu time   14.9368: real time   15.1861
       DOS:  cpu time    0.0010: real time    0.0010
    --------------------------------------------
      LOOP:  cpu time   14.9378: real time   15.1871

 eigenvalue-minimisations  :  4224
 total energy-change (2. order) :-0.2681077E+04  (-0.2562689E+04)
 number of electron     293.0000000 magnetization       1.0000000
 augmentation part      293.0000000 magnetization       1.0000000

 Free energy of the ion-electron system (eV)
  ---------------------------------------------------
  alpha Z        PSCENC =       157.45327768
  Ewald energy   TEWEN  =     30491.32492541
  -Hartree energ DENC   =    -39653.06145036
  -exchange      EXHF   =         0.00000000
  -V(xc)+E(xc)   XCENC  =       983.07567631
  PAW double counting   =      9000.30529238    -9089.18527416
  entropy T*S    EENTRO =        -0.01378462
  eigenvalues    EBANDS =     -4189.38211081
  atomic energy  EATOM  =     12065.27733323
  Solvation  Ediel_sol  =         0.00000000
  ---------------------------------------------------
  free energy    TOTEN  =      -234.20611494 eV

  energy without entropy =     -234.19233032  energy(sigma->0) =     -234.19922263


--------------------------------------------------------------------------------------------------------




--------------------------------------- Iteration      1(   3)  ---------------------------------------


     EDDAV:  cpu time   12.6678: real time   12.9019
       DOS:  cpu time    0.0009: real time    0.0009
    --------------------------------------------
      LOOP:  cpu time   12.6687: real time   12.9028

 eigenvalue-minimisations  :  3560
 total energy-change (2. order) :-0.4534513E+03  (-0.4507457E+03)
 number of electron     293.0000000 magnetization       1.0000000
 augmentation part      293.0000000 magnetization       1.0000000

 Free energy of the ion-electron system (eV)
  ---------------------------------------------------
  alpha Z        PSCENC =       157.45327768
  Ewald energy   TEWEN  =     30491.32492541
  -Hartree energ DENC   =    -39653.06145036
  -exchange      EXHF   =         0.00000000
  -V(xc)+E(xc)   XCENC  =       983.07567631
  PAW double counting   =      9000.30529238    -9089.18527416
  entropy T*S    EENTRO =        -0.00796239
  eigenvalues    EBANDS =     -4642.83926002
  atomic energy  EATOM  =     12065.27733323
  Solvation  Ediel_sol  =         0.00000000
  ---------------------------------------------------
  free energy    TOTEN  =      -687.65744192 eV

  energy without entropy =     -687.64947953  energy(sigma->0) =     -687.65346072


--------------------------------------------------------------------------------------------------------




--------------------------------------- Iteration      1(   4)  ---------------------------------------


     EDDAV:  cpu time   13.0342: real time   13.2550
       DOS:  cpu time    0.0010: real time    0.0010
    --------------------------------------------
      LOOP:  cpu time   13.0352: real time   13.2560

 eigenvalue-minimisations  :  3520
 total energy-change (2. order) :-0.1656960E+02  (-0.1643321E+02)
 number of electron     293.0000000 magnetization       1.0000000
 augmentation part      293.0000000 magnetization       1.0000000

 Free energy of the ion-electron system (eV)
  ---------------------------------------------------
  alpha Z        PSCENC =       157.45327768
  Ewald energy   TEWEN  =     30491.32492541
  -Hartree energ DENC   =    -39653.06145036
  -exchange      EXHF   =         0.00000000
  -V(xc)+E(xc)   XCENC  =       983.07567631
  PAW double counting   =      9000.30529238    -9089.18527416
  entropy T*S    EENTRO =        -0.00816370
  eigenvalues    EBANDS =     -4659.40865421
  atomic energy  EATOM  =     12065.27733323
  Solvation  Ediel_sol  =         0.00000000
  ---------------------------------------------------
  free energy    TOTEN  =      -704.22703742 eV

  energy without entropy =     -704.21887372  energy(sigma->0) =     -704.22295557


--------------------------------------------------------------------------------------------------------




--------------------------------------- Iteration      1(   5)  ---------------------------------------


     EDDAV:  cpu time   14.2425: real time   14.4165
       DOS:  cpu time    0.0009: real time    0.0009
    CHARGE:  cpu time    0.4831: real time    0.4940
    MIXING:  cpu time    0.0084: real time    0.0096
    --------------------------------------------
      LOOP:  cpu time   14.7349: real time   14.9211

 eigenvalue-minimisations  :  4040
 total energy-change (2. order) :-0.5446333E+00  (-0.5428853E+00)
 number of electron     292.9999979 magnetization       0.7644738
 augmentation part       11.6833244 magnetization       0.7908298

 Broyden mixing:
  rms(total) = 0.46905E+01    rms(broyden)= 0.46900E+01
  rms(prec ) = 0.54437E+01
  weight for this iteration     100.00

 Free energy of the ion-electron system (eV)
  ---------------------------------------------------
  alpha Z        PSCENC =       157.45327768
  Ewald energy   TEWEN  =     30491.32492541
  -Hartree energ DENC   =    -39653.06145036
  -exchange      EXHF   =         0.00000000
  -V(xc)+E(xc)   XCENC  =       983.07567631
  PAW double counting   =      9000.30529238    -9089.18527416
  entropy T*S    EENTRO =        -0.00829151
  eigenvalues    EBANDS =     -4659.95315970
  atomic energy  EATOM  =     12065.27733323
  Solvation  Ediel_sol  =         0.00000000
  ---------------------------------------------------
  free energy    TOTEN  =      -704.77167073 eV

  energy without entropy =     -704.76337921  energy(sigma->0) =     -704.76752497


--------------------------------------------------------------------------------------------------------




--------------------------------------- Iteration      1(   6)  ---------------------------------------


    POTLOK:  cpu time    0.3749: real time    0.3895
    SETDIJ:  cpu time    0.0158: real time    0.0178
    EDDIAG:  cpu time    2.1120: real time    2.1453
  RMM-DIIS:  cpu time   11.5015: real time   11.6076
    ORTHCH:  cpu time    0.1703: real time    0.1711
       DOS:  cpu time    0.0010: real time    0.0010
    CHARGE:  cpu time    0.4539: real time    0.4653
    MIXING:  cpu time    0.0072: real time    0.0104
    --------------------------------------------
      LOOP:  cpu time   14.6366: real time   14.8079

 eigenvalue-minimisations  :  4077
 total energy-change (2. order) :-0.2591466E+02  (-0.5239214E+02)
 number of electron     292.9999982 magnetization       0.7146204
 augmentation part       17.3087777 magnetization       0.8484826

 Broyden mixing:
  rms(total) = 0.82838E+01    rms(broyden)= 0.82835E+01
  rms(prec ) = 0.91587E+01
  weight for this iteration     100.00

 eigenvalues of (default mixing * dielectric matrix)
  average eigenvalue GAMMA=   0.2198
  0.2198

 Free energy of the ion-electron system (eV)
  ---------------------------------------------------
  alpha Z        PSCENC =       157.45327768
  Ewald energy   TEWEN  =     30491.32492541
  -Hartree energ DENC   =    -39948.17524231
  -exchange      EXHF   =         0.00000000
  -V(xc)+E(xc)   XCENC  =       996.94170138
  PAW double counting   =     15341.82783927   -15430.49821589
  entropy T*S    EENTRO =        -0.05417977
  eigenvalues    EBANDS =     -4404.78376507
  atomic energy  EATOM  =     12065.27733323
  Solvation  Ediel_sol  =         0.00000000
  ---------------------------------------------------
  free energy    TOTEN  =      -730.68632607 eV

  energy without entropy =     -730.63214631  energy(sigma->0) =     -730.65923619


--------------------------------------------------------------------------------------------------------




--------------------------------------- Iteration      1(   7)  ---------------------------------------


    POTLOK:  cpu time    0.3851: real time    0.3902
    SETDIJ:  cpu time    0.0124: real time    0.0126
    EDDIAG:  cpu time    2.0472: real time    2.0633
  RMM-DIIS:  cpu time    8.7040: real time    8.7781
    ORTHCH:  cpu time    0.5677: real time    0.5917
       DOS:  cpu time    0.0009: real time    0.0009
    CHARGE:  cpu time    0.4836: real time    0.4933
    MIXING:  cpu time    0.0091: real time    0.0103
    --------------------------------------------
      LOOP:  cpu time   12.2100: real time   12.3404

 eigenvalue-minimisations  :  3047
 total energy-change (2. order) : 0.6878131E+02  (-0.5648377E+01)
 number of electron     292.9999981 magnetization       0.6030365
 augmentation part       15.0690176 magnetization       0.6119238

 Broyden mixing:
  rms(total) = 0.30553E+01    rms(broyden)= 0.30548E+01
  rms(prec ) = 0.36315E+01
  weight for this iteration     100.00

 eigenvalues of (default mixing * dielectric matrix)
  average eigenvalue GAMMA=   0.4820
  0.5832  0.3809

 Free energy of the ion-electron system (eV)
  ---------------------------------------------------
  alpha Z        PSCENC =       157.45327768
  Ewald energy   TEWEN  =     30491.32492541
  -Hartree energ DENC   =    -40071.58837055
  -exchange      EXHF   =         0.00000000
  -V(xc)+E(xc)   XCENC  =      1001.57821654
  PAW double counting   =     16986.64191892   -17082.15091750
  entropy T*S    EENTRO =        -0.00020765
  eigenvalues    EBANDS =     -4210.44118975
  atomic energy  EATOM  =     12065.27733323
  Solvation  Ediel_sol  =         0.00000000
  ---------------------------------------------------
  free energy    TOTEN  =      -661.90501368 eV

  energy without entropy =     -661.90480604  energy(sigma->0) =     -661.90490986


--------------------------------------------------------------------------------------------------------




--------------------------------------- Iteration      1(   8)  ---------------------------------------


    POTLOK:  cpu time    0.4046: real time    0.4100
    SETDIJ:  cpu time    0.0125: real time    0.0126
    EDDIAG:  cpu time    2.0526: real time    2.0682
  RMM-DIIS:  cpu time    8.9170: real time    8.9887
    ORTHCH:  cpu time    0.5304: real time    0.5317
       DOS:  cpu time    0.0010: real time    0.0010
    CHARGE:  cpu time    0.4991: real time    0.5083
    MIXING:  cpu time    0.0101: real time    0.0108
    --------------------------------------------
      LOOP:  cpu time   12.4273: real time   12.5313

 eigenvalue-minimisations  :  3130
 total energy-change (2. order) : 0.1015882E+00  (-0.2145008E+01)
 number of electron     292.9999979 magnetization       0.3450444
 augmentation part       11.2619033 magnetization       0.2828772

 Broyden mixing:
  rms(total) = 0.27917E+01    rms(broyden)= 0.27908E+01
  rms(prec ) = 0.34156E+01
  weight for this iteration     100.00

 eigenvalues of (default mixing * dielectric matrix)
  average eigenvalue GAMMA=   0.8678
  1.9170  0.3432  0.3432

 Free energy of the ion-electron system (eV)
  ---------------------------------------------------
  alpha Z        PSCENC =       157.45327768
  Ewald energy   TEWEN  =     30491.32492541
  -Hartree energ DENC   =    -40257.99838680
  -exchange      EXHF   =         0.00000000
  -V(xc)+E(xc)   XCENC  =      1008.53466554
  PAW double counting   =     20153.18193635   -20252.63679368
  entropy T*S    EENTRO =        -0.03041049
  eigenvalues    EBANDS =     -4026.90997276
  atomic energy  EATOM  =     12065.27733323
  Solvation  Ediel_sol  =         0.00000000
  ---------------------------------------------------
  free energy    TOTEN  =      -661.80342551 eV

  energy without entropy =     -661.77301502  energy(sigma->0) =     -661.78822027


--------------------------------------------------------------------------------------------------------




--------------------------------------- Iteration      1(   9)  ---------------------------------------


    POTLOK:  cpu time    0.4021: real time    0.4072
    SETDIJ:  cpu time    0.0123: real time    0.0124
    EDDIAG:  cpu time    2.0853: real time    2.1018
  RMM-DIIS:  cpu time    8.4175: real time    8.4827
    ORTHCH:  cpu time    0.4479: real time    0.4800
       DOS:  cpu time    0.0011: real time    0.0011
    CHARGE:  cpu time    0.4554: real time    0.4617
    MIXING:  cpu time    0.0081: real time    0.0082
    --------------------------------------------
      LOOP:  cpu time   11.8295: real time   11.9551

 eigenvalue-minimisations  :  2969
 total energy-change (2. order) : 0.1440674E+02  (-0.2076199E+01)
 number of electron     292.9999981 magnetization       0.3100387
 augmentation part       12.5141585 magnetization       0.2120066

 Broyden mixing:
  rms(total) = 0.92472E+00    rms(broyden)= 0.92406E+00
  rms(prec ) = 0.98014E+00
  weight for this iteration     100.00

 eigenvalues of (default mixing * dielectric matrix)
  average eigenvalue GAMMA=   0.9386
  2.2005  0.8575  0.3482  0.3482

 Free energy of the ion-electron system (eV)
  ---------------------------------------------------
  alpha Z        PSCENC =       157.45327768
  Ewald energy   TEWEN  =     30491.32492541
  -Hartree energ DENC   =    -40564.08273916
  -exchange      EXHF   =         0.00000000
  -V(xc)+E(xc)   XCENC  =      1021.35191274
  PAW double counting   =     28659.18249179   -28761.28224891
  entropy T*S    EENTRO =        -0.05492049
  eigenvalues    EBANDS =     -3716.56671756
  atomic energy  EATOM  =     12065.27733323
  Solvation  Ediel_sol  =         0.00000000
  ---------------------------------------------------
  free energy    TOTEN  =      -647.39668527 eV

  energy without entropy =     -647.34176478  energy(sigma->0) =     -647.36922503


--------------------------------------------------------------------------------------------------------




--------------------------------------- Iteration      1(  10)  ---------------------------------------


    POTLOK:  cpu time    0.4083: real time    0.4140
    SETDIJ:  cpu time    0.0123: real time    0.0125
    EDDIAG:  cpu time    2.0503: real time    2.0662
  RMM-DIIS:  cpu time    8.6651: real time    8.7303
    ORTHCH:  cpu time    0.3698: real time    0.3706
       DOS:  cpu time    0.0010: real time    0.0010
    CHARGE:  cpu time    0.4861: real time    0.4938
    MIXING:  cpu time    0.0093: real time    0.0093
    --------------------------------------------
      LOOP:  cpu time   12.0022: real time   12.0978

 eigenvalue-minimisations  :  3039
 total energy-change (2. order) :-0.3220290E+00  (-0.2006584E+00)
 number of electron     292.9999981 magnetization       0.3377168
 augmentation part       13.4880407 magnetization       0.1714900

 Broyden mixing:
  rms(total) = 0.11425E+01    rms(broyden)= 0.11415E+01
  rms(prec ) = 0.13803E+01
  weight for this iteration     100.00

 eigenvalues of (default mixing * dielectric matrix)
  average eigenvalue GAMMA=   1.0093
  2.2120  1.6314  0.3481  0.3481  0.5068

 Free energy of the ion-electron system (eV)
  ---------------------------------------------------
  alpha Z        PSCENC =       157.45327768
  Ewald energy   TEWEN  =     30491.32492541
  -Hartree energ DENC   =    -40608.77168583
  -exchange      EXHF   =         0.00000000
  -V(xc)+E(xc)   XCENC  =      1022.14191856
  PAW double counting   =     30138.06804173   -30238.82141369
  entropy T*S    EENTRO =        -0.03472288
  eigenvalues    EBANDS =     -3674.35638848
  atomic energy  EATOM  =     12065.27733323
  Solvation  Ediel_sol  =         0.00000000
  ---------------------------------------------------
  free energy    TOTEN  =      -647.71871427 eV

  energy without entropy =     -647.68399139  energy(sigma->0) =     -647.70135283


--------------------------------------------------------------------------------------------------------




--------------------------------------- Iteration      1(  11)  ---------------------------------------


    POTLOK:  cpu time    0.4010: real time    0.4109
    SETDIJ:  cpu time    0.0115: real time    0.0116
    EDDIAG:  cpu time    2.0265: real time    2.0440
  RMM-DIIS:  cpu time    8.5865: real time    8.6538
    ORTHCH:  cpu time    0.4780: real time    0.4788
       DOS:  cpu time    0.0010: real time    0.0010
    CHARGE:  cpu time    0.4532: real time    0.4587
    MIXING:  cpu time    0.0076: real time    0.0076
    --------------------------------------------
      LOOP:  cpu time   11.9652: real time   12.0665

 eigenvalue-minimisations  :  3036
 total energy-change (2. order) : 0.5131287E+00  (-0.3428262E-01)
 number of electron     292.9999981 magnetization       0.4315646
 augmentation part       12.6956299 magnetization       0.0087577

 Broyden mixing:
  rms(total) = 0.66388E+00    rms(broyden)= 0.66285E+00
  rms(prec ) = 0.68203E+00
  weight for this iteration     100.00

 eigenvalues of (default mixing * dielectric matrix)
  average eigenvalue GAMMA=   0.8763
  2.0754  1.8750  0.3475  0.3475  0.4887  0.1234

 Free energy of the ion-electron system (eV)
  ---------------------------------------------------
  alpha Z        PSCENC =       157.45327768
  Ewald energy   TEWEN  =     30491.32492541
  -Hartree energ DENC   =    -40642.42251105
  -exchange      EXHF   =         0.00000000
  -V(xc)+E(xc)   XCENC  =      1022.35746980
  PAW double counting   =     30802.09115314   -30901.80917737
  entropy T*S    EENTRO =        -0.02967120
  eigenvalues    EBANDS =     -3641.44838524
  atomic energy  EATOM  =     12065.27733323
  Solvation  Ediel_sol  =         0.00000000
  ---------------------------------------------------
  free energy    TOTEN  =      -647.20558559 eV

  energy without entropy =     -647.17591439  energy(sigma->0) =     -647.19074999


--------------------------------------------------------------------------------------------------------




--------------------------------------- Iteration      1(  12)  ---------------------------------------


    POTLOK:  cpu time    0.4245: real time    0.4348
    SETDIJ:  cpu time    0.0128: real time    0.0128
    EDDIAG:  cpu time    2.0653: real time    2.0826
  RMM-DIIS:  cpu time    8.4570: real time    8.5256
    ORTHCH:  cpu time    0.1562: real time    0.1568
       DOS:  cpu time    0.0009: real time    0.0009
    CHARGE:  cpu time    0.4812: real time    0.4876
    MIXING:  cpu time    0.0091: real time    0.0091
    --------------------------------------------
      LOOP:  cpu time   11.6071: real time   11.7103

 eigenvalue-minimisations  :  2969
 total energy-change (2. order) :-0.1224322E+00  (-0.2087478E-01)
 number of electron     292.9999981 magnetization       0.6212242
 augmentation part       12.9425834 magnetization       0.2672313

 Broyden mixing:
  rms(total) = 0.56428E+00    rms(broyden)= 0.56418E+00
  rms(prec ) = 0.59849E+00
  weight for this iteration     100.00

 eigenvalues of (default mixing * dielectric matrix)
  average eigenvalue GAMMA=   0.9584
  2.1252  2.1252  0.6310  0.6310  0.3490  0.3490  0.4982

 Free energy of the ion-electron system (eV)
  ---------------------------------------------------
  alpha Z        PSCENC =       157.45327768
  Ewald energy   TEWEN  =     30491.32492541
  -Hartree energ DENC   =    -40652.90813153
  -exchange      EXHF   =         0.00000000
  -V(xc)+E(xc)   XCENC  =      1022.28090064
  PAW double counting   =     30948.99149777   -31048.00918052
  entropy T*S    EENTRO =        -0.02847140
  eigenvalues    EBANDS =     -3631.71016905
  atomic energy  EATOM  =     12065.27733323
  Solvation  Ediel_sol  =         0.00000000
  ---------------------------------------------------
  free energy    TOTEN  =      -647.32801776 eV

  energy without entropy =     -647.29954637  energy(sigma->0) =     -647.31378207


--------------------------------------------------------------------------------------------------------




--------------------------------------- Iteration      1(  13)  ---------------------------------------


    POTLOK:  cpu time    0.3873: real time    0.3918
    SETDIJ:  cpu time    0.0118: real time    0.0118
    EDDIAG:  cpu time    2.0463: real time    2.0695
  RMM-DIIS:  cpu time    8.5139: real time    8.5786
    ORTHCH:  cpu time    0.2634: real time    0.2648
       DOS:  cpu time    0.0010: real time    0.0010
    CHARGE:  cpu time    0.4539: real time    0.4606
    MIXING:  cpu time    0.0086: real time    0.0088
    --------------------------------------------
      LOOP:  cpu time   11.6864: real time   11.7869

 eigenvalue-minimisations  :  3032
 total energy-change (2. order) : 0.2098215E+00  (-0.2826236E-01)
 number of electron     292.9999981 magnetization       0.7820263
 augmentation part       12.8429031 magnetization       0.5489886

 Broyden mixing:
  rms(total) = 0.36793E+00    rms(broyden)= 0.36782E+00
  rms(prec ) = 0.38469E+00
  weight for this iteration     100.00

 eigenvalues of (default mixing * dielectric matrix)
  average eigenvalue GAMMA=   0.9771
  2.0289  2.0289  1.0253  1.0253  0.3492  0.3492  0.5049  0.5049

 Free energy of the ion-electron system (eV)
  ---------------------------------------------------
  alpha Z        PSCENC =       157.45327768
  Ewald energy   TEWEN  =     30491.32492541
  -Hartree energ DENC   =    -40678.95440336
  -exchange      EXHF   =         0.00000000
  -V(xc)+E(xc)   XCENC  =      1022.73884554
  PAW double counting   =     31112.94502520   -31211.51220455
  entropy T*S    EENTRO =        -0.02545579
  eigenvalues    EBANDS =     -3606.36553958
  atomic energy  EATOM  =     12065.27733323
  Solvation  Ediel_sol  =         0.00000000
  ---------------------------------------------------
  free energy    TOTEN  =      -647.11819622 eV

  energy without entropy =     -647.09274042  energy(sigma->0) =     -647.10546832


--------------------------------------------------------------------------------------------------------




--------------------------------------- Iteration      1(  14)  ---------------------------------------


    POTLOK:  cpu time    0.4109: real time    0.4150
    SETDIJ:  cpu time    0.0160: real time    0.0160
    EDDIAG:  cpu time    2.0493: real time    2.0677
  RMM-DIIS:  cpu time    8.5075: real time    8.5845
    ORTHCH:  cpu time    0.2768: real time    0.2779
       DOS:  cpu time    0.0010: real time    0.0010
    CHARGE:  cpu time    0.4830: real time    0.4902
    MIXING:  cpu time    0.0093: real time    0.0094
    --------------------------------------------
      LOOP:  cpu time   11.7538: real time   11.8617

 eigenvalue-minimisations  :  3007
 total energy-change (2. order) :-0.3808416E-01  (-0.8665915E-02)
 number of electron     292.9999981 magnetization       1.0596837
 augmentation part       12.8390181 magnetization       0.9052225

 Broyden mixing:
  rms(total) = 0.27761E+00    rms(broyden)= 0.27757E+00
  rms(prec ) = 0.29502E+00
  weight for this iteration     100.00

 eigenvalues of (default mixing * dielectric matrix)
  average eigenvalue GAMMA=   1.1162
  2.3502  2.3502  2.1095  0.3494  0.3494  0.8202  0.5968  0.5968  0.5237

 Free energy of the ion-electron system (eV)
  ---------------------------------------------------
  alpha Z        PSCENC =       157.45327768
  Ewald energy   TEWEN  =     30491.32492541
  -Hartree energ DENC   =    -40702.96550371
  -exchange      EXHF   =         0.00000000
  -V(xc)+E(xc)   XCENC  =      1023.21655219
  PAW double counting   =     31163.58158250   -31262.20305796
  entropy T*S    EENTRO =        -0.02589366
  eigenvalues    EBANDS =     -3582.81549605
  atomic energy  EATOM  =     12065.27733323
  Solvation  Ediel_sol  =         0.00000000
  ---------------------------------------------------
  free energy    TOTEN  =      -647.15628038 eV

  energy without entropy =     -647.13038672  energy(sigma->0) =     -647.14333355


--------------------------------------------------------------------------------------------------------




--------------------------------------- Iteration      1(  15)  ---------------------------------------


    POTLOK:  cpu time    0.4157: real time    0.4200
    SETDIJ:  cpu time    0.0122: real time    0.0123
    EDDIAG:  cpu time    2.0585: real time    2.0758
  RMM-DIIS:  cpu time    8.3423: real time    8.4117
    ORTHCH:  cpu time    0.2255: real time    0.2261
       DOS:  cpu time    0.0010: real time    0.0010
    CHARGE:  cpu time    0.4548: real time    0.4621
    MIXING:  cpu time    0.0101: real time    0.0102
    --------------------------------------------
      LOOP:  cpu time   11.5202: real time   11.6193

 eigenvalue-minimisations  :  2972
 total energy-change (2. order) :-0.3625998E-02  (-0.1283755E-01)
 number of electron     292.9999981 magnetization       1.1361155
 augmentation part       12.8430900 magnetization       1.0584375

 Broyden mixing:
  rms(total) = 0.13934E+00    rms(broyden)= 0.13928E+00
  rms(prec ) = 0.16883E+00
  weight for this iteration     100.00

 eigenvalues of (default mixing * dielectric matrix)
  average eigenvalue GAMMA=   1.0629
  2.4078  2.4078  1.8558  0.8782  0.3493  0.3493  0.6713  0.6713  0.5190  0.5190

 Free energy of the ion-electron system (eV)
  ---------------------------------------------------
  alpha Z        PSCENC =       157.45327768
  Ewald energy   TEWEN  =     30491.32492541
  -Hartree energ DENC   =    -40738.31103657
  -exchange      EXHF   =         0.00000000
  -V(xc)+E(xc)   XCENC  =      1023.84269226
  PAW double counting   =     31115.80806579   -31214.35344133
  entropy T*S    EENTRO =        -0.02671914
  eigenvalues    EBANDS =     -3548.17500371
  atomic energy  EATOM  =     12065.27733323
  Solvation  Ediel_sol  =         0.00000000
  ---------------------------------------------------
  free energy    TOTEN  =      -647.15990638 eV

  energy without entropy =     -647.13318724  energy(sigma->0) =     -647.14654681


--------------------------------------------------------------------------------------------------------




--------------------------------------- Iteration      1(  16)  ---------------------------------------


    POTLOK:  cpu time    0.4000: real time    0.4034
    SETDIJ:  cpu time    0.0111: real time    0.0126
    EDDIAG:  cpu time    2.0914: real time    2.1127
  RMM-DIIS:  cpu time    8.5488: real time    8.6139
    ORTHCH:  cpu time    0.1640: real time    0.1649
       DOS:  cpu time    0.0010: real time    0.0010
    CHARGE:  cpu time    0.4819: real time    0.4923
    MIXING:  cpu time    0.0082: real time    0.0094
    --------------------------------------------
      LOOP:  cpu time   11.7065: real time   11.8103

 eigenvalue-minimisations  :  3021
 total energy-change (2. order) :-0.1059453E+00  (-0.4435374E-02)
 number of electron     292.9999981 magnetization       1.2506844
 augmentation part       12.8250096 magnetization       1.1626435

 Broyden mixing:
  rms(total) = 0.10578E+00    rms(broyden)= 0.10578E+00
  rms(prec ) = 0.12959E+00
  weight for this iteration     100.00

 eigenvalues of (default mixing * dielectric matrix)
  average eigenvalue GAMMA=   1.1133
  2.5873  2.5873  1.9472  1.0028  1.0028  0.3494  0.3494  0.7345  0.5245  0.5806
  0.5806

 Free energy of the ion-electron system (eV)
  ---------------------------------------------------
  alpha Z        PSCENC =       157.45327768
  Ewald energy   TEWEN  =     30491.32492541
  -Hartree energ DENC   =    -40748.08868357
  -exchange      EXHF   =         0.00000000
  -V(xc)+E(xc)   XCENC  =      1023.77822946
  PAW double counting   =     31105.10690948   -31203.58231262
  entropy T*S    EENTRO =        -0.02665812
  eigenvalues    EBANDS =     -3538.50887261
  atomic energy  EATOM  =     12065.27733323
  Solvation  Ediel_sol  =         0.00000000
  ---------------------------------------------------
  free energy    TOTEN  =      -647.26585165 eV

  energy without entropy =     -647.23919354  energy(sigma->0) =     -647.25252259


--------------------------------------------------------------------------------------------------------




--------------------------------------- Iteration      1(  17)  ---------------------------------------


    POTLOK:  cpu time    0.3823: real time    0.3900
    SETDIJ:  cpu time    0.0123: real time    0.0124
    EDDIAG:  cpu time    1.9724: real time    1.9890
  RMM-DIIS:  cpu time    8.3893: real time    8.4609
    ORTHCH:  cpu time    0.2517: real time    0.2526
       DOS:  cpu time    0.0016: real time    0.0018
    CHARGE:  cpu time    0.4512: real time    0.4591
    MIXING:  cpu time    0.0097: real time    0.0098
    --------------------------------------------
      LOOP:  cpu time   11.4705: real time   11.5756

 eigenvalue-minimisations  :  2975
 total energy-change (2. order) :-0.9819474E-01  (-0.4816274E-02)
 number of electron     292.9999981 magnetization       1.3076755
 augmentation part       12.8108580 magnetization       1.2191259

 Broyden mixing:
  rms(total) = 0.77702E-01    rms(broyden)= 0.77697E-01
  rms(prec ) = 0.96044E-01
  weight for this iteration     100.00

 eigenvalues of (default mixing * dielectric matrix)
  average eigenvalue GAMMA=   1.1632
  2.6357  2.6357  1.9391  1.3551  1.3551  0.9698  0.3494  0.3494  0.6278  0.6278
  0.5567  0.5567

 Free energy of the ion-electron system (eV)
  ---------------------------------------------------
  alpha Z        PSCENC =       157.45327768
  Ewald energy   TEWEN  =     30491.32492541
  -Hartree energ DENC   =    -40764.80010821
  -exchange      EXHF   =         0.00000000
  -V(xc)+E(xc)   XCENC  =      1023.84097716
  PAW double counting   =     31084.43659755   -31182.87215290
  entropy T*S    EENTRO =        -0.02775330
  eigenvalues    EBANDS =     -3521.99714301
  atomic energy  EATOM  =     12065.27733323
  Solvation  Ediel_sol  =         0.00000000
  ---------------------------------------------------
  free energy    TOTEN  =      -647.36404639 eV

  energy without entropy =     -647.33629309  energy(sigma->0) =     -647.35016974


--------------------------------------------------------------------------------------------------------




--------------------------------------- Iteration      1(  18)  ---------------------------------------


    POTLOK:  cpu time    0.3854: real time    0.3890
    SETDIJ:  cpu time    0.0522: real time    0.0526
    EDDIAG:  cpu time    2.0089: real time    2.0238
  RMM-DIIS:  cpu time    8.4062: real time    8.4699
    ORTHCH:  cpu time    0.2213: real time    0.2221
       DOS:  cpu time    0.0010: real time    0.0010
    CHARGE:  cpu time    0.4537: real time    0.4608
    MIXING:  cpu time    0.0088: real time    0.0088
    --------------------------------------------
      LOOP:  cpu time   11.5376: real time   11.6280

 eigenvalue-minimisations  :  2975
 total energy-change (2. order) :-0.8132631E-01  (-0.7180784E-02)
 number of electron     292.9999981 magnetization       1.3428273
 augmentation part       12.8057094 magnetization       1.2350414

 Broyden mixing:
  rms(total) = 0.61049E-01    rms(broyden)= 0.61047E-01
  rms(prec ) = 0.77974E-01
  weight for this iteration     100.00

 eigenvalues of (default mixing * dielectric matrix)
  average eigenvalue GAMMA=   1.0989
  2.6553  2.6553  1.9252  1.4106  1.4106  0.9538  0.3494  0.3494  0.6294  0.6294
  0.5489  0.5489  0.2203

 Free energy of the ion-electron system (eV)
  ---------------------------------------------------
  alpha Z        PSCENC =       157.45327768
  Ewald energy   TEWEN  =     30491.32492541
  -Hartree energ DENC   =    -40777.87055362
  -exchange      EXHF   =         0.00000000
  -V(xc)+E(xc)   XCENC  =      1023.82867366
  PAW double counting   =     31080.67338363   -31179.06503476
  entropy T*S    EENTRO =        -0.02844798
  eigenvalues    EBANDS =     -3509.03892993
  atomic energy  EATOM  =     12065.27733323
  Solvation  Ediel_sol  =         0.00000000
  ---------------------------------------------------
  free energy    TOTEN  =      -647.44537270 eV

  energy without entropy =     -647.41692471  energy(sigma->0) =     -647.43114870


--------------------------------------------------------------------------------------------------------




--------------------------------------- Iteration      1(  19)  ---------------------------------------


    POTLOK:  cpu time    0.4010: real time    0.4054
    SETDIJ:  cpu time    0.0124: real time    0.0124
    EDDIAG:  cpu time    2.0120: real time    2.0284
  RMM-DIIS:  cpu time    8.7082: real time    8.7815
    ORTHCH:  cpu time    0.2189: real time    0.2198
       DOS:  cpu time    0.0010: real time    0.0010
    CHARGE:  cpu time    0.4515: real time    0.4595
    MIXING:  cpu time    0.0098: real time    0.0098
    --------------------------------------------
      LOOP:  cpu time   11.8147: real time   11.9179

 eigenvalue-minimisations  :  3086
 total energy-change (2. order) : 0.9373457E-03  (-0.1279927E-02)
 number of electron     292.9999981 magnetization       1.3411905
 augmentation part       12.7835671 magnetization       1.2329511

 Broyden mixing:
  rms(total) = 0.38651E-01    rms(broyden)= 0.38647E-01
  rms(prec ) = 0.48215E-01
  weight for this iteration     100.00

 eigenvalues of (default mixing * dielectric matrix)
  average eigenvalue GAMMA=   1.1041
  2.6654  2.6654  1.8890  1.5006  1.5006  0.8653  0.3494  0.3494  0.6276  0.6276
  0.5573  0.5573  0.6515  0.6515

 Free energy of the ion-electron system (eV)
  ---------------------------------------------------
  alpha Z        PSCENC =       157.45327768
  Ewald energy   TEWEN  =     30491.32492541
  -Hartree energ DENC   =    -40786.91371824
  -exchange      EXHF   =         0.00000000
  -V(xc)+E(xc)   XCENC  =      1023.87498365
  PAW double counting   =     31068.27772758   -31166.64223999
  entropy T*S    EENTRO =        -0.02879767
  eigenvalues    EBANDS =     -3500.06792700
  atomic energy  EATOM  =     12065.27733323
  Solvation  Ediel_sol  =         0.00000000
  ---------------------------------------------------
  free energy    TOTEN  =      -647.44443535 eV

  energy without entropy =     -647.41563768  energy(sigma->0) =     -647.43003651


--------------------------------------------------------------------------------------------------------




--------------------------------------- Iteration      1(  20)  ---------------------------------------


    POTLOK:  cpu time    0.3739: real time    0.3778
    SETDIJ:  cpu time    0.0124: real time    0.0124
    EDDIAG:  cpu time    2.0876: real time    2.1091
  RMM-DIIS:  cpu time    8.5640: real time    8.6298
    ORTHCH:  cpu time    0.3795: real time    0.3805
       DOS:  cpu time    0.0010: real time    0.0010
    CHARGE:  cpu time    0.4497: real time    0.4568
    MIXING:  cpu time    0.0102: real time    0.0105
    --------------------------------------------
      LOOP:  cpu time   11.8783: real time   11.9778

 eigenvalue-minimisations  :  3035
 total energy-change (2. order) :-0.5681610E-02  (-0.2499995E-03)
 number of electron     292.9999981 magnetization       1.3310007
 augmentation part       12.7713352 magnetization       1.2246564

 Broyden mixing:
  rms(total) = 0.27742E-01    rms(broyden)= 0.27738E-01
  rms(prec ) = 0.34169E-01
  weight for this iteration     100.00

 eigenvalues of (default mixing * dielectric matrix)
  average eigenvalue GAMMA=   1.2576
  2.6844  2.6844  2.3731  2.3731  1.9985  1.1013  1.1013  0.3494  0.3494  0.8563
  0.6271  0.6271  0.5265  0.6058  0.6058

 Free energy of the ion-electron system (eV)
  ---------------------------------------------------
  alpha Z        PSCENC =       157.45327768
  Ewald energy   TEWEN  =     30491.32492541
  -Hartree energ DENC   =    -40790.08151720
  -exchange      EXHF   =         0.00000000
  -V(xc)+E(xc)   XCENC  =      1023.87594304
  PAW double counting   =     31067.56732658   -31165.91915919
  entropy T*S    EENTRO =        -0.02893403
  eigenvalues    EBANDS =     -3496.91931248
[...]
  Alpha Z   157.45328   157.45328   157.45328
  Ewald   40563.00211 40624.02855-50695.76123    -0.02931    22.44757     0.10846
  Hartree 40037.85367 40026.29864-39246.17183    -0.02951    16.65938     0.10527
  E(xc)   -1111.15168 -1110.78770 -1150.26408    -0.00000     0.00349    -0.00128
  Local  -83809.27586-83844.41155 86150.77566     0.06216   -37.78563    -0.24116
  n-local  -289.41466  -287.22429  -270.26918     0.00154    -0.09531     0.01461
  augment    66.62305    64.53852    65.55566    -0.00098    -0.15740     0.01327
  Kinetic  4384.90989  4370.27204  4985.20933    -0.00255    -1.06071    -0.00210
  Fock        0.00000     0.00000     0.00000     0.00000     0.00000     0.00000
  vdW        -1.44859    -1.59761    -0.03918     0.00006    -0.00038     0.00125
  -------------------------------------------------------------------------------------
  Total      -1.44880    -1.43012    -3.51158     0.00140     0.01102    -0.00169
  in kB      -0.81759    -0.80705    -1.98166     0.00079     0.00622    -0.00095
  external pressure =       -1.20 kB  Pullay stress =        0.00 kB


 VOLUME and BASIS-vectors are now :
 -----------------------------------------------------------------------------
  energy-cutoff  :      440.00
  volume of cell :     2839.11
      direct lattice vectors                 reciprocal lattice vectors
    14.848061936 -0.000035172  0.000000000     0.067348950  0.039223679  0.000000000
    -7.424030968 12.747419585  0.000000000     0.000000186  0.078447357  0.000000000
     0.000000000  0.000000000 15.000000000     0.000000000  0.000000000  0.066666667

  length of vectors
    14.848061936 14.751709796 15.000000000     0.077938296  0.078447357  0.066666667


 FORCES acting on ions
    electron-ion (+dipol)            ewald-force                    non-local-force                 convergence-correction
 -----------------------------------------------------------------------------------------------
   0.359E+01 0.870E+00 0.792E+01   -.377E+01 -.104E+01 -.795E+01   0.176E+00 0.179E+00 0.314E-01   0.667E-05 0.169E-04 -.597E-04
   0.135E+01 0.293E+01 0.784E+01   -.166E+01 -.312E+01 -.786E+01   0.279E+00 0.164E+00 0.239E-01   0.163E-04 -.423E-05 -.598E-04
   0.379E+01 0.355E+01 0.765E+01   -.381E+01 -.402E+01 -.769E+01   0.113E-01 0.470E+00 0.370E-01   0.704E-05 0.175E-04 -.498E-04
   0.453E+01 0.113E+02 0.697E+01   -.544E+01 -.120E+02 -.699E+01   0.909E+00 0.746E+00 0.282E-01   0.645E-05 -.192E-04 -.712E-04
   -.380E+01 0.356E+01 0.691E+01   0.381E+01 -.403E+01 -.694E+01   -.109E-01 0.470E+00 0.309E-01   -.686E-05 0.182E-04 -.493E-04
   -.453E+01 0.113E+02 0.634E+01   0.544E+01 -.120E+02 -.636E+01   -.909E+00 0.745E+00 0.203E-01   -.521E-05 -.187E-04 -.708E-04
   -.359E+01 0.862E+00 0.768E+01   0.376E+01 -.103E+01 -.770E+01   -.177E+00 0.179E+00 0.282E-01   -.701E-05 0.168E-04 -.590E-04
   -.135E+01 0.292E+01 0.800E+01   0.165E+01 -.311E+01 -.803E+01   -.279E+00 0.164E+00 0.264E-01   -.175E-04 -.308E-05 -.592E-04
   -.138E+01 -.173E+00 0.756E+01   0.148E+01 0.532E-01 -.757E+01   -.105E+00 0.136E+00 0.115E-01   -.574E-05 0.366E-04 -.689E-04
   0.194E+00 -.510E+00 0.756E+01   -.860E-01 0.363E+00 -.759E+01   -.114E+00 0.136E+00 0.274E-01   0.163E-05 0.513E-05 -.484E-04
   0.137E+01 -.165E+00 0.700E+01   -.148E+01 0.447E-01 -.701E+01   0.104E+00 0.136E+00 0.719E-02   0.554E-05 0.370E-04 -.691E-04
   -.188E+00 -.518E+00 0.681E+01   0.791E-01 0.372E+00 -.683E+01   0.113E+00 0.136E+00 0.212E-01   -.175E-05 0.536E-05 -.483E-04
   0.472E+01 0.546E+01 0.704E+01   -.488E+01 -.550E+01 -.705E+01   0.155E+00 0.458E-01 0.111E-01   0.137E-05 -.641E-05 -.529E-04
   0.460E+01 0.164E+01 0.626E+01   -.472E+01 -.168E+01 -.629E+01   0.103E+00 0.421E-01 0.198E-01   -.229E-05 -.207E-04 -.605E-04
   0.871E+01 0.103E+02 0.853E+01   -.932E+01 -.105E+02 -.854E+01   0.615E+00 0.159E+00 0.131E-01   -.102E-04 -.302E-04 -.795E-04
   0.785E+01 0.478E+01 0.110E+02   -.857E+01 -.490E+01 -.111E+02   0.719E+00 0.116E+00 0.122E+00   -.287E-04 -.728E-04 -.113E-03
   -.145E-01 0.315E+02 0.592E+01   0.148E-01 -.372E+02 -.604E+01   0.422E-03 0.566E+01 0.123E+00   0.883E-06 -.444E-04 -.926E-04
   -.852E-01 0.135E+02 0.715E+01   0.953E-01 -.121E+02 -.658E+01   -.109E-01 -.139E+01 -.587E+00   0.121E-05 -.171E-03 -.199E-03
   -.871E+01 0.103E+02 0.815E+01   0.932E+01 -.104E+02 -.816E+01   -.616E+00 0.159E+00 0.863E-02   0.992E-05 -.294E-04 -.788E-04
   -.779E+01 0.476E+01 0.108E+02   0.851E+01 -.488E+01 -.110E+02   -.718E+00 0.116E+00 0.123E+00   0.287E-04 -.733E-04 -.113E-03
   -.471E+01 0.545E+01 0.797E+01   0.487E+01 -.549E+01 -.799E+01   -.154E+00 0.459E-01 0.130E-01   -.201E-05 -.535E-05 -.526E-04
   -.457E+01 0.162E+01 0.772E+01   0.468E+01 -.167E+01 -.775E+01   -.101E+00 0.424E-01 0.291E-01   0.196E-05 -.200E-04 -.602E-04
   0.130E-02 0.211E+01 0.608E+01   -.163E-02 -.213E+01 -.607E+01   0.385E-03 0.264E-01 -.176E-01   0.298E-07 -.273E-05 -.408E-04
   -.227E-02 0.203E+01 0.607E+01   0.112E-02 -.207E+01 -.610E+01   0.700E-03 0.358E-01 0.219E-01   -.984E-06 -.451E-05 -.394E-04
   0.179E+01 0.422E+01 0.527E+01   -.184E+01 -.421E+01 -.525E+01   0.576E-01 -.113E-02 -.204E-01   -.164E-04 -.626E-05 -.490E-04
   0.362E+01 0.277E+01 0.583E+01   -.361E+01 -.276E+01 -.587E+01   0.980E-02 -.629E-02 0.359E-01   -.224E-04 -.149E-04 -.581E-04
   0.853E+01 0.978E+01 0.689E+01   -.879E+01 -.952E+01 -.686E+01   0.289E+00 -.263E+00 -.373E-01   -.374E-04 -.515E-04 -.966E-04
   0.160E+02 0.504E+01 0.552E+01   -.159E+02 -.474E+01 -.561E+01   -.124E+00 -.277E+00 0.848E-01   -.760E-04 -.534E-04 -.122E-03
   0.252E+02 0.685E+01 0.146E+02   -.301E+02 -.257E+01 -.150E+02   0.482E+01 -.427E+01 0.350E+00   -.632E-04 -.147E-03 -.180E-03
   0.169E+01 0.244E+02 0.289E+02   0.443E+01 -.193E+02 -.279E+02   -.612E+01 -.507E+01 -.924E+00   -.321E-03 -.443E-03 -.382E-03
   -.253E+02 0.675E+01 0.138E+02   0.301E+02 -.246E+01 -.142E+02   -.483E+01 -.428E+01 0.346E+00   0.644E-04 -.146E-03 -.180E-03
   -.186E+01 0.242E+02 0.267E+02   -.425E+01 -.191E+02 -.258E+02   0.612E+01 -.509E+01 -.974E+00   0.322E-03 -.442E-03 -.380E-03
   -.850E+01 0.972E+01 0.783E+01   0.876E+01 -.945E+01 -.779E+01   -.288E+00 -.265E+00 -.378E-01   0.371E-04 -.513E-04 -.959E-04
   -.159E+02 0.500E+01 0.698E+01   0.157E+02 -.470E+01 -.707E+01   0.133E+00 -.280E+00 0.935E-01   0.762E-04 -.532E-04 -.121E-03
   -.177E+01 0.420E+01 0.656E+01   0.182E+01 -.419E+01 -.654E+01   -.558E-01 -.152E-02 -.177E-01   0.156E-04 -.578E-05 -.488E-04
   -.358E+01 0.278E+01 0.755E+01   0.358E+01 -.277E+01 -.759E+01   -.672E-02 -.644E-02 0.455E-01   0.209E-04 -.151E-04 -.579E-04
   -.475E-02 -.104E+00 0.634E+01   0.384E-02 0.154E+00 -.635E+01   0.109E-02 -.196E-01 0.457E-02   -.938E-06 -.191E-04 -.523E-04
   -.193E-02 0.270E+00 0.665E+01   0.884E-03 -.292E+00 -.667E+01   0.134E-02 0.226E-01 0.148E-01   -.685E-06 0.115E-04 -.522E-04
   0.715E+01 0.123E+01 0.415E+01   -.716E+01 -.115E+01 -.411E+01   -.232E-01 -.563E-01 -.357E-01   -.522E-04 -.162E-04 -.880E-04
   0.745E+01 -.217E+01 0.393E+01   -.736E+01 0.218E+01 -.387E+01   -.762E-01 -.149E-01 -.485E-01   -.472E-04 0.147E-04 -.885E-04
   0.255E+02 0.816E+01 0.148E+02   -.250E+02 -.835E+01 -.154E+02   -.451E+00 0.203E+00 0.629E+00   -.242E-03 -.113E-03 -.223E-03
   0.273E+02 -.127E+02 0.142E+02   -.265E+02 0.132E+02 -.149E+02   -.783E+00 -.519E+00 0.687E+00   -.236E-03 0.119E-03 -.222E-03
   -.252E+02 0.806E+01 0.142E+02   0.247E+02 -.824E+01 -.148E+02   0.469E+00 0.195E+00 0.595E+00   0.240E-03 -.112E-03 -.222E-03
   -.271E+02 -.126E+02 0.137E+02   0.262E+02 0.131E+02 -.143E+02   0.801E+00 -.511E+00 0.651E+00   0.233E-03 0.117E-03 -.221E-03
   -.705E+01 0.122E+01 0.663E+01   0.705E+01 -.114E+01 -.660E+01   0.270E-01 -.565E-01 -.240E-01   0.517E-04 -.169E-04 -.874E-04
   -.734E+01 -.217E+01 0.641E+01   0.725E+01 0.218E+01 -.636E+01   0.805E-01 -.142E-01 -.376E-01   0.474E-04 0.128E-04 -.883E-04
   -.245E+01 -.325E+01 0.787E+01   0.245E+01 0.321E+01 -.791E+01   0.271E-01 -.763E-03 0.473E-01   0.192E-04 0.153E-04 -.583E-04
   -.687E+00 -.265E+01 0.676E+01   0.627E+00 0.262E+01 -.673E+01   0.423E-01 0.262E-01 -.232E-01   0.204E-04 0.112E-04 -.492E-04
   0.248E+01 -.324E+01 0.610E+01   -.248E+01 0.321E+01 -.613E+01   -.238E-01 -.267E-03 0.360E-01   -.191E-04 0.159E-04 -.581E-04
   0.710E+00 -.267E+01 0.542E+01   -.650E+00 0.264E+01 -.540E+01   -.406E-01 0.263E-01 -.265E-01   -.199E-04 0.116E-04 -.486E-04
   0.114E+02 -.820E+01 0.421E+01   -.112E+02 0.813E+01 -.429E+01   -.214E+00 0.829E-01 0.846E-01   -.730E-04 0.411E-04 -.122E-03
   0.505E+01 -.923E+01 0.658E+01   -.482E+01 0.923E+01 -.655E+01   -.221E+00 0.356E-02 -.246E-01   -.455E-04 0.436E-04 -.955E-04
   -.430E+01 -.380E+02 0.294E+02   0.104E+02 0.346E+02 -.286E+02   -.607E+01 0.340E+01 -.840E+00   -.326E-03 0.418E-03 -.370E-03
   0.142E+01 -.196E+02 0.135E+02   -.111E+01 0.186E+02 -.137E+02   -.321E+00 0.945E+00 0.217E+00   -.752E-04 0.118E-03 -.173E-03
   0.414E+01 -.377E+02 0.273E+02   -.102E+02 0.343E+02 -.264E+02   0.606E+01 0.341E+01 -.883E+00   0.326E-03 0.414E-03 -.366E-03
   -.148E+01 -.195E+02 0.126E+02   0.117E+01 0.185E+02 -.128E+02   0.317E+00 0.958E+00 0.214E+00   0.746E-04 0.116E-03 -.172E-03
   -.113E+02 -.817E+01 0.564E+01   0.110E+02 0.809E+01 -.573E+01   0.222E+00 0.855E-01 0.926E-01   0.726E-04 0.387E-04 -.121E-03
   -.501E+01 -.916E+01 0.751E+01   0.478E+01 0.916E+01 -.747E+01   0.222E+00 0.436E-02 -.263E-01   0.453E-04 0.439E-04 -.961E-04
   -.130E+01 -.217E+01 0.812E+01   0.118E+01 0.210E+01 -.815E+01   0.112E+00 0.560E-01 0.316E-01   0.125E-04 0.215E-04 -.607E-04
   -.189E+01 -.217E+01 0.814E+01   0.174E+01 0.204E+01 -.815E+01   0.134E+00 0.111E+00 0.103E-01   0.542E-05 0.178E-04 -.532E-04
   -.894E-02 -.187E+01 0.616E+01   0.836E-02 0.171E+01 -.619E+01   0.781E-03 0.111E+00 0.199E-01   -.134E-07 0.485E-05 -.397E-04
   0.140E-02 0.339E+01 0.627E+01   -.186E-02 -.362E+01 -.626E+01   0.503E-03 0.195E+00 -.151E-01   0.293E-06 0.152E-04 -.419E-04
   0.133E+01 -.218E+01 0.669E+01   -.121E+01 0.211E+01 -.671E+01   -.111E+00 0.562E-01 0.239E-01   -.116E-04 0.212E-04 -.598E-04
   0.190E+01 -.219E+01 0.720E+01   -.175E+01 0.205E+01 -.721E+01   -.133E+00 0.111E+00 0.852E-02   -.540E-05 0.176E-04 -.524E-04
   -.244E+01 -.710E+01 0.104E+02   0.292E+01 0.681E+01 -.106E+02   -.473E+00 0.289E+00 0.109E+00   -.399E-04 0.631E-04 -.112E-03
   0.940E+00 -.448E+01 0.862E+01   -.819E+00 0.427E+01 -.866E+01   -.112E+00 0.221E+00 0.314E-01   -.265E-04 0.320E-04 -.769E-04
   -.653E-01 -.100E+02 0.602E+01   0.691E-01 0.940E+01 -.567E+01   -.416E-02 0.637E+00 -.365E+00   -.696E-06 0.120E-03 -.149E-03
   -.909E-02 -.582E+01 0.697E+01   0.887E-02 0.540E+01 -.700E+01   -.392E-03 0.436E+00 0.259E-01   -.375E-06 0.525E-04 -.899E-04
   0.251E+01 -.707E+01 0.102E+02   -.299E+01 0.678E+01 -.103E+02   0.474E+00 0.290E+00 0.104E+00   0.395E-04 0.642E-04 -.112E-03
   -.940E+00 -.444E+01 0.830E+01   0.819E+00 0.423E+01 -.833E+01   0.111E+00 0.221E+00 0.279E-01   0.268E-04 0.320E-04 -.776E-04
   -.647E+00 -.160E+02 -.654E+03   0.762E+00 0.165E+02 0.635E+03   -.117E+00 -.462E+00 0.184E+02   0.730E-05 0.827E-04 -.118E-02
 -----------------------------------------------------------------------------------------------
   0.744E-01 0.645E+00 -.189E+02   0.717E-13 0.377E-12 0.114E-12   -.724E-01 -.648E+00 0.189E+02   -.729E-06 0.270E-04 -.865E-02
 
 
 POSITION                                       TOTAL-FORCE (eV/Angst)
 -----------------------------------------------------------------------------------
     -7.42004     12.74545      7.46473         0.000977      0.006565      0.003877
      0.00549      1.42269      7.46584        -0.023863     -0.021828      0.003091
      2.48619      0.03278      7.46334        -0.002500     -0.001130      0.005640
      2.48560      1.45842      7.47703        -0.004095     -0.018356      0.009044
      4.94150      0.03263      7.46618         0.003094     -0.000702      0.003443
      4.94216      1.45825      7.47891         0.004650     -0.017918      0.006376
     -0.00030     12.74520      7.46601        -0.002895      0.007878      0.003706
      7.42222      1.42243      7.46481         0.023290     -0.020532      0.002359
      2.47804     12.72160      7.47393        -0.000225      0.014809      0.003081
      9.90274      1.39396      7.46271        -0.006022     -0.012161     -0.001151
      4.94976     12.72175      7.47567         0.000649      0.014779      0.000766
     12.37306      1.39407      7.46554         0.004617     -0.012299     -0.004543
     13.61021      2.11377      7.46688        -0.004931      0.005427     -0.002168
     -1.23721      3.52897      7.47764        -0.015265     -0.003885     -0.002227
      1.23736      2.14678      7.47662         0.013052     -0.003689      0.001294
      1.24977      3.56330      7.49876         0.012585     -0.004526     -0.010135
      3.71390      2.17882      7.49677         0.000721     -0.007694      0.002606
      3.71399      3.58830      7.53750        -0.000787     -0.012606     -0.013879
      6.19039      2.14657      7.47713        -0.014241     -0.001346     -0.001480
      6.17802      3.56321      7.49790        -0.014089     -0.002520     -0.013010
      8.66553      2.11361      7.46265         0.006135      0.005740      0.000984
      8.66485      3.52878      7.47107         0.015065     -0.002988      0.002199
     11.13786      2.10411      7.46395         0.000028      0.005429     -0.003614
     11.13783      3.52539      7.46619        -0.000476     -0.008619     -0.004398
     12.37105      4.23709      7.47455         0.003631      0.010030     -0.002876
     -2.48365      5.65711      7.48087         0.009975      0.000547     -0.002517
     -0.00330      4.24469      7.50021         0.028079     -0.003522     -0.002866
     -0.02927      5.65915      7.52663         0.005132      0.019282     -0.003429
      2.49046      4.30824      7.54512        -0.013574      0.009340     -0.005157
      2.45852      5.71108      7.63698         0.014836     -0.020145      0.012026
      4.93754      4.30852      7.54676         0.012563      0.011282     -0.008035
      4.96947      5.71145      7.64094        -0.015249     -0.018088      0.007571
      7.43099      4.24456      7.49482        -0.028519     -0.003594     -0.002169
      7.45677      5.65911      7.51949        -0.004274      0.018700     -0.002315
      9.90458      4.23703      7.46887        -0.002315      0.009949      0.001022
      9.91112      5.65706      7.47371        -0.008647      0.000207      0.003140
     11.13776      6.37030      7.47383         0.000159      0.029582     -0.006870
     -3.71031      7.79347      7.47311         0.000283      0.002274     -0.006111
     -1.25942      6.37154      7.50469        -0.036965      0.022043      0.003503
     -1.26153      7.78967      7.50554         0.010396     -0.002473      0.005803
      1.19026      6.35780      7.57667         0.004320      0.015223     -0.002540
      1.18668      7.78731      7.57898         0.026512      0.006677      0.003822
      6.23765      6.35780      7.57585        -0.003868      0.016150     -0.007522
      6.24126      7.78728      7.57815        -0.026415      0.005784     -0.000856
      8.68688      6.37153      7.49403         0.037373      0.022212      0.010593
      8.68897      7.78962      7.49488        -0.008669     -0.001922      0.012823
     -4.93551      8.50776      7.47303         0.025461     -0.034659      0.003314
     -4.93960      9.92892      7.46833        -0.018420     -0.003237     -0.001649
     -2.48509      8.50772      7.48032        -0.024460     -0.033568     -0.003392
     -2.48093      9.92883      7.47410         0.019654     -0.002400     -0.005492
     -0.03437      8.49955      7.53007         0.008847      0.011913      0.003736
     -0.01429      9.91841      7.50156         0.011341      0.012878      0.005983
      2.43921      8.43918      7.63860         0.016858      0.015743      0.021248
      2.47587      9.85283      7.54875         0.001334      0.033684     -0.003357
      4.98878      8.43872      7.64254        -0.017445      0.013876      0.016877
      4.95208      9.85251      7.55071        -0.002797      0.031572     -0.006754
      7.46189      8.49956      7.52297        -0.008523      0.011397      0.005013
      7.44195      9.91852      7.49622        -0.011678      0.011050      0.007669
     -6.17518     10.63895      7.47043        -0.005502     -0.014034      0.005698
     -6.17583     12.05838      7.46242        -0.017585     -0.027162      0.000990
     -3.71026     10.64241      7.46594         0.000176     -0.040798     -0.007840
     -3.71022     12.06712      7.46404         0.000015     -0.035318      0.000249
     -1.24528     10.63877      7.47698         0.005761     -0.013956      0.002920
     -1.24455     12.05816      7.46670         0.018568     -0.025285     -0.001933
      1.23608     10.59683      7.50040         0.012523     -0.001048     -0.005444
      1.23524     12.02032      7.47579         0.011895      0.010876     -0.001506
      3.71400     10.57656      7.53728        -0.000465      0.003618     -0.013254
      3.71394     11.99792      7.49168        -0.000628      0.012875     -0.000190
      6.19168     10.59686      7.49977        -0.012819     -0.002219     -0.007826
      6.19253     12.02047      7.47617        -0.012451      0.008797     -0.003515
      3.71133      7.08671      8.34264         0.000101     -0.001962     -0.010446
 -----------------------------------------------------------------------------------
    total drift:                                0.001980     -0.003449      0.001865


--------------------------------------------------------------------------------------------------------



  FREE ENERGIE OF THE ION-ELECTRON SYSTEM (eV)
  ---------------------------------------------------
  free  energy   TOTEN  =      -653.87236249 eV

  energy  without entropy=     -653.84359254  energy(sigma->0) =     -653.85797752
 


--------------------------------------------------------------------------------------------------------


    POTLOK:  cpu time    0.3868: real time    0.3897


--------------------------------------------------------------------------------------------------------


 stress matrix after NEB project (eV)
     -1.44880      0.00140     -0.00169
      0.00140     -1.43012      0.01102
     -0.00169      0.01102     -3.51158
  FORCES: max atom, RMS     0.044747    0.022084
  FORCE total and by dimension    0.186086    0.040798
  Stress total and by dimension    4.059025    3.511578


--------------------------------------------------------------------------------------------------------


  
 reached required accuracy - stopping structural energy minimisation
     LOOP+:  cpu time  398.4446: real time  402.4569
    4ORBIT:  cpu time    0.0000: real time    0.0000

 total amount of memory used by VASP MPI-rank0   111486. kBytes
=======================================================================

   base      :      30000. kBytes
   nonlr-proj:       9918. kBytes
   fftplans  :      10852. kBytes
   grid      :      30996. kBytes
   one-center:        186. kBytes
   wavefun   :      29534. kBytes
 
  
  
 General timing and accounting informations for this job:
 ========================================================
  
                  Total CPU time used (sec):      407.773
                            User time (sec):      401.143
                          System time (sec):        6.629
                         Elapsed time (sec):      417.604
  
                   Maximum memory used (kb):      480120.
                   Average memory used (kb):           0.
  
                          Minor page faults:      1022006
                          Major page faults:            0
                 Voluntary context switches:         9479
