  16  16   1   0
  0.4520634E+03  0.2097620E-08  0.1469690E-08  0.2480324E-08  0.3000000E-15
  1.000000000000000E-004
  CAR
 unknown system
      5.00000000    -15.00000000  100     -3.50978928      1.00000000
    -15.000  0.9900E+01  0.9900E+01  0.2000E+01  0.2000E+01
    -14.798  0.0000E+00  0.0000E+00  0.2000E+01  0.2000E+01
    -14.596  0.0000E+00  0.0000E+00  0.2000E+01  0.2000E+01
    -14.394  0.0000E+00  0.0000E+00  0.2000E+01  0.2000E+01
    -14.192  0.0000E+00  0.0000E+00  0.2000E+01  0.2000E+01
    -13.990  0.0000E+00  0.0000E+00  0.2000E+01  0.2000E+01
    -13.788  0.0000E+00  0.0000E+00  0.2000E+01  0.2000E+01
    -13.586  0.0000E+00  0.0000E+00  0.2000E+01  0.2000E+01
    -13.384  0.0000E+00  0.0000E+00  0.2000E+01  0.2000E+01
    -13.182  0.9672E-12  0.0000E+00  0.2000E+01  0.2000E+01
    -12.980  0.3030E+00  0.0000E+00  0.2061E+01  0.2000E+01
    -12.778  0.4647E+01  0.0000E+00  0.3000E+01  0.2000E+01
    -12.576  0.7563E-04  0.0000E+00  0.3000E+01  0.2000E+01
    -12.374  0.0000E+00  0.0000E+00  0.3000E+01  0.2000E+01
    -12.172  0.0000E+00  0.5528E-07  0.3000E+01  0.2000E+01
    -11.970  0.0000E+00  0.2714E+01  0.3000E+01  0.2548E+01
    -11.768  0.0000E+00  0.2236E+01  0.3000E+01  0.3000E+01
    -11.566  0.0000E+00  0.0000E+00  0.3000E+01  0.3000E+01
    -11.364  0.0000E+00  0.0000E+00  0.3000E+01  0.3000E+01
    -11.162  0.0000E+00  0.0000E+00  0.3000E+01  0.3000E+01
    -10.960  0.0000E+00  0.0000E+00  0.3000E+01  0.3000E+01
    -10.758  0.1509E-06  0.0000E+00  0.3000E+01  0.3000E+01
    -10.556  0.3238E+01  0.0000E+00  0.3654E+01  0.3000E+01
    -10.354  0.6661E+01  0.0000E+00  0.5000E+01  0.3000E+01
    -10.152  0.2123E-03  0.0000E+00  0.5000E+01  0.3000E+01
     -9.949  0.0000E+00  0.0000E+00  0.5000E+01  0.3000E+01
     -9.747  0.0000E+00  0.4036E-09  0.5000E+01  0.3000E+01
     -9.545  0.0000E+00  0.1231E+01  0.5000E+01  0.3249E+01
     -9.343  0.0000E+00  0.8477E+01  0.5000E+01  0.4961E+01
     -9.141  0.0000E+00  0.1918E+00  0.5000E+01  0.5000E+01
     -8.939  0.0000E+00  0.0000E+00  0.5000E+01  0.5000E+01
     -8.737  0.0000E+00  0.0000E+00  0.5000E+01  0.5000E+01
     -8.535  0.3985E-10  0.0000E+00  0.5000E+01  0.5000E+01
     -8.333  0.7574E+00  0.0000E+00  0.5153E+01  0.5000E+01
     -8.131  0.4193E+01  0.0000E+00  0.6000E+01  0.5000E+01
     -7.929  0.6749E-05  0.2222E-02  0.6000E+01  0.5000E+01
     -7.727  0.5496E-15  0.4906E+01  0.6000E+01  0.5992E+01
     -7.525  0.3445E-01  0.4133E-01  0.6007E+01  0.6000E+01
     -7.323  0.1460E+02  0.0000E+00  0.8957E+01  0.6000E+01
     -7.121  0.8930E+01  0.0000E+00  0.1076E+02  0.6000E+01
     -6.919  0.2109E+02  0.0000E+00  0.1502E+02  0.6000E+01
     -6.717  0.3574E+02  0.0000E+00  0.2224E+02  0.6000E+01
     -6.515  0.2896E+02  0.1071E-01  0.2809E+02  0.6002E+01
     -6.313  0.2783E+02  0.1011E+02  0.3371E+02  0.8044E+01
     -6.111  0.1718E+02  0.4943E+01  0.3719E+02  0.9043E+01
     -5.909  0.1654E+02  0.9511E+01  0.4053E+02  0.1096E+02
     -5.707  0.3382E+02  0.9426E+01  0.4736E+02  0.1287E+02
     -5.505  0.2456E+02  0.1484E+02  0.5232E+02  0.1587E+02
     -5.303  0.1665E+02  0.1002E+02  0.5568E+02  0.1789E+02
     -5.101  0.1613E+02  0.9139E+01  0.5894E+02  0.1974E+02
     -4.899  0.1833E+02  0.1410E+02  0.6265E+02  0.2259E+02
     -4.697  0.1856E+02  0.1662E+02  0.6640E+02  0.2594E+02
     -4.495  0.1735E+02  0.1452E+02  0.6990E+02  0.2888E+02
     -4.293  0.8833E+01  0.7216E+01  0.7168E+02  0.3033E+02
     -4.091  0.1669E+02  0.2103E+02  0.7506E+02  0.3458E+02
     -3.889  0.9627E+01  0.3069E+02  0.7700E+02  0.4078E+02
     -3.687  0.9571E+01  0.1866E+02  0.7893E+02  0.4455E+02
     -3.485  0.3294E+00  0.1234E+02  0.7900E+02  0.4704E+02
     -3.283  0.4929E+01  0.1911E+02  0.8000E+02  0.5090E+02
     -3.081  0.4913E+01  0.2772E+02  0.8099E+02  0.5650E+02
     -2.879  0.5084E-01  0.2316E+02  0.8100E+02  0.6118E+02
     -2.677  0.1725E+01  0.3757E+02  0.8135E+02  0.6877E+02
     -2.475  0.4173E+01  0.2971E+02  0.8219E+02  0.7477E+02
     -2.273  0.4002E+01  0.2516E+02  0.8300E+02  0.7986E+02
     -2.071  0.2226E-01  0.4091E+01  0.8300E+02  0.8068E+02
     -1.869  0.4927E+01  0.6339E+01  0.8400E+02  0.8196E+02
     -1.667  0.8434E+01  0.1898E+01  0.8570E+02  0.8235E+02
     -1.465  0.1774E+01  0.3259E+01  0.8606E+02  0.8301E+02
     -1.263  0.9567E+01  0.4956E+01  0.8799E+02  0.8401E+02
     -1.061  0.2623E-01  0.4913E+01  0.8800E+02  0.8500E+02
     -0.859  0.0000E+00  0.9693E+01  0.8800E+02  0.8696E+02
     -0.657  0.0000E+00  0.5158E+01  0.8800E+02  0.8800E+02
     -0.455  0.0000E+00  0.8575E-07  0.8800E+02  0.8800E+02
     -0.253  0.0000E+00  0.0000E+00  0.8800E+02  0.8800E+02
     -0.051  0.0000E+00  0.0000E+00  0.8800E+02  0.8800E+02
      0.152  0.0000E+00  0.0000E+00  0.8800E+02  0.8800E+02
      0.354  0.0000E+00  0.0000E+00  0.8800E+02  0.8800E+02
      0.556  0.0000E+00  0.0000E+00  0.8800E+02  0.8800E+02
      0.758  0.0000E+00  0.0000E+00  0.8800E+02  0.8800E+02
      0.960  0.0000E+00  0.0000E+00  0.8800E+02  0.8800E+02
      1.162  0.0000E+00  0.0000E+00  0.8800E+02  0.8800E+02
      1.364  0.0000E+00  0.0000E+00  0.8800E+02  0.8800E+02
      1.566  0.0000E+00  0.0000E+00  0.8800E+02  0.8800E+02
      1.768  0.0000E+00  0.0000E+00  0.8800E+02  0.8800E+02
      1.970  0.0000E+00  0.0000E+00  0.8800E+02  0.8800E+02
      2.172  0.0000E+00  0.0000E+00  0.8800E+02  0.8800E+02
      2.374  0.0000E+00  0.0000E+00  0.8800E+02  0.8800E+02
      2.576  0.0000E+00  0.0000E+00  0.8800E+02  0.8800E+02
      2.778  0.0000E+00  0.0000E+00  0.8800E+02  0.8800E+02
      2.980  0.0000E+00  0.0000E+00  0.8800E+02  0.8800E+02
      3.182  0.0000E+00  0.0000E+00  0.8800E+02  0.8800E+02
      3.384  0.0000E+00  0.0000E+00  0.8800E+02  0.8800E+02
      3.586  0.0000E+00  0.0000E+00  0.8800E+02  0.8800E+02
      3.788  0.0000E+00  0.0000E+00  0.8800E+02  0.8800E+02
      3.990  0.0000E+00  0.0000E+00  0.8800E+02  0.8800E+02
      4.192  0.0000E+00  0.0000E+00  0.8800E+02  0.8800E+02
      4.394  0.0000E+00  0.0000E+00  0.8800E+02  0.8800E+02
      4.596  0.0000E+00  0.0000E+00  0.8800E+02  0.8800E+02
      4.798  0.0000E+00  0.0000E+00  0.8800E+02  0.8800E+02
      5.000  0.0000E+00  0.0000E+00  0.8800E+02  0.8800E+02
      5.00000000    -15.00000000  100     -3.50978928      1.00000000
    -15.000  0.2769E-07  0.3221E-07  0.1841E-08  0.1700E-08  0.2379E-07  0.2537E-07  0.1464E-08  0.1590E-08  0.1918E-09  0.2955E-09  0.4702E-08  0.5722E-08  0.1106E-07  0.1126E-07  0.2014E-08  0.1854E-08  0.1158E-09  0.2105E-09
    -14.798  0.0000E+00  0.0000E+00  0.0000E+00  0.0000E+00  0.0000E+00  0.0000E+00  0.0000E+00  0.0000E+00  0.0000E+00  0.0000E+00  0.0000E+00  0.0000E+00  0.0000E+00  0.0000E+00  0.0000E+00  0.0000E+00  0.0000E+00  0.0000E+00
    -14.596  0.0000E+00  0.0000E+00  0.0000E+00  0.0000E+00  0.0000E+00  0.0000E+00  0.0000E+00  0.0000E+00  0.0000E+00  0.0000E+00  0.0000E+00  0.0000E+00  0.0000E+00  0.0000E+00  0.0000E+00  0.0000E+00  0.0000E+00  0.0000E+00
    -14.394  0.0000E+00  0.0000E+00  0.0000E+00  0.0000E+00  0.0000E+00  0.0000E+00  0.0000E+00  0.0000E+00  0.0000E+00  0.0000E+00  0.0000E+00  0.0000E+00  0.0000E+00  0.0000E+00  0.0000E+00  0.0000E+00  0.0000E+00  0.0000E+00
    -14.192  0.0000E+00  0.0000E+00  0.0000E+00  0.0000E+00  0.0000E+00  0.0000E+00  0.0000E+00  0.0000E+00  0.0000E+00  0.0000E+00  0.0000E+00  0.0000E+00  0.0000E+00  0.0000E+00  0.0000E+00  0.0000E+00  0.0000E+00  0.0000E+00
    -13.990  0.0000E+00  0.0000E+00  0.0000E+00  0.0000E+00  0.0000E+00  0.0000E+00  0.0000E+00  0.0000E+00  0.0000E+00  0.0000E+00  0.0000E+00  0.0000E+00  0.0000E+00  0.0000E+00  0.0000E+00  0.0000E+00  0.0000E+00  0.0000E+00
    -13.788  0.0000E+00  0.0000E+00  0.0000E+00  0.0000E+00  0.0000E+00  0.0000E+00  0.0000E+00  0.0000E+00  0.0000E+00  0.0000E+00  0.0000E+00  0.0000E+00  0.0000E+00  0.0000E+00  0.0000E+00  0.0000E+00  0.0000E+00  0.0000E+00
    -13.586  0.0000E+00  0.0000E+00  0.0000E+00  0.0000E+00  0.0000E+00  0.0000E+00  0.0000E+00  0.0000E+00  0.0000E+00  0.0000E+00  0.0000E+00  0.0000E+00  0.0000E+00  0.0000E+00  0.0000E+00  0.0000E+00  0.0000E+00  0.0000E+00
    -13.384  0.0000E+00  0.0000E+00  0.0000E+00  0.0000E+00  0.0000E+00  0.0000E+00  0.0000E+00  0.0000E+00  0.0000E+00  0.0000E+00  0.0000E+00  0.0000E+00  0.0000E+00  0.0000E+00  0.0000E+00  0.0000E+00  0.0000E+00  0.0000E+00
    -13.182  0.9865E-20  0.0000E+00  0.6375E-21  0.0000E+00  0.8838E-20  0.0000E+00  0.4527E-22  0.0000E+00  0.7670E-22  0.0000E+00  0.1730E-20  0.0000E+00  0.7247E-20  0.0000E+00  0.1092E-21  0.0000E+00  0.1569E-21  0.0000E+00
    -12.980  0.3090E-08  0.0000E+00  0.1997E-09  0.0000E+00  0.2768E-08  0.0000E+00  0.1418E-10  0.0000E+00  0.2403E-10  0.0000E+00  0.5420E-09  0.0000E+00  0.2270E-08  0.0000E+00  0.3421E-10  0.0000E+00  0.4916E-10  0.0000E+00
    -12.778  0.4739E-07  0.0000E+00  0.3063E-08  0.0000E+00  0.4246E-07  0.0000E+00  0.2175E-09  0.0000E+00  0.3685E-09  0.0000E+00  0.8312E-08  0.0000E+00  0.3482E-07  0.0000E+00  0.5246E-09  0.0000E+00  0.7539E-09  0.0000E+00
    -12.576  0.7713E-12  0.0000E+00  0.4985E-13  0.0000E+00  0.6910E-12  0.0000E+00  0.3539E-14  0.0000E+00  0.5997E-14  0.0000E+00  0.1353E-12  0.0000E+00  0.5666E-12  0.0000E+00  0.8538E-14  0.0000E+00  0.1227E-13  0.0000E+00
    -12.374  0.0000E+00  0.0000E+00  0.0000E+00  0.0000E+00  0.0000E+00  0.0000E+00  0.0000E+00  0.0000E+00  0.0000E+00  0.0000E+00  0.0000E+00  0.0000E+00  0.0000E+00  0.0000E+00  0.0000E+00  0.0000E+00  0.0000E+00  0.0000E+00
    -12.172  0.0000E+00  0.2590E-15  0.0000E+00  0.9995E-16  0.0000E+00  0.3020E-15  0.0000E+00  0.7801E-18  0.0000E+00  0.3796E-17  0.0000E+00  0.1886E-15  0.0000E+00  0.1232E-15  0.0000E+00  0.4458E-18  0.0000E+00  0.7053E-17
    -11.970  0.0000E+00  0.1272E-07  0.0000E+00  0.4907E-08  0.0000E+00  0.1483E-07  0.0000E+00  0.3830E-10  0.0000E+00  0.1863E-09  0.0000E+00  0.9258E-08  0.0000E+00  0.6049E-08  0.0000E+00  0.2189E-10  0.0000E+00  0.3462E-09
    -11.768  0.0000E+00  0.1048E-07  0.0000E+00  0.4044E-08  0.0000E+00  0.1222E-07  0.0000E+00  0.3156E-10  0.0000E+00  0.1536E-09  0.0000E+00  0.7630E-08  0.0000E+00  0.4985E-08  0.0000E+00  0.1804E-10  0.0000E+00  0.2853E-09
    -11.566  0.0000E+00  0.0000E+00  0.0000E+00  0.0000E+00  0.0000E+00  0.0000E+00  0.0000E+00  0.0000E+00  0.0000E+00  0.0000E+00  0.0000E+00  0.0000E+00  0.0000E+00  0.0000E+00  0.0000E+00  0.0000E+00  0.0000E+00  0.0000E+00
    -11.364  0.0000E+00  0.0000E+00  0.0000E+00  0.0000E+00  0.0000E+00  0.0000E+00  0.0000E+00  0.0000E+00  0.0000E+00  0.0000E+00  0.0000E+00  0.0000E+00  0.0000E+00  0.0000E+00  0.0000E+00  0.0000E+00  0.0000E+00  0.0000E+00
    -11.162  0.0000E+00  0.0000E+00  0.0000E+00  0.0000E+00  0.0000E+00  0.0000E+00  0.0000E+00  0.0000E+00  0.0000E+00  0.0000E+00  0.0000E+00  0.0000E+00  0.0000E+00  0.0000E+00  0.0000E+00  0.0000E+00  0.0000E+00  0.0000E+00
    -10.960  0.0000E+00  0.0000E+00  0.0000E+00  0.0000E+00  0.0000E+00  0.0000E+00  0.0000E+00  0.0000E+00  0.0000E+00  0.0000E+00  0.0000E+00  0.0000E+00  0.0000E+00  0.0000E+00  0.0000E+00  0.0000E+00  0.0000E+00  0.0000E+00
    -10.758  0.7044E-15  0.0000E+00  0.1699E-15  0.0000E+00  0.3599E-15  0.0000E+00  0.7212E-15  0.0000E+00  0.1193E-15  0.0000E+00  0.9819E-15  0.0000E+00  0.9204E-15  0.0000E+00  0.3541E-14  0.0000E+00  0.3439E-15  0.0000E+00
    -10.556  0.3351E-06  0.0000E+00  0.1548E-07  0.0000E+00  0.1039E-06  0.0000E+00  0.2011E-07  0.0000E+00  0.6912E-08  0.0000E+00  0.5932E-07  0.0000E+00  0.1297E-06  0.0000E+00  0.9554E-07  0.0000E+00  0.7939E-08  0.0000E+00
    -10.354  0.8354E-05  0.0000E+00  0.3153E-06  0.0000E+00  0.2518E-05  0.0000E+00  0.1523E-06  0.0000E+00  0.1185E-06  0.0000E+00  0.1038E-05  0.0000E+00  0.2899E-05  0.0000E+00  0.6651E-06  0.0000E+00  0.2977E-07  0.0000E+00
    -10.152  0.3716E-09  0.0000E+00  0.1395E-10  0.0000E+00  0.1119E-09  0.0000E+00  0.6380E-11  0.0000E+00  0.5210E-11  0.0000E+00  0.4568E-10  0.0000E+00  0.1286E-09  0.0000E+00  0.2764E-10  0.0000E+00  0.1133E-11  0.0000E+00
     -9.949  0.0000E+00  0.0000E+00  0.0000E+00  0.0000E+00  0.0000E+00  0.0000E+00  0.0000E+00  0.0000E+00  0.0000E+00  0.0000E+00  0.0000E+00  0.0000E+00  0.0000E+00  0.0000E+00  0.0000E+00  0.0000E+00  0.0000E+00  0.0000E+00
     -9.747  0.0000E+00  0.7947E-15  0.0000E+00  0.2828E-16  0.0000E+00  0.2140E-15  0.0000E+00  0.9884E-17  0.0000E+00  0.6674E-17  0.0000E+00  0.7660E-16  0.0000E+00  0.8475E-16  0.0000E+00  0.3428E-16  0.0000E+00  0.8580E-17
     -9.545  0.0000E+00  0.2424E-05  0.0000E+00  0.8626E-07  0.0000E+00  0.6528E-06  0.0000E+00  0.3015E-07  0.0000E+00  0.2036E-07  0.0000E+00  0.2336E-06  0.0000E+00  0.2585E-06  0.0000E+00  0.1046E-06  0.0000E+00  0.2617E-07
     -9.343  0.0000E+00  0.7424E-05  0.0000E+00  0.2698E-06  0.0000E+00  0.2006E-05  0.0000E+00  0.1133E-06  0.0000E+00  0.6162E-07  0.0000E+00  0.7344E-06  0.0000E+00  0.8044E-06  0.0000E+00  0.3544E-06  0.0000E+00  0.8728E-07
     -9.141  0.0000E+00  0.4065E-08  0.0000E+00  0.3687E-09  0.0000E+00  0.1366E-08  0.0000E+00  0.8971E-09  0.0000E+00  0.4829E-11  0.0000E+00  0.1151E-08  0.0000E+00  0.9435E-09  0.0000E+00  0.1553E-08  0.0000E+00  0.3312E-09
     -8.939  0.0000E+00  0.0000E+00  0.0000E+00  0.0000E+00  0.0000E+00  0.0000E+00  0.0000E+00  0.0000E+00  0.0000E+00  0.0000E+00  0.0000E+00  0.0000E+00  0.0000E+00  0.0000E+00  0.0000E+00  0.0000E+00  0.0000E+00  0.0000E+00
     -8.737  0.0000E+00  0.0000E+00  0.0000E+00  0.0000E+00  0.0000E+00  0.0000E+00  0.0000E+00  0.0000E+00  0.0000E+00  0.0000E+00  0.0000E+00  0.0000E+00  0.0000E+00  0.0000E+00  0.0000E+00  0.0000E+00  0.0000E+00  0.0000E+00
     -8.535  0.1829E-13  0.0000E+00  0.2193E-14  0.0000E+00  0.2254E-16  0.0000E+00  0.9031E-15  0.0000E+00  0.7194E-14  0.0000E+00  0.2597E-17  0.0000E+00  0.9417E-14  0.0000E+00  0.2587E-15  0.0000E+00  0.2517E-14  0.0000E+00
     -8.333  0.3475E-03  0.0000E+00  0.4168E-04  0.0000E+00  0.4284E-06  0.0000E+00  0.1716E-04  0.0000E+00  0.1367E-03  0.0000E+00  0.4936E-07  0.0000E+00  0.1790E-03  0.0000E+00  0.4917E-05  0.0000E+00  0.4784E-04  0.0000E+00
     -8.131  0.1924E-02  0.0000E+00  0.2307E-03  0.0000E+00  0.2372E-05  0.0000E+00  0.9500E-04  0.0000E+00  0.7568E-03  0.0000E+00  0.2732E-06  0.0000E+00  0.9907E-03  0.0000E+00  0.2722E-04  0.0000E+00  0.2648E-03  0.0000E+00
     -7.929  0.3097E-08  0.1352E-05  0.3714E-09  0.1872E-06  0.3818E-11  0.4038E-08  0.1529E-09  0.8844E-07  0.1218E-08  0.2122E-06  0.4398E-12  0.7918E-08  0.1595E-08  0.1629E-06  0.4381E-10  0.2161E-08  0.4263E-09  0.9256E-07
     -7.727  0.0000E+00  0.2984E-02  0.0000E+00  0.4134E-03  0.0000E+00  0.8915E-05  0.0000E+00  0.1953E-03  0.0000E+00  0.4687E-03  0.1016E-19  0.1748E-04  0.5421E-19  0.3597E-03  0.3473E-19  0.4772E-05  0.0000E+00  0.2044E-03
     -7.525  0.5140E-05  0.2514E-04  0.4166E-06  0.3482E-05  0.1293E-07  0.7510E-07  0.9027E-07  0.1645E-05  0.1487E-05  0.3948E-05  0.1363E-05  0.1473E-06  0.9028E-05  0.3030E-05  0.1996E-05  0.4020E-07  0.3745E-05  0.1722E-05
     -7.323  0.5172E-02  0.0000E+00  0.5626E-03  0.0000E+00  0.2519E-04  0.0000E+00  0.1359E-03  0.0000E+00  0.2626E-02  0.0000E+00  0.1874E-02  0.0000E+00  0.1189E-01  0.0000E+00  0.5345E-03  0.0000E+00  0.4634E-02  0.0000E+00
     -7.121  0.7638E-02  0.0000E+00  0.1037E-03  0.0000E+00  0.6848E-05  0.0000E+00  0.2801E-03  0.0000E+00  0.2566E-02  0.0000E+00  0.3600E-02  0.0000E+00  0.5682E-01  0.0000E+00  0.2964E-02  0.0000E+00  0.7841E-02  0.0000E+00
     -6.919  0.7086E-01  0.0000E+00  0.7850E-02  0.0000E+00  0.3620E-03  0.0000E+00  0.1750E-02  0.0000E+00  0.7433E-01  0.0000E+00  0.1512E+00  0.0000E+00  0.1563E+01  0.0000E+00  0.3700E-01  0.0000E+00  0.9561E-01  0.0000E+00
     -6.717  0.3509E-01  0.0000E+00  0.5931E-02  0.0000E+00  0.1417E-03  0.0000E+00  0.1136E-02  0.0000E+00  0.5620E+00  0.0000E+00  0.7235E+00  0.0000E+00  0.1245E+01  0.0000E+00  0.2837E+01  0.0000E+00  0.5044E+00  0.0000E+00
     -6.515  0.1913E-01  0.2711E-04  0.1965E-02  0.1849E-05  0.3483E-03  0.3034E-07  0.5661E-03  0.9546E-06  0.1443E+00  0.1471E-05  0.1511E+00  0.1104E-06  0.9047E+00  0.2624E-05  0.8823E+00  0.1053E-07  0.6619E+00  0.2918E-05
     -6.313  0.3488E-01  0.1576E-01  0.3073E-02  0.1267E-02  0.2730E-02  0.4182E-04  0.1912E-03  0.5476E-03  0.1245E+00  0.1539E-02  0.1419E+01  0.2140E-03  0.5833E+00  0.1923E-02  0.5184E-01  0.1535E-03  0.1212E+01  0.2434E-02
     -6.111  0.1977E-01  0.9815E-02  0.6615E-03  0.5505E-03  0.2322E-03  0.1109E-04  0.2455E-02  0.4671E-03  0.1497E+01  0.1826E-02  0.8664E-01  0.1166E-03  0.1347E-01  0.1658E-02  0.2210E+00  0.4784E-04  0.5693E-01  0.2281E-02
     -5.909  0.1280E-01  0.1755E-01  0.5434E-03  0.7706E-04  0.1507E-03  0.5307E-03  0.3250E-03  0.7947E-04  0.5070E-01  0.4600E-03  0.6412E-01  0.1968E-02  0.1105E-01  0.4803E-03  0.1689E-01  0.3224E-03  0.2117E-01  0.2984E-02
     -5.707  0.4945E+00  0.5510E-01  0.1028E-01  0.1694E-04  0.4553E-02  0.1175E-03  0.2960E-02  0.1915E-02  0.6814E+00  0.2108E-02  0.1147E+01  0.2490E-03  0.1515E+00  0.9209E-02  0.2597E+00  0.8826E-03  0.7185E+00  0.5683E-02
     -5.505  0.1309E+00  0.1981E+00  0.5242E-02  0.2245E-02  0.8613E-03  0.8213E-03  0.4061E-02  0.3865E-02  0.9515E+00  0.6886E-02  0.6658E+00  0.1107E-02  0.6173E-01  0.2055E-01  0.2924E+00  0.1729E-02  0.1175E+01  0.2823E-01
     -5.303  0.6245E-01  0.2739E+00  0.1383E-02  0.2438E-01  0.5807E-03  0.2682E-03  0.5484E-03  0.4427E-02  0.2321E+00  0.4021E-01  0.1236E+00  0.1132E-01  0.1206E-01  0.2250E-01  0.2406E-01  0.4654E-03  0.5990E-01  0.3267E-01
     -5.101  0.1067E-01  0.7852E-01  0.5331E-02  0.6878E-02  0.2400E-03  0.3903E-04  0.5812E-03  0.1338E-02  0.3416E-01  0.1042E-01  0.1818E-01  0.3271E-02  0.9210E-04  0.6613E-02  0.7343E-03  0.1119E-03  0.1272E-01  0.8169E-02
     -4.899  0.4801E-01  0.3089E-01  0.2736E-02  0.2660E-01  0.8065E-03  0.1382E-03  0.3478E-03  0.4108E-03  0.3355E-01  0.6605E-01  0.1845E-01  0.1795E-01  0.2147E-03  0.2362E-02  0.2811E-02  0.1135E-02  0.9248E-02  0.9033E-02
     -4.697  0.3556E-01  0.6151E-01  0.1842E-01  0.8735E-02  0.8858E-04  0.4484E-03  0.2332E-02  0.6322E-03  0.1169E+00  0.3567E-01  0.4621E-02  0.7466E-02  0.2807E-03  0.7374E-02  0.2067E-02  0.6504E-03  0.9454E-02  0.1068E-01
     -4.495  0.3314E-01  0.1152E-02  0.1490E-01  0.5067E-02  0.5931E-03  0.1437E-03  0.6700E-03  0.6212E-03  0.4248E-01  0.7749E-02  0.4511E-02  0.4171E-02  0.7444E-03  0.6138E-03  0.1216E-02  0.1085E-02  0.7803E-02  0.7017E-02
     -4.293  0.8975E-01  0.1996E-02  0.2310E-02  0.1112E-02  0.3771E-04  0.3510E-04  0.7538E-03  0.2095E-03  0.1519E-02  0.3047E-02  0.2758E-02  0.1701E-02  0.2666E-02  0.3865E-03  0.1613E-03  0.8591E-03  0.4232E-02  0.4564E-02
     -4.091  0.4902E-01  0.3733E-01  0.2100E-01  0.2901E-02  0.3612E-03  0.3364E-03  0.5729E-03  0.7785E-03  0.1446E-01  0.2169E-01  0.3474E-02  0.5458E-01  0.1733E-02  0.1544E-01  0.2445E-03  0.4563E-02  0.4834E-02  0.1476E-01
     -3.889  0.1116E-01  0.1697E-01  0.6024E-02  0.3452E-02  0.4411E-05  0.1273E-01  0.2441E-03  0.5553E-02  0.4012E-02  0.7238E+00  0.6870E-03  0.1580E+01  0.4278E-03  0.1946E+00  0.6766E-04  0.3169E+00  0.1267E-02  0.1251E+00
     -3.687  0.3543E-01  0.4312E-01  0.2548E-01  0.5853E-02  0.3337E-02  0.1175E-02  0.1750E-02  0.4337E-02  0.5602E-02  0.1119E+01  0.7932E-02  0.2238E+00  0.8915E-04  0.2051E-01  0.6745E-03  0.6246E+00  0.6998E-04  0.7225E+00
     -3.485  0.4810E-03  0.3159E-01  0.1009E-02  0.1747E-01  0.1007E-03  0.1871E-02  0.5750E-04  0.2110E-02  0.1521E-03  0.1872E+00  0.3414E-04  0.2653E+00  0.7638E-05  0.6673E-01  0.3871E-04  0.5389E-01  0.9191E-05  0.3910E+00
     -3.283  0.2380E+00  0.6480E-01  0.6735E-04  0.1348E-01  0.4555E-03  0.1266E-02  0.1641E-01  0.1488E-02  0.1928E-02  0.3684E+00  0.2883E-03  0.2861E+00  0.5142E-02  0.2613E+00  0.3891E-05  0.4430E+00  0.5025E-02  0.1290E+00
     -3.081  0.2529E-01  0.5398E-01  0.2532E-04  0.9698E-02  0.9625E-03  0.1281E-02  0.5845E-03  0.1509E-02  0.5426E-03  0.7019E-01  0.4665E-03  0.2648E+00  0.6362E-03  0.1272E+01  0.1738E-06  0.4801E+00  0.9039E-03  0.9489E-01
     -2.879  0.2546E-03  0.7024E-01  0.2606E-06  0.7901E-02  0.9977E-05  0.4093E-02  0.5522E-05  0.2484E-02  0.5569E-05  0.1430E+00  0.4833E-05  0.2023E+00  0.6434E-05  0.1042E+01  0.1675E-08  0.1755E+01  0.9216E-05  0.1984E+00
     -2.677  0.3315E-01  0.3420E-01  0.2013E-01  0.6196E-02  0.5345E-02  0.4877E-02  0.1953E-04  0.4099E-02  0.1492E-03  0.3030E+00  0.7522E-03  0.1135E+01  0.8587E-03  0.6971E+00  0.2318E-03  0.5507E+00  0.7592E-02  0.1559E+01
     -2.475  0.6243E-01  0.1167E+00  0.3865E-01  0.2181E-01  0.1125E-01  0.2990E-02  0.6396E-03  0.1891E-01  0.4063E-03  0.3984E+00  0.1933E-02  0.2693E+00  0.1622E-02  0.2455E+00  0.5196E-03  0.1145E+00  0.1420E-01  0.5130E+00
     -2.273  0.1914E-02  0.3790E-01  0.4280E-02  0.1994E-01  0.5298E-02  0.1287E-02  0.2546E-02  0.8732E-02  0.5380E-03  0.7119E+00  0.2221E-02  0.4203E-01  0.7037E-04  0.4975E+00  0.3638E-03  0.1063E+00  0.2038E-04  0.3153E+00
     -2.071  0.3314E-04  0.7418E-03  0.9158E-06  0.2154E-02  0.3056E-04  0.1089E-04  0.3895E-03  0.1357E-02  0.1519E-04  0.4466E-01  0.4778E-05  0.1793E-02  0.4684E-05  0.1520E-01  0.2212E-05  0.3387E-02  0.3742E-05  0.1481E-01
     -1.869  0.7341E-02  0.2515E-01  0.2488E-03  0.9360E-02  0.6779E-02  0.6624E-02  0.8616E-01  0.3011E-02  0.3359E-02  0.4872E-01  0.1058E-02  0.1958E-01  0.1036E-02  0.1339E-01  0.4892E-03  0.9529E-02  0.8282E-03  0.9311E-02
     -1.667  0.1457E-01  0.2845E-01  0.8039E-01  0.2208E-01  0.7258E-01  0.4236E-02  0.1990E-01  0.9031E-03  0.1795E-03  0.1002E-01  0.2741E-02  0.1687E-02  0.5421E-03  0.7621E-02  0.3436E-03  0.7708E-03  0.1627E-02  0.5295E-01
     -1.465  0.2286E-03  0.5167E-01  0.1099E-01  0.4086E-01  0.2520E-01  0.7517E-02  0.3947E-02  0.1884E-02  0.1050E-04  0.1593E-01  0.5520E-03  0.1890E-02  0.9052E-04  0.1344E-01  0.1386E-03  0.7946E-03  0.4223E-03  0.9875E-01
     -1.263  0.8131E-02  0.7049E-02  0.4669E-01  0.9943E-02  0.1541E+00  0.5562E-02  0.2887E-01  0.5846E-01  0.1561E-03  0.2129E-02  0.1529E-02  0.4433E-02  0.4723E-03  0.1096E-01  0.1099E-03  0.1356E-02  0.4681E-03  0.1577E-02
     -1.061  0.3853E-04  0.5794E-02  0.2452E-03  0.4141E-01  0.3449E-03  0.5711E-01  0.4679E-04  0.1890E-01  0.5149E-07  0.1130E-02  0.3993E-05  0.1311E-01  0.2480E-05  0.1255E-04  0.5678E-06  0.5051E-02  0.4309E-06  0.1061E-02
     -0.859  0.0000E+00  0.1079E-01  0.0000E+00  0.2372E-01  0.0000E+00  0.4936E-01  0.0000E+00  0.3843E-01  0.0000E+00  0.2009E-02  0.0000E+00  0.7271E-02  0.0000E+00  0.1284E-02  0.0000E+00  0.2548E-02  0.0000E+00  0.5755E-02
     -0.657  0.0000E+00  0.7301E-03  0.0000E+00  0.1121E-01  0.0000E+00  0.4869E-01  0.0000E+00  0.3506E-02  0.0000E+00  0.5899E-03  0.0000E+00  0.5773E-02  0.0000E+00  0.1079E-02  0.0000E+00  0.1808E-02  0.0000E+00  0.2755E-02
     -0.455  0.0000E+00  0.1778E-10  0.0000E+00  0.3102E-09  0.0000E+00  0.8143E-09  0.0000E+00  0.1417E-10  0.0000E+00  0.1532E-10  0.0000E+00  0.8946E-10  0.0000E+00  0.2722E-10  0.0000E+00  0.6788E-11  0.0000E+00  0.1438E-12
     -0.253  0.0000E+00  0.0000E+00  0.0000E+00  0.0000E+00  0.0000E+00  0.0000E+00  0.0000E+00  0.0000E+00  0.0000E+00  0.0000E+00  0.0000E+00  0.0000E+00  0.0000E+00  0.0000E+00  0.0000E+00  0.0000E+00  0.0000E+00  0.0000E+00
     -0.051  0.0000E+00  0.0000E+00  0.0000E+00  0.0000E+00  0.0000E+00  0.0000E+00  0.0000E+00  0.0000E+00  0.0000E+00  0.0000E+00  0.0000E+00  0.0000E+00  0.0000E+00  0.0000E+00  0.0000E+00  0.0000E+00  0.0000E+00  0.0000E+00
      0.152  0.0000E+00  0.0000E+00  0.0000E+00  0.0000E+00  0.0000E+00  0.0000E+00  0.0000E+00  0.0000E+00  0.0000E+00  0.0000E+00  0.0000E+00  0.0000E+00  0.0000E+00  0.0000E+00  0.0000E+00  0.0000E+00  0.0000E+00  0.0000E+00
      0.354  0.0000E+00  0.0000E+00  0.0000E+00  0.0000E+00  0.0000E+00  0.0000E+00  0.0000E+00  0.0000E+00  0.0000E+00  0.0000E+00  0.0000E+00  0.0000E+00  0.0000E+00  0.0000E+00  0.0000E+00  0.0000E+00  0.0000E+00  0.0000E+00
      0.556  0.0000E+00  0.0000E+00  0.0000E+00  0.0000E+00  0.0000E+00  0.0000E+00  0.0000E+00  0.0000E+00  0.0000E+00  0.0000E+00  0.0000E+00  0.0000E+00  0.0000E+00  0.0000E+00  0.0000E+00  0.0000E+00  0.0000E+00  0.0000E+00
      0.758  0.0000E+00  0.0000E+00  0.0000E+00  0.0000E+00  0.0000E+00  0.0000E+00  0.0000E+00  0.0000E+00  0.0000E+00  0.0000E+00  0.0000E+00  0.0000E+00  0.0000E+00  0.0000E+00  0.0000E+00  0.0000E+00  0.0000E+00  0.0000E+00
      0.960  0.0000E+00  0.0000E+00  0.0000E+00  0.0000E+00  0.0000E+00  0.0000E+00  0.0000E+00  0.0000E+00  0.0000E+00  0.0000E+00  0.0000E+00  0.0000E+00  0.0000E+00  0.0000E+00  0.0000E+00  0.0000E+00  0.0000E+00  0.0000E+00
      1.162  0.0000E+00  0.0000E+00  0.0000E+00  0.0000E+00  0.0000E+00  0.0000E+00  0.0000E+00  0.0000E+00  0.0000E+00  0.0000E+00  0.0000E+00  0.0000E+00  0.0000E+00  0.0000E+00  0.0000E+00  0.0000E+00  0.0000E+00  0.0000E+00
      1.364  0.0000E+00  0.0000E+00  0.0000E+00  0.0000E+00  0.0000E+00  0.0000E+00  0.0000E+00  0.0000E+00  0.0000E+00  0.0000E+00  0.0000E+00  0.0000E+00  0.0000E+00  0.0000E+00  0.0000E+00  0.0000E+00  0.0000E+00  0.0000E+00
      1.566  0.0000E+00  0.0000E+00  0.0000E+00  0.0000E+00  0.0000E+00  0.0000E+00  0.0000E+00  0.0000E+00  0.0000E+00  0.0000E+00  0.0000E+00  0.0000E+00  0.0000E+00  0.0000E+00  0.0000E+00  0.0000E+00  0.0000E+00  0.0000E+00
      1.768  0.0000E+00  0.0000E+00  0.0000E+00  0.0000E+00  0.0000E+00  0.0000E+00  0.0000E+00  0.0000E+00  0.0000E+00  0.0000E+00  0.0000E+00  0.0000E+00  0.0000E+00  0.0000E+00  0.0000E+00  0.0000E+00  0.0000E+00  0.0000E+00
      1.970  0.0000E+00  0.0000E+00  0.0000E+00  0.0000E+00  0.0000E+00  0.0000E+00  0.0000E+00  0.0000E+00  0.0000E+00  0.0000E+00  0.0000E+00  0.0000E+00  0.0000E+00  0.0000E+00  0.0000E+00  0.0000E+00  0.0000E+00  0.0000E+00
      2.172  0.0000E+00  0.0000E+00  0.0000E+00  0.0000E+00  0.0000E+00  0.0000E+00  0.0000E+00  0.0000E+00  0.0000E+00  0.0000E+00  0.0000E+00  0.0000E+00  0.0000E+00  0.0000E+00  0.0000E+00  0.0000E+00  0.0000E+00  0.0000E+00
      2.374  0.0000E+00  0.0000E+00  0.0000E+00  0.0000E+00  0.0000E+00  0.0000E+00  0.0000E+00  0.0000E+00  0.0000E+00  0.0000E+00  0.0000E+00  0.0000E+00  0.0000E+00  0.0000E+00  0.0000E+00  0.0000E+00  0.0000E+00  0.0000E+00
      2.576  0.0000E+00  0.0000E+00  0.0000E+00  0.0000E+00  0.0000E+00  0.0000E+00  0.0000E+00  0.0000E+00  0.0000E+00  0.0000E+00  0.0000E+00  0.0000E+00  0.0000E+00  0.0000E+00  0.0000E+00  0.0000E+00  0.0000E+00  0.0000E+00
      2.778  0.0000E+00  0.0000E+00  0.0000E+00  0.0000E+00  0.0000E+00  0.0000E+00  0.0000E+00  0.0000E+00  0.0000E+00  0.0000E+00  0.0000E+00  0.0000E+00  0.0000E+00  0.0000E+00  0.0000E+00  0.0000E+00  0.0000E+00  0.0000E+00
      2.980  0.0000E+00  0.0000E+00  0.0000E+00  0.0000E+00  0.0000E+00  0.0000E+00  0.0000E+00  0.0000E+00  0.0000E+00  0.0000E+00  0.0000E+00  0.0000E+00  0.0000E+00  0.0000E+00  0.0000E+00  0.0000E+00  0.0000E+00  0.0000E+00
      3.182  0.0000E+00  0.0000E+00  0.0000E+00  0.0000E+00  0.0000E+00  0.0000E+00  0.0000E+00  0.0000E+00  0.0000E+00  0.0000E+00  0.0000E+00  0.0000E+00  0.0000E+00  0.0000E+00  0.0000E+00  0.0000E+00  0.0000E+00  0.0000E+00
      3.384  0.0000E+00  0.0000E+00  0.0000E+00  0.0000E+00  0.0000E+00  0.0000E+00  0.0000E+00  0.0000E+00  0.0000E+00  0.0000E+00  0.0000E+00  0.0000E+00  0.0000E+00  0.0000E+00  0.0000E+00  0.0000E+00  0.0000E+00  0.0000E+00
      3.586  0.0000E+00  0.0000E+00  0.0000E+00  0.0000E+00  0.0000E+00  0.0000E+00  0.0000E+00  0.0000E+00  0.0000E+00  0.0000E+00  0.0000E+00  0.0000E+00  0.0000E+00  0.0000E+00  0.0000E+00  0.0000E+00  0.0000E+00  0.0000E+00
      3.788  0.0000E+00  0.0000E+00  0.0000E+00  0.0000E+00  0.0000E+00  0.0000E+00  0.0000E+00  0.0000E+00  0.0000E+00  0.0000E+00  0.0000E+00  0.0000E+00  0.0000E+00  0.0000E+00  0.0000E+00  0.0000E+00  0.0000E+00  0.0000E+00
      3.990  0.0000E+00  0.0000E+00  0.0000E+00  0.0000E+00  0.0000E+00  0.0000E+00  0.0000E+00  0.0000E+00  0.0000E+00  0.0000E+00  0.0000E+00  0.0000E+00  0.0000E+00  0.0000E+00  0.0000E+00  0.0000E+00  0.0000E+00  0.0000E+00
      4.192  0.0000E+00  0.0000E+00  0.0000E+00  0.0000E+00  0.0000E+00  0.0000E+00  0.0000E+00  0.0000E+00  0.0000E+00  0.0000E+00  0.0000E+00  0.0000E+00  0.0000E+00  0.0000E+00  0.0000E+00  0.0000E+00  0.0000E+00  0.0000E+00
      4.394  0.0000E+00  0.0000E+00  0.0000E+00  0.0000E+00  0.0000E+00  0.0000E+00  0.0000E+00  0.0000E+00  0.0000E+00  0.0000E+00  0.0000E+00  0.0000E+00  0.0000E+00  0.0000E+00  0.0000E+00  0.0000E+00  0.0000E+00  0.0000E+00
      4.596  0.0000E+00  0.0000E+00  0.0000E+00  0.0000E+00  0.0000E+00  0.0000E+00  0.0000E+00  0.0000E+00  0.0000E+00  0.0000E+00  0.0000E+00  0.0000E+00  0.0000E+00  0.0000E+00  0.0000E+00  0.0000E+00  0.0000E+00  0.0000E+00
      4.798  0.0000E+00  0.0000E+00  0.0000E+00  0.0000E+00  0.0000E+00  0.0000E+00  0.0000E+00  0.0000E+00  0.0000E+00  0.0000E+00  0.0000E+00  0.0000E+00  0.0000E+00  0.0000E+00  0.0000E+00  0.0000E+00  0.0000E+00  0.0000E+00
      5.000  0.0000E+00  0.0000E+00  0.0000E+00  0.0000E+00  0.0000E+00  0.0000E+00  0.0000E+00  0.0000E+00  0.0000E+00  0.0000E+00  0.0000E+00  0.0000E+00  0.0000E+00  0.0000E+00  0.0000E+00  0.0000E+00  0.0000E+00  0.0000E+00
      5.00000000    -15.00000000  100     -3.50978928      1.00000000
    -15.000  0.7497E-11  0.1160E-10  0.3165E-10  0.4094E-10  0.6523E-10  0.1546E-09  0.3536E-10  0.6181E-10  0.1195E-09  0.6454E-10  0.2500E-09  0.1073E-09  0.2089E-09  0.3125E-10  0.1144E-09  0.1912E-09  0.5002E-10  0.3233E-10
    -14.798  0.0000E+00  0.0000E+00  0.0000E+00  0.0000E+00  0.0000E+00  0.0000E+00  0.0000E+00  0.0000E+00  0.0000E+00  0.0000E+00  0.0000E+00  0.0000E+00  0.0000E+00  0.0000E+00  0.0000E+00  0.0000E+00  0.0000E+00  0.0000E+00
    -14.596  0.0000E+00  0.0000E+00  0.0000E+00  0.0000E+00  0.0000E+00  0.0000E+00  0.0000E+00  0.0000E+00  0.0000E+00  0.0000E+00  0.0000E+00  0.0000E+00  0.0000E+00  0.0000E+00  0.0000E+00  0.0000E+00  0.0000E+00  0.0000E+00