<?xml version="1.0" encoding="ISO-8859-1"?>
<modeling>
 <generator>
  <i name="program" type="string">vasp </i>
  <i name="version" type="string">6.3.2  </i>
  <i name="subversion" type="string">27Jun22 (build Oct 17 2023 12:44:17) gamma-only                       parallel </i>
  <i name="platform" type="string">LinuxIFC </i>
  <i name="date" type="string">2024 02 18 </i>
  <i name="time" type="string">18:35:18 </i>
 </generator>
 <incar>
  <i type="int" name="ISTART">     0</i>
  <i type="string" name="ALGO">Normal</i>
  <i type="int" name="ISPIN">     2</i>
  <i name="AMIX">      0.05000000</i>
  <i name="BMIX">      0.00010000</i>
  <i type="int" name="NELM">   100</i>
  <i type="int" name="IBRION">    -1</i>
  <i name="EDIFF">      0.00010000</i>
  <i name="EDIFFG">     -0.03000000</i>
  <i type="int" name="NSW">     0</i>
  <i type="int" name="ISIF">     2</i>
  <i type="int" name="ISYM">     0</i>
  <i name="ENCUT">    400.00000000</i>
  <i name="POTIM">      0.30000000</i>
  <i type="int" name="NEDOS">   100</i>
  <i type="string" name="LREAL">Auto</i>
  <i name="EMIN">    -15.00000000</i>
  <i name="EMAX">      5.00000000</i>
  <i type="int" name="ISMEAR">     0</i>
  <i name="SIGMA">      0.05000000</i>
  <i type="logical" name="LWAVE"> F  </i>
  <i type="logical" name="LCHARG"> F  </i>
  <i type="int" name="LORBIT">    11</i>
  <i type="int" name="IVDW">    12</i>
 </incar>
 <primitive_cell>
  <structure name="primitive_cell" >
   <crystal>
    <varray name="basis" >
     <v>      20.97620010       0.00000000       0.00000000 </v>
     <v>       4.76730278      13.90221941       0.00000000 </v>
     <v>       0.00000000       0.00000000      24.80323677 </v>
    </varray>
    <i name="volume">   7233.01415335 </i>
    <varray name="rec_basis" >
     <v>       0.04767308      -0.01634789       0.00000000 </v>
     <v>       0.00000000       0.07193096       0.00000000 </v>
     <v>       0.00000000       0.00000000       0.04031732 </v>
    </varray>
   </crystal>
   <varray name="positions" >
    <v>       0.32915430       0.73400804       0.49372309 </v>
    <v>       0.28484834       0.36923034       0.45372487 </v>
    <v>       0.00913666       0.93599268       0.59256725 </v>
    <v>       0.16332402       0.43836278       0.50630806 </v>
    <v>       0.24084535       0.90295895       0.48321333 </v>
    <v>       0.38712684       0.31295929       0.39783753 </v>
    <v>       0.08703932       0.97533816       0.53399871 </v>
    <v>       0.40349989       0.35803394       0.48779558 </v>
    <v>       0.29144552       0.47571839       0.37481133 </v>
    <v>       0.97899182       0.12376727       0.54080061 </v>
    <v>       0.41426635       0.47765715       0.41135646 </v>
    <v>       0.10004751       0.16200396       0.56152982 </v>
    <v>       0.30313248       0.53254120       0.47826254 </v>
    <v>       0.40999247       0.61359336       0.68236766 </v>
    <v>       0.37902424       0.69137092       0.71392558 </v>
    <v>       0.39019028       0.66853421       0.75118204 </v>
   </varray>
  </structure>
  <varray name="primitive_index" >
   <v type="int" >        1 </v>
   <v type="int" >        2 </v>
   <v type="int" >        3 </v>
   <v type="int" >        4 </v>
   <v type="int" >        5 </v>
   <v type="int" >        6 </v>
   <v type="int" >        7 </v>
   <v type="int" >        8 </v>
   <v type="int" >        9 </v>
   <v type="int" >       10 </v>
   <v type="int" >       11 </v>
   <v type="int" >       12 </v>
   <v type="int" >       13 </v>
   <v type="int" >       14 </v>
   <v type="int" >       15 </v>
   <v type="int" >       16 </v>
  </varray>
 </primitive_cell>
 <kpoints>
  <generation param="Gamma">
   <v type="int" name="divisions">       1        1        1 </v>
   <v name="usershift">      0.00000000       0.00000000       0.00000000 </v>
   <v name="genvec1">      1.00000000      -0.00000000       0.00000000 </v>
   <v name="genvec2">      0.00000000       1.00000000       0.00000000 </v>
   <v name="genvec3">      0.00000000       0.00000000       1.00000000 </v>
   <v name="shift">      0.00000000       0.00000000       0.00000000 </v>
  </generation>
  <varray name="kpointlist" >
   <v>       0.00000000       0.00000000       0.00000000 </v>
  </varray>
  <varray name="weights" >
   <v>       1.00000000 </v>
  </varray>
 </kpoints>
 <parameters>
  <separator name="general" >
   <i type="string" name="SYSTEM">unknown system</i>
   <i type="logical" name="LCOMPAT"> F  </i>
  </separator>
  <separator name="electronic" >
   <i type="string" name="PREC">normal</i>
   <i name="ENMAX">    400.00000000</i>
   <i name="ENAUG">    627.11200000</i>
   <i name="EDIFF">      0.00010000</i>
   <i type="int" name="IALGO">    38</i>
   <i type="int" name="IWAVPR">    10</i>
   <i type="int" name="NBANDS">    88</i>
   <i type="int" name="NBANDSLOW">    -1</i>
   <i type="int" name="NBANDSHIGH">    -1</i>
   <i name="NELECT">    126.00000000</i>
   <i type="int" name="TURBO">     0</i>
   <i type="int" name="IRESTART">     0</i>
   <i type="int" name="NREBOOT">     0</i>
   <i type="int" name="NMIN">     0</i>
   <i name="EREF">      0.00000000</i>
   <separator name="electronic smearing" >
    <i type="int" name="ISMEAR">     0</i>
    <i name="SIGMA">      0.05000000</i>
    <i name="KSPACING">      0.50000000</i>
    <i type="logical" name="KGAMMA"> T  </i>
    <i type="logical" name="KBLOWUP"> T  </i>
   </separator>
   <separator name="electronic projectors" >
    <i type="logical" name="LREAL"> T  </i>
    <v name="ROPT">     -0.00050000     -0.00050000     -0.00050000     -0.00050000     -0.00050000</v>
    <i type="int" name="LMAXPAW">  -100</i>
    <i type="int" name="LMAXMIX">     2</i>
    <i type="logical" name="NLSPLINE"> F  </i>
   </separator>
   <separator name="electronic startup" >
    <i type="int" name="ISTART">     0</i>
    <i type="int" name="ICHARG">     2</i>
    <i type="int" name="INIWAV">     1</i>
   </separator>
   <separator name="electronic spin" >
    <i type="int" name="ISPIN">     2</i>
    <i type="logical" name="LNONCOLLINEAR"> F  </i>
    <v name="MAGMOM">      1.00000000      1.00000000      1.00000000      1.00000000      1.00000000      1.00000000      1.00000000      1.00000000      1.00000000      1.00000000      1.00000000      1.00000000      1.00000000      1.00000000      1.00000000      1.00000000</v>
    <i name="NUPDOWN">     -1.00000000</i>
    <i type="logical" name="LSORBIT"> F  </i>
    <v name="SAXIS">      0.00000000      0.00000000      1.00000000</v>
    <i type="logical" name="LSPIRAL"> F  </i>
    <v name="QSPIRAL">      0.00000000      0.00000000      0.00000000</v>
    <i type="logical" name="LZEROZ"> F  </i>
   </separator>
   <separator name="electronic exchange-correlation" >
    <i type="logical" name="LASPH"> F  </i>
    <i type="logical" name="LMETAGGA"> F  </i>
   </separator>
   <separator name="electronic convergence" >
    <i type="int" name="NELM">   100</i>
    <i type="int" name="NELMDL">    -5</i>
    <i type="int" name="NELMIN">     2</i>
    <i name="ENINI">    400.00000000</i>
    <separator name="electronic convergence detail" >
     <i type="logical" name="LDIAG"> T  </i>
     <i type="logical" name="LSUBROT"> F  </i>
     <i name="WEIMIN">      0.00000000</i>
     <i name="EBREAK">      0.00000028</i>
     <i name="DEPER">      0.30000000</i>
     <i type="int" name="NRMM">     4</i>
     <i name="TIME">      0.40000000</i>
    </separator>
   </separator>
   <separator name="electronic mixer" >
    <i name="AMIX">      0.05000000</i>
    <i name="BMIX">      0.00010000</i>
    <i name="AMIN">      0.05000000</i>
    <i name="AMIX_MAG">      0.20000000</i>
    <i name="BMIX_MAG">      0.00010000</i>
    <separator name="electronic mixer details" >
     <i type="int" name="IMIX">     4</i>
     <i type="logical" name="MIXFIRST"> F  </i>
     <i type="int" name="MAXMIX">   -45</i>
     <i name="WC">    100.00000000</i>
     <i type="int" name="INIMIX">     1</i>
     <i type="int" name="MIXPRE">     1</i>
     <i type="int" name="MREMOVE">     5</i>
    </separator>
   </separator>
   <separator name="electronic dipolcorrection" >
    <i type="logical" name="LDIPOL"> F  </i>
    <i type="logical" name="LMONO"> F  </i>
    <i type="int" name="IDIPOL">     0</i>
    <i name="EPSILON">      1.00000000</i>
    <v name="DIPOL">   -100.00000000   -100.00000000   -100.00000000</v>
    <i name="EFIELD">      0.00000000</i>
   </separator>
  </separator>
  <separator name="grids" >
   <i type="int" name="NGX">   108</i>
   <i type="int" name="NGY">    72</i>
   <i type="int" name="NGZ">   126</i>
   <i type="int" name="NGXF">   216</i>
   <i type="int" name="NGYF">   144</i>
   <i type="int" name="NGZF">   252</i>
   <i type="logical" name="ADDGRID"> F  </i>
  </separator>
  <separator name="ionic" >
   <i type="int" name="NSW">     0</i>
   <i type="int" name="IBRION">    -1</i>
   <i type="int" name="MDALGO">     0</i>
   <i type="int" name="ISIF">     2</i>
   <i name="PSTRESS">      0.00000000</i>
   <i name="EDIFFG">     -0.03000000</i>
   <i type="int" name="NFREE">     0</i>
   <i name="POTIM">      0.30000000</i>
   <i name="SMASS">     -3.00000000</i>
   <i name="SCALEE">      1.00000000</i>
  </separator>
  <separator name="ionic md" >
   <i name="TEBEG">      0.00010000</i>
   <i name="TEEND">      0.00010000</i>
   <i type="int" name="NBLOCK">     1</i>
   <i type="int" name="KBLOCK">     1</i>
   <i type="int" name="NPACO">   256</i>
   <i name="APACO">     10.00000000</i>
  </separator>
  <separator name="symmetry" >
   <i type="int" name="ISYM">     0</i>
   <i name="SYMPREC">      0.00001000</i>
  </separator>
  <separator name="dos" >
   <i type="int" name="LORBIT">    11</i>
   <v name="RWIGS">     -1.00000000     -1.00000000     -1.00000000     -1.00000000     -1.00000000</v>
   <i type="int" name="NEDOS">   100</i>
   <i name="EMIN">    -15.00000000</i>
   <i name="EMAX">      5.00000000</i>
   <i name="EFERMI">      0.00000000</i>
  </separator>
  <separator name="writing" >
   <i type="int" name="NWRITE">     2</i>
   <i type="logical" name="LWAVE"> F  </i>
   <i type="logical" name="LDOWNSAMPLE"> F  </i>
   <i type="logical" name="LCHARG"> F  </i>
   <i type="logical" name="LPARD"> F  </i>
   <i type="logical" name="LVTOT"> F  </i>
   <i type="logical" name="LVHAR"> F  </i>
   <i type="logical" name="LELF"> F  </i>
   <i type="logical" name="LOPTICS"> F  </i>
   <v name="STM">      0.00000000      0.00000000      0.00000000      0.00000000      0.00000000      0.00000000      0.00000000</v>
  </separator>
  <separator name="performance" >
   <i type="int" name="NPAR">     8</i>
   <i type="int" name="NSIM">     4</i>
   <i type="int" name="NBLK">    -1</i>
   <i type="logical" name="LPLANE"> T  </i>
   <i type="logical" name="LSCALAPACK"> T  </i>
   <i type="logical" name="LSCAAWARE"> F  </i>
   <i type="logical" name="LSCALU"> F  </i>
   <i type="logical" name="LASYNC"> F  </i>
   <i type="logical" name="LORBITALREAL"> F  </i>
  </separator>
  <separator name="miscellaneous" >
   <i type="int" name="IDIOT">     3</i>
   <i type="int" name="PHON_NSTRUCT">    -1</i>
   <i type="logical" name="LMUSIC"> F  </i>
   <v name="POMASS">     55.84700000    106.42000000     14.00100000     16.00000000      1.00000000</v>
   <v name="DARWINR">      0.00000000      0.00000000      0.00000000      0.00000000      0.00000000</v>
   <v name="DARWINV">      1.00000000      1.00000000      1.00000000      1.00000000      1.00000000</v>
   <i type="logical" name="LCORR"> T  </i>
  </separator>
  <i type="logical" name="GGA_COMPAT"> T  </i>
  <i type="logical" name="LBERRY"> F  </i>
  <i type="int" name="ICORELEVEL">     0</i>
  <i type="logical" name="LDAU"> F  </i>
  <i type="int" name="I_CONSTRAINED_M">     0</i>
  <separator name="electronic exchange-correlation" >
   <i type="string" name="GGA">--</i>
   <i type="int" name="VOSKOWN">     0</i>
   <i type="logical" name="LHFCALC"> F  </i>
   <i type="string" name="PRECFOCK"></i>
   <i type="logical" name="LSYMGRAD"> F  </i>
   <i type="logical" name="LHFONE"> F  </i>
   <i type="logical" name="LRHFCALC"> F  </i>
   <i type="logical" name="LTHOMAS"> F  </i>
   <i type="logical" name="LMODELHF"> F  </i>
   <i type="logical" name="LFOCKACE"> F  </i>
   <i name="ENCUT4O">     -1.00000000</i>
   <i type="int" name="EXXOEP">     0</i>
   <i type="int" name="FOURORBIT">     0</i>
   <i name="AEXX">      0.00000000</i>
   <i name="HFALPHA">      0.00000000</i>
   <i name="MCALPHA">      0.00000000</i>
   <i name="ALDAX">      1.00000000</i>
   <i name="AGGAX">      1.00000000</i>
   <i name="ALDAC">      1.00000000</i>
   <i name="AGGAC">      1.00000000</i>
   <i type="int" name="NKREDX">     1</i>
   <i type="int" name="NKREDY">     1</i>
   <i type="int" name="NKREDZ">     1</i>
   <i type="logical" name="SHIFTRED"> F  </i>
   <i type="logical" name="ODDONLY"> F  </i>
   <i type="logical" name="EVENONLY"> F  </i>
   <i type="int" name="LMAXFOCK">     0</i>
   <i type="int" name="NMAXFOCKAE">     0</i>
   <i type="logical" name="LFOCKAEDFT"> F  </i>
   <i name="HFSCREEN">      0.00000000</i>
   <i name="HFSCREENC">      0.00000000</i>
   <i type="int" name="NBANDSGWLOW">     0</i>
  </separator>
  <separator name="vdW DFT" >
   <i type="logical" name="LUSE_VDW"> F  </i>
   <i name="Zab_VDW">     -0.84910000</i>
   <i name="PARAM1">      0.12340000</i>
   <i name="PARAM2">      1.00000000</i>
   <i name="PARAM3">      0.00000000</i>
  </separator>
  <separator name="model GW" >
   <i type="int" name="MODEL_GW">     0</i>
   <i name="MODEL_EPS0">    271.23803075</i>
   <i name="MODEL_ALPHA">      1.00000000</i>
  </separator>
  <separator name="linear response parameters" >
   <i type="logical" name="LEPSILON"> F  </i>
   <i type="logical" name="LRPA"> F  </i>
   <i type="logical" name="LNABLA"> F  </i>
   <i type="logical" name="LVEL"> F  </i>
   <i name="CSHIFT">      0.10000000</i>
   <i name="OMEGAMAX">     -1.00000000</i>
   <i name="DEG_THRESHOLD">      0.00200000</i>
   <i name="RTIME">     -0.10000000</i>
   <i name="WPLASMAI">      0.00000000</i>
   <v name="DFIELD">      0.00000000      0.00000000      0.00000000</v>
   <v name="WPLASMA">      0.00000000      0.00000000      0.00000000      0.00000000      0.00000000      0.00000000      0.00000000      0.00000000      0.00000000</v>
  </separator>
  <separator name="orbital magnetization" >
   <i type="logical" name="NUCIND"> F  </i>
   <v name="MAGPOS">      0.00000000      0.00000000      0.00000000</v>
   <i type="logical" name="LNICSALL"> T  </i>
   <i type="logical" name="ORBITALMAG"> F  </i>
   <i type="logical" name="LMAGBLOCH"> F  </i>
   <i type="logical" name="LCHIMAG"> F  </i>
   <i type="logical" name="LGAUGE"> T  </i>
   <i type="int" name="MAGATOM">     0</i>
   <v name="MAGDIPOL">      0.00000000      0.00000000      0.00000000</v>
   <v name="AVECCONST">      0.00000000      0.00000000      0.00000000</v>
  </separator>
  <separator name="response functions" >
   <i type="logical" name="LFINITE_TEMPERATURE"> F  </i>
   <i type="logical" name="LADDER"> F  </i>
   <i type="logical" name="LRPAFORCE"> F  </i>
   <i type="logical" name="LFXC"> F  </i>
   <i type="logical" name="LHARTREE"> T  </i>
   <i type="int" name="IBSE">     0</i>
   <v type="int" name="KPOINT">    -1     0     0     0</v>
   <i type="logical" name="LTCTC"> F  </i>
   <i type="logical" name="LTCTE"> F  </i>
   <i type="logical" name="LTETE"> F  </i>
   <i type="logical" name="LTRIPLET"> F  </i>
   <i type="logical" name="LFXCEPS"> F  </i>
   <i type="logical" name="LFXHEG"> F  </i>
   <i type="int" name="NATURALO">     2</i>
   <i type="logical" name="LHOLEGF"> F  </i>
   <i type="logical" name="L2ORDER"> F  </i>
   <i type="logical" name="LDMP1"> F  </i>
   <i type="logical" name="LMP2LT"> F  </i>
   <i type="logical" name="LSMP2LT"> F  </i>
   <i type="logical" name="LGWLF"> F  </i>
   <i name="ENCUTGW">     -2.00000000</i>
   <i name="ENCUTGWSOFT">     -2.00000000</i>
   <i name="ENCUTLF">     -1.00000000</i>
   <i type="logical" name="LESF_SPLINES"> F  </i>
   <i type="int" name="LMAXMP2">    -1</i>
   <i name="SCISSOR">      0.00000000</i>
   <i type="int" name="NOMEGA">     0</i>
   <i type="int" name="NOMEGAR">     0</i>
   <i type="int" name="NBANDSGW">    -1</i>
   <i type="int" name="NBANDSO">    -1</i>
   <i type="int" name="NBANDSV">    -1</i>
   <i type="int" name="NELMGW">     1</i>
   <i type="int" name="NELMHF">     1</i>
   <i type="int" name="DIM">     3</i>
   <i type="int" name="IESPILON">     4</i>
   <i type="int" name="ANTIRES">     0</i>
   <i name="OMEGAMAX">    -30.00000000</i>
   <i name="OMEGAMIN">    -30.00000000</i>
   <i name="OMEGATL">   -200.00000000</i>
   <i type="int" name="OMEGAGRID">     0</i>
   <i name="CSHIFT">     -0.10000000</i>
   <i type="logical" name="LSELFENERGY"> F  </i>
   <i type="logical" name="LSPECTRAL"> F  </i>
   <i type="logical" name="LSPECTRALGW"> F  </i>
   <i type="logical" name="LSINGLES"> F  </i>
   <i type="logical" name="LFERMIGW"> F  </i>
   <i type="logical" name="ODDONLYGW"> F  </i>
   <i type="logical" name="EVENONLYGW"> F  </i>
   <i type="int" name="NKREDLFX">     1</i>
   <i type="int" name="NKREDLFY">     1</i>
   <i type="int" name="NKREDLFZ">     1</i>
   <i type="int" name="MAXMEM">  2800</i>
   <i type="int" name="TELESCOPE">     0</i>
   <i type="int" name="NTAUPAR">    -1</i>
   <i type="int" name="NOMEGAPAR">    -1</i>
   <i name="DAMP_NEWTON">      0.80000001</i>
   <i name="LAMBDA">      1.00000000</i>
  </separator>
  <separator name="External order field" >
   <i name="OFIELD_KAPPA">      0.00000000</i>
   <v name="OFIELD_K">      0.00000000      0.00000000      0.00000000</v>
   <i name="OFIELD_Q6_NEAR">      0.00000000</i>
   <i name="OFIELD_Q6_FAR">      0.00000000</i>
   <i name="OFIELD_A">      0.00000000</i>
  </separator>
  <separator name="optional k-points parameters" >
   <i type="int" name="KPOINTS_OPT_MODE">     1</i>
   <i type="logical" name="LKPOINTS_OPT"> F  </i>
  </separator>
 </parameters>
 <atominfo>
  <atoms>      16 </atoms>
  <types>       5 </types>
  <array name="atoms" >
   <dimension dim="1">ion</dimension>
   <field type="string">element</field>
   <field type="int">atomtype</field>
   <set>
    <rc><c>Fe</c><c>   1</c></rc>
    <rc><c>Fe</c><c>   1</c></rc>
    <rc><c>Fe</c><c>   1</c></rc>
    <rc><c>Fe</c><c>   1</c></rc>
    <rc><c>Fe</c><c>   1</c></rc>
    <rc><c>Fe</c><c>   1</c></rc>
    <rc><c>Fe</c><c>   1</c></rc>
    <rc><c>Fe</c><c>   1</c></rc>
    <rc><c>Pd</c><c>   2</c></rc>
    <rc><c>Pd</c><c>   2</c></rc>
    <rc><c>Pd</c><c>   2</c></rc>
    <rc><c>Pd</c><c>   2</c></rc>
    <rc><c>Pd</c><c>   2</c></rc>
    <rc><c>N </c><c>   3</c></rc>
    <rc><c>O </c><c>   4</c></rc>
    <rc><c>H </c><c>   5</c></rc>
   </set>
  </array>
  <array name="atomtypes" >
   <dimension dim="1">type</dimension>
   <field type="int">atomspertype</field>
   <field type="string">element</field>
   <field>mass</field>
   <field>valence</field>
   <field type="string">pseudopotential</field>
   <set>
    <rc><c>   8</c><c>Fe</c><c>     55.84700000</c><c>      8.00000000</c><c>  PAW_PBE Fe 06Sep2000                  </c></rc>
    <rc><c>   5</c><c>Pd</c><c>    106.42000000</c><c>     10.00000000</c><c>  PAW_PBE Pd 04Jan2005                  </c></rc>
    <rc><c>   1</c><c>N </c><c>     14.00100000</c><c>      5.00000000</c><c>  PAW_PBE N 08Apr2002                   </c></rc>
    <rc><c>   1</c><c>O </c><c>     16.00000000</c><c>      6.00000000</c><c>  PAW_PBE O 08Apr2002                   </c></rc>
    <rc><c>   1</c><c>H </c><c>      1.00000000</c><c>      1.00000000</c><c>  PAW_PBE H 15Jun2001                   </c></rc>
   </set>
  </array>
 </atominfo>
 <structure name="initialpos" >
  <crystal>
   <varray name="basis" >
    <v>      20.97620010       0.00000000       0.00000000 </v>
    <v>       4.76730278      13.90221941       0.00000000 </v>
    <v>       0.00000000       0.00000000      24.80323677 </v>
   </varray>
   <i name="volume">   7233.01415335 </i>
   <varray name="rec_basis" >
    <v>       0.04767308      -0.01634789       0.00000000 </v>
    <v>       0.00000000       0.07193096       0.00000000 </v>
    <v>       0.00000000       0.00000000       0.04031732 </v>
   </varray>
  </crystal>
  <varray name="positions" >
   <v>       0.32915430       0.73400804       0.49372309 </v>
   <v>       0.28484834       0.36923034       0.45372487 </v>
   <v>       0.00913666       0.93599268       0.59256725 </v>
   <v>       0.16332402       0.43836278       0.50630806 </v>
   <v>       0.24084535       0.90295895       0.48321333 </v>
   <v>       0.38712684       0.31295929       0.39783753 </v>
   <v>       0.08703932       0.97533816       0.53399871 </v>
   <v>       0.40349989       0.35803394       0.48779558 </v>
   <v>       0.29144552       0.47571839       0.37481133 </v>
   <v>       0.97899182       0.12376727       0.54080061 </v>
   <v>       0.41426635       0.47765715       0.41135646 </v>
   <v>       0.10004751       0.16200396       0.56152982 </v>
   <v>       0.30313248       0.53254120       0.47826254 </v>
   <v>       0.40999247       0.61359336       0.68236766 </v>
   <v>       0.37902424       0.69137092       0.71392558 </v>
   <v>       0.39019028       0.66853421       0.75118204 </v>
  </varray>
  <varray name="selective"  type="logical" >
   <v type="logical" >  F  F  F </v>
   <v type="logical" >  F  F  F </v>
   <v type="logical" >  T  T  T </v>
   <v type="logical" >  F  F  F </v>
   <v type="logical" >  F  F  F </v>
   <v type="logical" >  F  F  F </v>
   <v type="logical" >  T  T  T </v>
   <v type="logical" >  F  F  F </v>
   <v type="logical" >  F  F  F </v>
   <v type="logical" >  T  T  T </v>
   <v type="logical" >  F  F  F </v>
   <v type="logical" >  T  T  T </v>
   <v type="logical" >  F  F  F </v>
   <v type="logical" >  T  T  T </v>
   <v type="logical" >  T  T  T </v>
   <v type="logical" >  T  T  T </v>
  </varray>
  <nose>
   <v>      -3.00000000       0.00000000       0.00010000       0.00010000 </v>
  </nose>
 </structure>
 <calculation>
  <scstep>
   <time name="dav">    0.92    0.93</time>
   <time name="total">    1.15    1.18</time>
   <energy>
    <i name="alphaZ">     18.53776946 </i>
    <i name="ewald">   7402.47247005 </i>
    <i name="hartreedc"> -16314.10250182 </i>
    <i name="XCdc">    -87.34057459 </i>
    <i name="pawpsdc">   9024.05008184 </i>
    <i name="pawaedc">  -8777.59247916 </i>
    <i name="eentropy">     -0.03828403 </i>
    <i name="bandstr">     58.33361550 </i>
    <i name="atom">   9512.38850317 </i>
    <i name="e_fr_energy">    836.70860043 </i>
    <i name="e_wo_entrp">    836.74688446 </i>
    <i name="e_0_energy">    836.72774244 </i>
   </energy>
  </scstep>
  <scstep>
   <time name="dav">    0.99    0.99</time>
   <time name="total">    0.99    0.99</time>
   <energy>
    <i name="e_fr_energy">    302.00812989 </i>
    <i name="e_wo_entrp">    302.03175680 </i>
    <i name="e_0_energy">    302.01994334 </i>
   </energy>
  </scstep>
  <scstep>
   <time name="dav">    1.36    1.36</time>
   <time name="total">    1.36    1.36</time>
   <energy>
    <i name="e_fr_energy">      7.29056140 </i>
    <i name="e_wo_entrp">      7.30782884 </i>
    <i name="e_0_energy">      7.29919512 </i>
   </energy>
  </scstep>
  <scstep>
   <time name="dav">    1.30    1.31</time>
   <time name="total">    1.30    1.31</time>
   <energy>
    <i name="e_fr_energy">    -62.53060096 </i>
    <i name="e_wo_entrp">    -62.48930766 </i>
    <i name="e_0_energy">    -62.50995431 </i>
   </energy>
  </scstep>
  <scstep>
   <time name="dav">    1.31    1.32</time>
   <time name="total">    1.38    1.40</time>
   <energy>
    <i name="e_fr_energy">    -74.69353291 </i>
    <i name="e_wo_entrp">    -74.64291202 </i>
    <i name="e_0_energy">    -74.66822246 </i>
   </energy>
  </scstep>
  <scstep>
   <time name="dav">    1.18    1.18</time>
   <time name="total">    1.48    1.48</time>
   <energy>
    <i name="e_fr_energy">    -73.29379274 </i>
    <i name="e_wo_entrp">    -73.24445645 </i>
    <i name="e_0_energy">    -73.26912460 </i>
   </energy>
  </scstep>
  <scstep>
   <time name="dav">    1.30    1.31</time>
   <time name="total">    1.61    1.61</time>
   <energy>
    <i name="e_fr_energy">    -71.68246557 </i>
    <i name="e_wo_entrp">    -71.62655294 </i>
    <i name="e_0_energy">    -71.65450925 </i>
   </energy>
  </scstep>
  <scstep>
   <time name="dav">    1.19    1.19</time>
   <time name="total">    1.49    1.50</time>
   <energy>
    <i name="e_fr_energy">    -69.39801378 </i>
    <i name="e_wo_entrp">    -69.34216686 </i>
    <i name="e_0_energy">    -69.37009032 </i>
   </energy>
  </scstep>
  <scstep>
   <time name="dav">    1.16    1.16</time>
   <time name="total">    1.46    1.47</time>
   <energy>
    <i name="e_fr_energy">    -69.92008250 </i>
    <i name="e_wo_entrp">    -69.90521275 </i>
    <i name="e_0_energy">    -69.91264762 </i>
   </energy>
  </scstep>
  <scstep>
   <time name="dav">    1.11    1.12</time>
   <time name="total">    1.42    1.43</time>
   <energy>
    <i name="e_fr_energy">    -69.74055734 </i>
    <i name="e_wo_entrp">    -69.72300321 </i>
    <i name="e_0_energy">    -69.73178027 </i>
   </energy>
  </scstep>
  <scstep>
   <time name="dav">    1.22    1.23</time>
   <time name="total">    1.54    1.55</time>
   <energy>
    <i name="e_fr_energy">    -71.33585664 </i>
    <i name="e_wo_entrp">    -71.27920477 </i>
    <i name="e_0_energy">    -71.30753071 </i>
   </energy>
  </scstep>
  <scstep>
   <time name="dav">    1.15    1.15</time>
   <time name="total">    1.46    1.47</time>
   <energy>
    <i name="e_fr_energy">    -72.59783058 </i>
    <i name="e_wo_entrp">    -72.57774900 </i>
    <i name="e_0_energy">    -72.58778979 </i>
   </energy>
  </scstep>
  <scstep>
   <time name="dav">    1.22    1.23</time>
   <time name="total">    1.53    1.54</time>
   <energy>
    <i name="e_fr_energy">    -72.88945519 </i>
    <i name="e_wo_entrp">    -72.84310621 </i>
    <i name="e_0_energy">    -72.86628070 </i>
   </energy>
  </scstep>
  <scstep>
   <time name="dav">    1.20    1.21</time>
   <time name="total">    1.52    1.52</time>
   <energy>
    <i name="e_fr_energy">    -73.05202339 </i>
    <i name="e_wo_entrp">    -73.01201113 </i>
    <i name="e_0_energy">    -73.03201726 </i>
   </energy>
  </scstep>
  <scstep>
   <time name="dav">    0.90    0.91</time>
   <time name="total">    1.21    1.22</time>
   <energy>
    <i name="e_fr_energy">    -72.98396242 </i>
    <i name="e_wo_entrp">    -72.94168523 </i>
    <i name="e_0_energy">    -72.96282382 </i>
   </energy>
  </scstep>
  <scstep>
   <time name="dav">    1.18    1.18</time>
   <time name="total">    1.50    1.51</time>
   <energy>
    <i name="e_fr_energy">    -73.00650407 </i>
    <i name="e_wo_entrp">    -72.97084725 </i>
    <i name="e_0_energy">    -72.98867566 </i>
   </energy>
  </scstep>
  <scstep>
   <time name="dav">    1.18    1.19</time>
   <time name="total">    1.50    1.50</time>
   <energy>
    <i name="e_fr_energy">    -73.51747562 </i>
    <i name="e_wo_entrp">    -73.50393482 </i>
    <i name="e_0_energy">    -73.51070522 </i>
   </energy>
  </scstep>
  <scstep>
   <time name="dav">    1.16    1.17</time>
   <time name="total">    1.48    1.49</time>
   <energy>
    <i name="e_fr_energy">    -73.92847992 </i>
    <i name="e_wo_entrp">    -73.92708440 </i>
    <i name="e_0_energy">    -73.92778216 </i>
   </energy>
  </scstep>
  <scstep>
   <time name="dav">    1.09    1.10</time>
   <time name="total">    1.41    1.42</time>
   <energy>
    <i name="e_fr_energy">    -74.01090839 </i>
    <i name="e_wo_entrp">    -74.00717003 </i>
    <i name="e_0_energy">    -74.00903921 </i>
   </energy>
  </scstep>
  <scstep>
   <time name="dav">    1.22    1.22</time>
   <time name="total">    1.54    1.54</time>
   <energy>
    <i name="e_fr_energy">    -74.02751644 </i>
    <i name="e_wo_entrp">    -74.01694906 </i>
    <i name="e_0_energy">    -74.02223275 </i>
   </energy>
  </scstep>
  <scstep>
   <time name="dav">    1.11    1.11</time>
   <time name="total">    1.43    1.43</time>
   <energy>
    <i name="e_fr_energy">    -74.02825555 </i>
    <i name="e_wo_entrp">    -74.01378380 </i>
    <i name="e_0_energy">    -74.02101967 </i>
   </energy>
  </scstep>
  <scstep>
   <time name="dav">    1.15    1.15</time>
   <time name="total">    1.47    1.47</time>
   <energy>
    <i name="e_fr_energy">    -74.06018733 </i>
    <i name="e_wo_entrp">    -74.05238716 </i>
    <i name="e_0_energy">    -74.05628724 </i>
   </energy>
  </scstep>
  <scstep>
   <time name="dav">    1.15    1.15</time>
   <time name="total">    1.47    1.48</time>
   <energy>
    <i name="e_fr_energy">    -74.05230904 </i>
    <i name="e_wo_entrp">    -74.05012060 </i>
    <i name="e_0_energy">    -74.05121482 </i>
   </energy>
  </scstep>
  <scstep>
   <time name="dav">    1.19    1.20</time>
   <time name="total">    1.51    1.52</time>
   <energy>
    <i name="e_fr_energy">    -74.07933745 </i>
    <i name="e_wo_entrp">    -74.07860216 </i>
    <i name="e_0_energy">    -74.07896980 </i>
   </energy>
  </scstep>
  <scstep>
   <time name="dav">    1.18    1.18</time>
   <time name="total">    1.50    1.50</time>
   <energy>
    <i name="e_fr_energy">    -74.10330952 </i>
    <i name="e_wo_entrp">    -74.10229261 </i>
    <i name="e_0_energy">    -74.10280106 </i>
   </energy>
  </scstep>
  <scstep>
   <time name="dav">    1.20    1.20</time>
   <time name="total">    1.51    1.53</time>
   <energy>
    <i name="e_fr_energy">    -74.08304086 </i>
    <i name="e_wo_entrp">    -74.08162973 </i>
    <i name="e_0_energy">    -74.08233529 </i>
   </energy>
  </scstep>
  <scstep>
   <time name="dav">    1.21    1.21</time>
   <time name="total">    1.53    1.53</time>
   <energy>
    <i name="e_fr_energy">    -74.08763196 </i>
    <i name="e_wo_entrp">    -74.08588000 </i>
    <i name="e_0_energy">    -74.08675598 </i>
   </energy>
  </scstep>
  <scstep>
   <time name="dav">    1.19    1.20</time>
   <time name="total">    1.52    1.52</time>
   <energy>
    <i name="e_fr_energy">    -74.10620700 </i>
    <i name="e_wo_entrp">    -74.10418663 </i>
    <i name="e_0_energy">    -74.10519682 </i>
   </energy>
  </scstep>
  <scstep>
   <time name="dav">    1.20    1.20</time>
   <time name="total">    1.52    1.52</time>
   <energy>
    <i name="e_fr_energy">    -74.12477041 </i>
    <i name="e_wo_entrp">    -74.12306686 </i>
    <i name="e_0_energy">    -74.12391863 </i>
   </energy>
  </scstep>
  <scstep>
   <time name="dav">    1.10    1.10</time>
   <time name="total">    1.42    1.42</time>
   <energy>
    <i name="e_fr_energy">    -74.12137461 </i>
    <i name="e_wo_entrp">    -74.11992036 </i>
    <i name="e_0_energy">    -74.12064748 </i>
   </energy>
  </scstep>
  <scstep>
   <time name="dav">    1.11    1.12</time>
   <time name="total">    1.43    1.44</time>
   <energy>
    <i name="e_fr_energy">    -74.13507739 </i>
    <i name="e_wo_entrp">    -74.13383254 </i>
    <i name="e_0_energy">    -74.13445496 </i>
   </energy>
  </scstep>
  <scstep>
   <time name="dav">    1.10    1.10</time>
   <time name="total">    1.42    1.43</time>
   <energy>
    <i name="e_fr_energy">    -74.14912192 </i>
    <i name="e_wo_entrp">    -74.14771989 </i>
    <i name="e_0_energy">    -74.14842091 </i>
   </energy>
  </scstep>
  <scstep>
   <time name="dav">    1.10    1.10</time>
   <time name="total">    1.42    1.42</time>
   <energy>
    <i name="e_fr_energy">    -74.16073374 </i>
    <i name="e_wo_entrp">    -74.15914876 </i>
    <i name="e_0_energy">    -74.15994125 </i>
   </energy>
  </scstep>
  <scstep>
   <time name="dav">    1.07    1.07</time>
   <time name="total">    1.40    1.40</time>
   <energy>
    <i name="e_fr_energy">    -74.17765716 </i>
    <i name="e_wo_entrp">    -74.17609399 </i>
    <i name="e_0_energy">    -74.17687558 </i>
   </energy>
  </scstep>
  <scstep>
   <time name="dav">    1.09    1.10</time>
   <time name="total">    1.42    1.42</time>
   <energy>
    <i name="e_fr_energy">    -74.18660015 </i>
    <i name="e_wo_entrp">    -74.18450067 </i>
    <i name="e_0_energy">    -74.18555041 </i>
   </energy>
  </scstep>
  <scstep>
   <time name="dav">    1.13    1.13</time>
   <time name="total">    1.46    1.47</time>
   <energy>
    <i name="e_fr_energy">    -74.18933374 </i>
    <i name="e_wo_entrp">    -74.18733464 </i>
    <i name="e_0_energy">    -74.18833419 </i>
   </energy>
  </scstep>
  <scstep>
   <time name="dav">    1.10    1.10</time>
   <time name="total">    1.43    1.43</time>
   <energy>
    <i name="e_fr_energy">    -74.19180953 </i>
    <i name="e_wo_entrp">    -74.19021013 </i>
    <i name="e_0_energy">    -74.19100983 </i>
   </energy>
  </scstep>
  <scstep>
   <time name="dav">    1.08    1.09</time>
   <time name="total">    1.41    1.42</time>
   <energy>
    <i name="e_fr_energy">    -74.19212328 </i>
    <i name="e_wo_entrp">    -74.19046592 </i>
    <i name="e_0_energy">    -74.19129460 </i>
   </energy>
  </scstep>
  <scstep>
   <time name="dav">    1.06    1.06</time>
   <time name="total">    1.38    1.39</time>
   <energy>
    <i name="e_fr_energy">    -74.19243239 </i>
    <i name="e_wo_entrp">    -74.19085442 </i>
    <i name="e_0_energy">    -74.19164340 </i>
   </energy>
  </scstep>
  <scstep>
   <time name="dav">    1.05    1.06</time>
   <time name="total">    1.38    1.39</time>
   <energy>
    <i name="e_fr_energy">    -74.19428570 </i>
    <i name="e_wo_entrp">    -74.19266232 </i>
    <i name="e_0_energy">    -74.19347401 </i>
   </energy>
  </scstep>
  <scstep>
   <time name="dav">    0.85    0.85</time>
   <time name="total">    1.18    1.18</time>
   <energy>
    <i name="e_fr_energy">    -74.19450817 </i>
    <i name="e_wo_entrp">    -74.19284028 </i>
    <i name="e_0_energy">    -74.19367422 </i>
   </energy>
  </scstep>
  <scstep>
   <time name="dav">    0.92    0.93</time>
   <time name="total">    1.25    1.27</time>
   <energy>
    <i name="e_fr_energy">    -74.19476102 </i>
    <i name="e_wo_entrp">    -74.19304251 </i>
    <i name="e_0_energy">    -74.19390176 </i>
   </energy>
  </scstep>
  <scstep>
   <time name="dav">    0.78    0.78</time>
   <time name="total">    1.11    1.12</time>
   <energy>
    <i name="e_fr_energy">    -74.19550512 </i>
    <i name="e_wo_entrp">    -74.19372624 </i>
    <i name="e_0_energy">    -74.19461568 </i>
   </energy>
  </scstep>
  <scstep>
   <time name="dav">    0.66    0.66</time>
   <time name="total">    0.90    0.90</time>
   <energy>
    <i name="alphaZ">     18.53776946 </i>
    <i name="ewald">   7402.47247005 </i>
    <i name="hartreedc"> -16381.78808413 </i>
    <i name="XCdc">    -71.19733272 </i>
    <i name="pawpsdc">   9933.80351927 </i>
    <i name="pawaedc">  -9697.53961955 </i>
    <i name="eentropy">     -0.00162229 </i>
    <i name="bandstr">   -790.87119700 </i>
    <i name="atom">   9512.38850317 </i>
    <i name="e_fr_energy">    -74.19559372 </i>
    <i name="e_wo_entrp">    -74.19397143 </i>
    <i name="e_0_energy">    -74.19478258 </i>
   </energy>
  </scstep>
  <structure>
   <crystal>
    <varray name="basis" >
     <v>      20.97620010       0.00000000       0.00000000 </v>
     <v>       4.76730278      13.90221941       0.00000000 </v>
     <v>       0.00000000       0.00000000      24.80323677 </v>
    </varray>
    <i name="volume">   7233.01415335 </i>
    <varray name="rec_basis" >
     <v>       0.04767308      -0.01634789       0.00000000 </v>
     <v>       0.00000000       0.07193096       0.00000000 </v>
     <v>       0.00000000       0.00000000       0.04031732 </v>
    </varray>
   </crystal>
   <varray name="positions" >
    <v>       0.32915430       0.73400804       0.49372309 </v>
    <v>       0.28484834       0.36923034       0.45372487 </v>
    <v>       0.00913666       0.93599268       0.59256725 </v>
    <v>       0.16332402       0.43836278       0.50630806 </v>
    <v>       0.24084535       0.90295895       0.48321333 </v>
    <v>       0.38712684       0.31295929       0.39783753 </v>
    <v>       0.08703932       0.97533816       0.53399871 </v>
    <v>       0.40349989       0.35803394       0.48779558 </v>
    <v>       0.29144552       0.47571839       0.37481133 </v>
    <v>       0.97899182       0.12376727       0.54080061 </v>
    <v>       0.41426635       0.47765715       0.41135646 </v>
    <v>       0.10004751       0.16200396       0.56152982 </v>
    <v>       0.30313248       0.53254120       0.47826254 </v>
    <v>       0.40999247       0.61359336       0.68236766 </v>
    <v>       0.37902424       0.69137092       0.71392558 </v>
    <v>       0.39019028       0.66853421       0.75118204 </v>
   </varray>
  </structure>
  <varray name="forces" >
   <v>      -0.88565628       0.07661551      -0.25867258 </v>
   <v>       0.68013542       0.77642552       0.06168653 </v>
   <v>       1.13048830       1.07696585      -1.15617051 </v>
   <v>       1.21902442      -0.26774648      -0.51693712 </v>
   <v>      -0.15175753      -0.62118562       0.39697231 </v>
   <v>      -0.33304344       1.47850105       0.81841746 </v>
   <v>      -0.57852996       0.92104450       0.81362677 </v>
   <v>      -1.03299059       0.95826229      -1.20567603 </v>
   <v>       0.38903439      -0.77772306       0.71044907 </v>
   <v>       0.82710381      -1.34221954       0.35520144 </v>
   <v>      -0.96933339      -0.65958505       0.60462350 </v>
   <v>      -0.65873456      -0.97914186      -0.35474246 </v>
   <v>       0.37193898      -0.64207526      -0.24938291 </v>
   <v>      -0.18489232       0.68417198       0.28630788 </v>
   <v>       0.22888335      -0.86716396      -0.40709522 </v>
   <v>      -0.05167058       0.18485413       0.10139188 </v>
  </varray>
  <varray name="stress" >
   <v>      -4.09247058       0.15679624       0.77154929 </v>
   <v>       0.15679624      -4.81838389      -0.05832592 </v>
   <v>       0.77154930      -0.05832591      -2.15456240 </v>
  </varray>
  <energy>
   <i name="e_fr_energy">    -75.32154791 </i>
   <i name="e_wo_entrp">    -75.31992562 </i>
   <i name="e_0_energy">    -75.32073677 </i>
  </energy>
  <time name="totalsc">   63.38   63.70</time>
  <eigenvalues>
   <array>
    <dimension dim="1">band</dimension>
    <dimension dim="2">kpoint</dimension>
    <dimension dim="3">spin</dimension>
    <field>eigene</field>
    <field>occ</field>
    <set>
     <set comment="spin 1">
      <set comment="kpoint 1">
       <r>  -28.2746    1.0000 </r>
       <r>  -18.7029    1.0000 </r>
       <r>  -12.9252    1.0000 </r>
       <r>  -10.5661    1.0000 </r>
       <r>  -10.4924    1.0000 </r>
       <r>   -8.2971    1.0000 </r>
       <r>   -7.4370    1.0000 </r>
       <r>   -7.4121    1.0000 </r>
       <r>   -7.3604    1.0000 </r>
       <r>   -7.2799    1.0000 </r>
       <r>   -7.1215    1.0000 </r>
       <r>   -7.0967    1.0000 </r>
       <r>   -7.0428    1.0000 </r>
       <r>   -6.9590    1.0000 </r>
       <r>   -6.9207    1.0000 </r>
       <r>   -6.9152    1.0000 </r>
       <r>   -6.8856    1.0000 </r>
       <r>   -6.8323    1.0000 </r>
       <r>   -6.8135    1.0000 </r>
       <r>   -6.7720    1.0000 </r>
       <r>   -6.7436    1.0000 </r>
       <r>   -6.7382    1.0000 </r>
       <r>   -6.7155    1.0000 </r>
       <r>   -6.6970    1.0000 </r>
       <r>   -6.6506    1.0000 </r>
       <r>   -6.6404    1.0000 </r>
       <r>   -6.5846    1.0000 </r>
       <r>   -6.5225    1.0000 </r>
       <r>   -6.4903    1.0000 </r>
       <r>   -6.4802    1.0000 </r>
       <r>   -6.4712    1.0000 </r>
       <r>   -6.4467    1.0000 </r>
       <r>   -6.3573    1.0000 </r>
       <r>   -6.3064    1.0000 </r>
       <r>   -6.3036    1.0000 </r>
       <r>   -6.2109    1.0000 </r>
       <r>   -6.1813    1.0000 </r>
       <r>   -6.0811    1.0000 </r>
       <r>   -6.0326    1.0000 </r>
       <r>   -5.9299    1.0000 </r>
       <r>   -5.9015    1.0000 </r>
       <r>   -5.8974    1.0000 </r>
       <r>   -5.8316    1.0000 </r>
       <r>   -5.8200    1.0000 </r>
       <r>   -5.7915    1.0000 </r>
       <r>   -5.7681    1.0000 </r>
       <r>   -5.7299    1.0000 </r>
       <r>   -5.7153    1.0000 </r>
       <r>   -5.6562    1.0000 </r>
       <r>   -5.6093    1.0000 </r>
       <r>   -5.5882    1.0000 </r>
       <r>   -5.5381    1.0000 </r>
       <r>   -5.4953    1.0000 </r>
       <r>   -5.4627    1.0000 </r>
       <r>   -5.3517    1.0000 </r>
       <r>   -5.3279    1.0000 </r>
       <r>   -5.2128    1.0000 </r>
       <r>   -5.2100    1.0000 </r>
       <r>   -5.1112    1.0000 </r>
       <r>   -5.0856    1.0000 </r>
       <r>   -4.9773    1.0000 </r>
       <r>   -4.9557    1.0000 </r>
       <r>   -4.8982    1.0000 </r>
       <r>   -4.8720    1.0000 </r>
       <r>   -4.7832    1.0000 </r>
       <r>   -4.7469    1.0000 </r>
       <r>   -4.6872    1.0000 </r>
       <r>   -4.6472    1.0000 </r>
       <r>   -4.6164    1.0000 </r>
       <r>   -4.5393    1.0000 </r>
       <r>   -4.4051    1.0000 </r>
       <r>   -4.3084    1.0000 </r>
       <r>   -4.2151    1.0000 </r>
       <r>   -4.1907    1.0000 </r>
       <r>   -4.1200    1.0000 </r>
       <r>   -4.0594    1.0000 </r>
       <r>   -4.0408    1.0000 </r>
       <r>   -3.7819    1.0000 </r>
       <r>   -3.7414    1.0000 </r>
       <r>   -3.3793    0.0001 </r>
       <r>   -3.1627    0.0000 </r>
       <r>   -2.6630    0.0000 </r>
       <r>   -2.4439    0.0000 </r>
       <r>   -1.9783    0.0000 </r>
       <r>   -1.7578    0.0000 </r>
       <r>   -1.6861    0.0000 </r>
       <r>   -1.4100    0.0000 </r>
       <r>   -1.3530    0.0000 </r>
      </set>
     </set>
     <set comment="spin 2">
      <set comment="kpoint 1">
       <r>  -27.6453    1.0000 </r>
       <r>  -17.1964    1.0000 </r>
       <r>  -11.9740    1.0000 </r>
       <r>   -9.5215    1.0000 </r>
       <r>   -9.4058    1.0000 </r>
       <r>   -7.8119    1.0000 </r>
       <r>   -6.4142    1.0000 </r>
       <r>   -6.3662    1.0000 </r>
       <r>   -6.2703    1.0000 </r>
       <r>   -6.0502    1.0000 </r>
       <r>   -5.9671    1.0000 </r>
       <r>   -5.8318    1.0000 </r>
       <r>   -5.7455    1.0000 </r>
       <r>   -5.6202    1.0000 </r>
       <r>   -5.5633    1.0000 </r>
       <r>   -5.5535    1.0000 </r>
       <r>   -5.4042    1.0000 </r>
       <r>   -5.3302    1.0000 </r>
       <r>   -5.2604    1.0000 </r>
       <r>   -5.1229    1.0000 </r>
       <r>   -5.0056    1.0000 </r>
       <r>   -4.9890    1.0000 </r>
       <r>   -4.8841    1.0000 </r>
       <r>   -4.8756    1.0000 </r>
       <r>   -4.7890    1.0000 </r>
       <r>   -4.7536    1.0000 </r>
       <r>   -4.6006    1.0000 </r>
       <r>   -4.5350    1.0000 </r>
       <r>   -4.5055    1.0000 </r>
       <r>   -4.4850    1.0000 </r>
       <r>   -4.2778    1.0000 </r>
       <r>   -4.1724    1.0000 </r>
       <r>   -4.1558    1.0000 </r>
       <r>   -4.1376    1.0000 </r>
       <r>   -4.1031    1.0000 </r>
       <r>   -4.0365    1.0000 </r>
       <r>   -4.0167    1.0000 </r>
       <r>   -4.0000    1.0000 </r>
       <r>   -3.9672    1.0000 </r>
       <r>   -3.9409    1.0000 </r>
       <r>   -3.9056    1.0000 </r>
       <r>   -3.8573    1.0000 </r>
       <r>   -3.7703    1.0000 </r>
       <r>   -3.7408    1.0000 </r>
       <r>   -3.6774    1.0000 </r>
       <r>   -3.6602    1.0000 </r>
       <r>   -3.5944    0.9916 </r>
       <r>   -3.4251    0.0083 </r>
       <r>   -3.3388    0.0000 </r>
       <r>   -3.3378    0.0000 </r>
       <r>   -3.2927    0.0000 </r>
       <r>   -3.2711    0.0000 </r>
       <r>   -3.2185    0.0000 </r>
       <r>   -3.1941    0.0000 </r>
       <r>   -3.1353    0.0000 </r>
       <r>   -3.0999    0.0000 </r>
       <r>   -3.0884    0.0000 </r>
       <r>   -3.0594    0.0000 </r>
       <r>   -2.9823    0.0000 </r>
       <r>   -2.9473    0.0000 </r>
       <r>   -2.9092    0.0000 </r>
       <r>   -2.8460    0.0000 </r>
       <r>   -2.8366    0.0000 </r>
       <r>   -2.8271    0.0000 </r>
       <r>   -2.8170    0.0000 </r>
       <r>   -2.7624    0.0000 </r>
       <r>   -2.7337    0.0000 </r>
       <r>   -2.7098    0.0000 </r>
       <r>   -2.6847    0.0000 </r>
       <r>   -2.6623    0.0000 </r>
       <r>   -2.6242    0.0000 </r>
       <r>   -2.5916    0.0000 </r>
       <r>   -2.5754    0.0000 </r>
       <r>   -2.5173    0.0000 </r>
       <r>   -2.4751    0.0000 </r>
       <r>   -2.4585    0.0000 </r>
       <r>   -2.4207    0.0000 </r>
       <r>   -2.3660    0.0000 </r>
       <r>   -2.3460    0.0000 </r>
       <r>   -2.3144    0.0000 </r>
       <r>   -2.0876    0.0000 </r>
       <r>   -1.9325    0.0000 </r>
       <r>   -1.6528    0.0000 </r>
       <r>   -1.3760    0.0000 </r>
       <r>   -1.1774    0.0000 </r>
       <r>   -0.9376    0.0000 </r>
       <r>   -0.8629    0.0000 </r>
       <r>   -0.8516    0.0000 </r>
      </set>
     </set>
    </set>
   </array>
  </eigenvalues>
  <separator name="orbital magnetization" >
   <v name="MAGDIPOLOUT">      0.00000000      0.00000000      0.00000000</v>
  </separator>
  <dos>
   <i name="efermi">     -3.50978928 </i>
   <total>
    <array>
     <dimension dim="1">gridpoints</dimension>
     <dimension dim="2">spin</dimension>
     <field>energy</field>
     <field>total</field>
     <field>integrated</field>
     <set>
      <set comment="spin 1">
       <r>   -15.0000     9.9000     2.0000 </r>
       <r>   -14.7980     0.0000     2.0000 </r>
       <r>   -14.5960     0.0000     2.0000 </r>
       <r>   -14.3939     0.0000     2.0000 </r>
       <r>   -14.1919     0.0000     2.0000 </r>
       <r>   -13.9899     0.0000     2.0000 </r>
       <r>   -13.7879     0.0000     2.0000 </r>
       <r>   -13.5859     0.0000     2.0000 </r>
       <r>   -13.3838     0.0000     2.0000 </r>
       <r>   -13.1818     0.0000     2.0000 </r>
       <r>   -12.9798     0.3030     2.0612 </r>
       <r>   -12.7778     4.6469     3.0000 </r>
       <r>   -12.5758     0.0001     3.0000 </r>
       <r>   -12.3737     0.0000     3.0000 </r>
       <r>   -12.1717     0.0000     3.0000 </r>
       <r>   -11.9697     0.0000     3.0000 </r>
       <r>   -11.7677     0.0000     3.0000 </r>
       <r>   -11.5657     0.0000     3.0000 </r>
       <r>   -11.3636     0.0000     3.0000 </r>
       <r>   -11.1616     0.0000     3.0000 </r>
       <r>   -10.9596     0.0000     3.0000 </r>
       <r>   -10.7576     0.0000     3.0000 </r>
       <r>   -10.5556     3.2383     3.6542 </r>
       <r>   -10.3535     6.6615     5.0000 </r>
       <r>   -10.1515     0.0002     5.0000 </r>
       <r>    -9.9495     0.0000     5.0000 </r>
       <r>    -9.7475     0.0000     5.0000 </r>
       <r>    -9.5455     0.0000     5.0000 </r>
       <r>    -9.3434     0.0000     5.0000 </r>
       <r>    -9.1414     0.0000     5.0000 </r>
       <r>    -8.9394     0.0000     5.0000 </r>
       <r>    -8.7374     0.0000     5.0000 </r>
       <r>    -8.5354     0.0000     5.0000 </r>
       <r>    -8.3333     0.7574     5.1530 </r>
       <r>    -8.1313     4.1926     6.0000 </r>
       <r>    -7.9293     0.0000     6.0000 </r>
       <r>    -7.7273     0.0000     6.0000 </r>
       <r>    -7.5253     0.0345     6.0070 </r>
       <r>    -7.3232    14.6030     8.9571 </r>
       <r>    -7.1212     8.9303    10.7612 </r>
       <r>    -6.9192    21.0885    15.0215 </r>
       <r>    -6.7172    35.7418    22.2420 </r>
       <r>    -6.5152    28.9606    28.0927 </r>
       <r>    -6.3131    27.8292    33.7147 </r>
       <r>    -6.1111    17.1795    37.1853 </r>
       <r>    -5.9091    16.5420    40.5271 </r>
       <r>    -5.7071    33.8158    47.3586 </r>
       <r>    -5.5051    24.5644    52.3211 </r>
       <r>    -5.3030    16.6467    55.6841 </r>
       <r>    -5.1010    16.1323    58.9432 </r>
       <r>    -4.8990    18.3304    62.6463 </r>
       <r>    -4.6970    18.5612    66.3960 </r>
       <r>    -4.4949    17.3457    69.9002 </r>
       <r>    -4.2929     8.8329    71.6846 </r>
       <r>    -4.0909    16.6901    75.0564 </r>
       <r>    -3.8889     9.6272    77.0012 </r>
       <r>    -3.6869     9.5714    78.9349 </r>
       <r>    -3.4848     0.3294    79.0014 </r>
       <r>    -3.2828     4.9289    79.9972 </r>
       <r>    -3.0808     4.9133    80.9897 </r>
       <r>    -2.8788     0.0508    81.0000 </r>
       <r>    -2.6768     1.7249    81.3485 </r>
       <r>    -2.4747     4.1732    82.1915 </r>
       <r>    -2.2727     4.0020    83.0000 </r>
       <r>    -2.0707     0.0223    83.0045 </r>
       <r>    -1.8687     4.9272    83.9999 </r>
       <r>    -1.6667     8.4338    85.7037 </r>
       <r>    -1.4646     1.7738    86.0620 </r>
       <r>    -1.2626     9.5667    87.9947 </r>
       <r>    -1.0606     0.0262    88.0000 </r>
       <r>    -0.8586     0.0000    88.0000 </r>
       <r>    -0.6566     0.0000    88.0000 </r>
       <r>    -0.4545     0.0000    88.0000 </r>
       <r>    -0.2525     0.0000    88.0000 </r>
       <r>    -0.0505     0.0000    88.0000 </r>
       <r>     0.1515     0.0000    88.0000 </r>
       <r>     0.3535     0.0000    88.0000 </r>
       <r>     0.5556     0.0000    88.0000 </r>
       <r>     0.7576     0.0000    88.0000 </r>
       <r>     0.9596     0.0000    88.0000 </r>
       <r>     1.1616     0.0000    88.0000 </r>
       <r>     1.3636     0.0000    88.0000 </r>
       <r>     1.5657     0.0000    88.0000 </r>
       <r>     1.7677     0.0000    88.0000 </r>
       <r>     1.9697     0.0000    88.0000 </r>
       <r>     2.1717     0.0000    88.0000 </r>
       <r>     2.3737     0.0000    88.0000 </r>
       <r>     2.5758     0.0000    88.0000 </r>
       <r>     2.7778     0.0000    88.0000 </r>
       <r>     2.9798     0.0000    88.0000 </r>
       <r>     3.1818     0.0000    88.0000 </r>
       <r>     3.3838     0.0000    88.0000 </r>
       <r>     3.5859     0.0000    88.0000 </r>
       <r>     3.7879     0.0000    88.0000 </r>
       <r>     3.9899     0.0000    88.0000 </r>
       <r>     4.1919     0.0000    88.0000 </r>
       <r>     4.3939     0.0000    88.0000 </r>
       <r>     4.5960     0.0000    88.0000 </r>
       <r>     4.7980     0.0000    88.0000 </r>
       <r>     5.0000     0.0000    88.0000 </r>
      </set>
      <set comment="spin 2">
       <r>   -15.0000     9.9000     2.0000 </r>
       <r>   -14.7980     0.0000     2.0000 </r>
       <r>   -14.5960     0.0000     2.0000 </r>
       <r>   -14.3939     0.0000     2.0000 </r>
       <r>   -14.1919     0.0000     2.0000 </r>
       <r>   -13.9899     0.0000     2.0000 </r>
       <r>   -13.7879     0.0000     2.0000 </r>
       <r>   -13.5859     0.0000     2.0000 </r>
       <r>   -13.3838     0.0000     2.0000 </r>
       <r>   -13.1818     0.0000     2.0000 </r>
       <r>   -12.9798     0.0000     2.0000 </r>
       <r>   -12.7778     0.0000     2.0000 </r>
       <r>   -12.5758     0.0000     2.0000 </r>
       <r>   -12.3737     0.0000     2.0000 </r>
       <r>   -12.1717     0.0000     2.0000 </r>
       <r>   -11.9697     2.7136     2.5482 </r>
       <r>   -11.7677     2.2364     3.0000 </r>
       <r>   -11.5657     0.0000     3.0000 </r>
       <r>   -11.3636     0.0000     3.0000 </r>
       <r>   -11.1616     0.0000     3.0000 </r>
       <r>   -10.9596     0.0000     3.0000 </r>
       <r>   -10.7576     0.0000     3.0000 </r>
       <r>   -10.5556     0.0000     3.0000 </r>
       <r>   -10.3535     0.0000     3.0000 </r>
       <r>   -10.1515     0.0000     3.0000 </r>
       <r>    -9.9495     0.0000     3.0000 </r>
       <r>    -9.7475     0.0000     3.0000 </r>
       <r>    -9.5455     1.2312     3.2487 </r>
       <r>    -9.3434     8.4770     4.9612 </r>
       <r>    -9.1414     0.1918     5.0000 </r>
       <r>    -8.9394     0.0000     5.0000 </r>
       <r>    -8.7374     0.0000     5.0000 </r>
       <r>    -8.5354     0.0000     5.0000 </r>
       <r>    -8.3333     0.0000     5.0000 </r>
       <r>    -8.1313     0.0000     5.0000 </r>
       <r>    -7.9293     0.0022     5.0004 </r>
       <r>    -7.7273     4.9064     5.9917 </r>
       <r>    -7.5253     0.0413     6.0000 </r>
       <r>    -7.3232     0.0000     6.0000 </r>
       <r>    -7.1212     0.0000     6.0000 </r>
       <r>    -6.9192     0.0000     6.0000 </r>
       <r>    -6.7172     0.0000     6.0000 </r>
       <r>    -6.5152     0.0107     6.0022 </r>
       <r>    -6.3131    10.1069     8.0440 </r>
       <r>    -6.1111     4.9429     9.0425 </r>
       <r>    -5.9091     9.5106    10.9639 </r>
       <r>    -5.7071     9.4261    12.8681 </r>
       <r>    -5.5051    14.8419    15.8665 </r>
       <r>    -5.3030    10.0174    17.8902 </r>
       <r>    -5.1010     9.1387    19.7364 </r>
       <r>    -4.8990    14.1031    22.5855 </r>
       <r>    -4.6970    16.6241    25.9439 </r>
       <r>    -4.4949    14.5168    28.8766 </r>
       <r>    -4.2929     7.2161    30.3344 </r>
       <r>    -4.0909    21.0298    34.5829 </r>
       <r>    -3.8889    30.6891    40.7827 </r>
       <r>    -3.6869    18.6581    44.5520 </r>
       <r>    -3.4848    12.3377    47.0445 </r>
       <r>    -3.2828    19.1050    50.9041 </r>
       <r>    -3.0808    27.7158    56.5032 </r>
       <r>    -2.8788    23.1643    61.1829 </r>
       <r>    -2.6768    37.5687    68.7725 </r>
       <r>    -2.4747    29.7106    74.7746 </r>
       <r>    -2.2727    25.1600    79.8575 </r>
       <r>    -2.0707     4.0907    80.6839 </r>
       <r>    -1.8687     6.3387    81.9644 </r>
       <r>    -1.6667     1.8976    82.3478 </r>
       <r>    -1.4646     3.2587    83.0061 </r>
       <r>    -1.2626     4.9560    84.0073 </r>
       <r>    -1.0606     4.9128    84.9998 </r>
       <r>    -0.8586     9.6932    86.9580 </r>
       <r>    -0.6566     5.1579    88.0000 </r>
       <r>    -0.4545     0.0000    88.0000 </r>
       <r>    -0.2525     0.0000    88.0000 </r>
       <r>    -0.0505     0.0000    88.0000 </r>
       <r>     0.1515     0.0000    88.0000 </r>
       <r>     0.3535     0.0000    88.0000 </r>
       <r>     0.5556     0.0000    88.0000 </r>
       <r>     0.7576     0.0000    88.0000 </r>
       <r>     0.9596     0.0000    88.0000 </r>
       <r>     1.1616     0.0000    88.0000 </r>
       <r>     1.3636     0.0000    88.0000 </r>
       <r>     1.5657     0.0000    88.0000 </r>
       <r>     1.7677     0.0000    88.0000 </r>
       <r>     1.9697     0.0000    88.0000 </r>
       <r>     2.1717     0.0000    88.0000 </r>
       <r>     2.3737     0.0000    88.0000 </r>
       <r>     2.5758     0.0000    88.0000 </r>
       <r>     2.7778     0.0000    88.0000 </r>
       <r>     2.9798     0.0000    88.0000 </r>
       <r>     3.1818     0.0000    88.0000 </r>
       <r>     3.3838     0.0000    88.0000 </r>
       <r>     3.5859     0.0000    88.0000 </r>
       <r>     3.7879     0.0000    88.0000 </r>
       <r>     3.9899     0.0000    88.0000 </r>
       <r>     4.1919     0.0000    88.0000 </r>
       <r>     4.3939     0.0000    88.0000 </r>
       <r>     4.5960     0.0000    88.0000 </r>
       <r>     4.7980     0.0000    88.0000 </r>
       <r>     5.0000     0.0000    88.0000 </r>
      </set>
     </set>
    </array>
   </total>
   <partial>
    <array>
     <dimension dim="1">gridpoints</dimension>
     <dimension dim="2">spin</dimension>
     <dimension dim="3">ion</dimension>
     <field>energy</field>
     <field>    s</field>
     <field>   py</field>
     <field>   pz</field>
     <field>   px</field>
     <field>  dxy</field>
     <field>  dyz</field>
     <field>  dz2</field>
     <field>  dxz</field>
     <field>x2-y2</field>
     <set>
      <set comment="ion 1">
       <set comment="spin 1">
        <r>   -15.0000     0.0000     0.0000     0.0000     0.0000     0.0000     0.0000     0.0000     0.0000     0.0000 </r>
        <r>   -14.7980     0.0000     0.0000     0.0000     0.0000     0.0000     0.0000     0.0000     0.0000     0.0000 </r>
        <r>   -14.5960     0.0000     0.0000     0.0000     0.0000     0.0000     0.0000     0.0000     0.0000     0.0000 </r>
        <r>   -14.3939     0.0000     0.0000     0.0000     0.0000     0.0000     0.0000     0.0000     0.0000     0.0000 </r>
        <r>   -14.1919     0.0000     0.0000     0.0000     0.0000     0.0000     0.0000     0.0000     0.0000     0.0000 </r>
        <r>   -13.9899     0.0000     0.0000     0.0000     0.0000     0.0000     0.0000     0.0000     0.0000     0.0000 </r>
        <r>   -13.7879     0.0000     0.0000     0.0000     0.0000     0.0000     0.0000     0.0000     0.0000     0.0000 </r>
        <r>   -13.5859     0.0000     0.0000     0.0000     0.0000     0.0000     0.0000     0.0000     0.0000     0.0000 </r>
        <r>   -13.3838     0.0000     0.0000     0.0000     0.0000     0.0000     0.0000     0.0000     0.0000     0.0000 </r>
        <r>   -13.1818     0.0000     0.0000     0.0000     0.0000     0.0000     0.0000     0.0000     0.0000     0.0000 </r>
        <r>   -12.9798     0.0000     0.0000     0.0000     0.0000     0.0000     0.0000     0.0000     0.0000     0.0000 </r>
        <r>   -12.7778     0.0000     0.0000     0.0000     0.0000     0.0000     0.0000     0.0000     0.0000     0.0000 </r>
        <r>   -12.5758     0.0000     0.0000     0.0000     0.0000     0.0000     0.0000     0.0000     0.0000     0.0000 </r>
        <r>   -12.3737     0.0000     0.0000     0.0000     0.0000     0.0000     0.0000     0.0000     0.0000     0.0000 </r>
        <r>   -12.1717     0.0000     0.0000     0.0000     0.0000     0.0000     0.0000     0.0000     0.0000     0.0000 </r>
        <r>   -11.9697     0.0000     0.0000     0.0000     0.0000     0.0000     0.0000     0.0000     0.0000     0.0000 </r>
        <r>   -11.7677     0.0000     0.0000     0.0000     0.0000     0.0000     0.0000     0.0000     0.0000     0.0000 </r>
        <r>   -11.5657     0.0000     0.0000     0.0000     0.0000     0.0000     0.0000     0.0000     0.0000     0.0000 </r>
        <r>   -11.3636     0.0000     0.0000     0.0000     0.0000     0.0000     0.0000     0.0000     0.0000     0.0000 </r>
        <r>   -11.1616     0.0000     0.0000     0.0000     0.0000     0.0000     0.0000     0.0000     0.0000     0.0000 </r>
        <r>   -10.9596     0.0000     0.0000     0.0000     0.0000     0.0000     0.0000     0.0000     0.0000     0.0000 </r>
        <r>   -10.7576     0.0000     0.0000     0.0000     0.0000     0.0000     0.0000     0.0000     0.0000     0.0000 </r>
        <r>   -10.5556     0.0000     0.0000     0.0000     0.0000     0.0000     0.0000     0.0000     0.0000     0.0000 </r>
        <r>   -10.3535     0.0000     0.0000     0.0000     0.0000     0.0000     0.0000     0.0000     0.0000     0.0000 </r>
        <r>   -10.1515     0.0000     0.0000     0.0000     0.0000     0.0000     0.0000     0.0000     0.0000     0.0000 </r>
        <r>    -9.9495     0.0000     0.0000     0.0000     0.0000     0.0000     0.0000     0.0000     0.0000     0.0000 </r>
        <r>    -9.7475     0.0000     0.0000     0.0000     0.0000     0.0000     0.0000     0.0000     0.0000     0.0000 </r>
        <r>    -9.5455     0.0000     0.0000     0.0000     0.0000     0.0000     0.0000     0.0000     0.0000     0.0000 </r>
        <r>    -9.3434     0.0000     0.0000     0.0000     0.0000     0.0000     0.0000     0.0000     0.0000     0.0000 </r>
        <r>    -9.1414     0.0000     0.0000     0.0000     0.0000     0.0000     0.0000     0.0000     0.0000     0.0000 </r>
        <r>    -8.9394     0.0000     0.0000     0.0000     0.0000     0.0000     0.0000     0.0000     0.0000     0.0000 </r>
        <r>    -8.7374     0.0000     0.0000     0.0000     0.0000     0.0000     0.0000     0.0000     0.0000     0.0000 </r>
        <r>    -8.5354     0.0000     0.0000     0.0000     0.0000     0.0000     0.0000     0.0000     0.0000     0.0000 </r>
        <r>    -8.3333     0.0003     0.0000     0.0000     0.0000     0.0001     0.0000     0.0002     0.0000     0.0000 </r>
        <r>    -8.1313     0.0019     0.0002     0.0000     0.0001     0.0008     0.0000     0.0010     0.0000     0.0003 </r>
        <r>    -7.9293     0.0000     0.0000     0.0000     0.0000     0.0000     0.0000     0.0000     0.0000     0.0000 </r>
        <r>    -7.7273     0.0000     0.0000     0.0000     0.0000     0.0000     0.0000     0.0000     0.0000     0.0000 </r>
        <r>    -7.5253     0.0000     0.0000     0.0000     0.0000     0.0000     0.0000     0.0000     0.0000     0.0000 </r>
        <r>    -7.3232     0.0052     0.0006     0.0000     0.0001     0.0026     0.0019     0.0119     0.0005     0.0046 </r>
        <r>    -7.1212     0.0076     0.0001     0.0000     0.0003     0.0026     0.0036     0.0568     0.0030     0.0078 </r>
        <r>    -6.9192     0.0709     0.0078     0.0004     0.0017     0.0743     0.1512     1.5634     0.0370     0.0956 </r>
        <r>    -6.7172     0.0351     0.0059     0.0001     0.0011     0.5620     0.7235     1.2454     2.8366     0.5044 </r>
        <r>    -6.5152     0.0191     0.0020     0.0003     0.0006     0.1443     0.1511     0.9047     0.8823     0.6619 </r>
        <r>    -6.3131     0.0349     0.0031     0.0027     0.0002     0.1245     1.4189     0.5833     0.0518     1.2118 </r>
        <r>    -6.1111     0.0198     0.0007     0.0002     0.0025     1.4974     0.0866     0.0135     0.2210     0.0569 </r>
        <r>    -5.9091     0.0128     0.0005     0.0002     0.0003     0.0507     0.0641     0.0111     0.0169     0.0212 </r>
        <r>    -5.7071     0.4945     0.0103     0.0046     0.0030     0.6814     1.1466     0.1515     0.2597     0.7185 </r>
        <r>    -5.5051     0.1309     0.0052     0.0009     0.0041     0.9515     0.6658     0.0617     0.2924     1.1752 </r>
        <r>    -5.3030     0.0624     0.0014     0.0006     0.0005     0.2321     0.1236     0.0121     0.0241     0.0599 </r>
        <r>    -5.1010     0.0107     0.0053     0.0002     0.0006     0.0342     0.0182     0.0001     0.0007     0.0127 </r>
        <r>    -4.8990     0.0480     0.0027     0.0008     0.0003     0.0336     0.0184     0.0002     0.0028     0.0092 </r>
        <r>    -4.6970     0.0356     0.0184     0.0001     0.0023     0.1169     0.0046     0.0003     0.0021     0.0095 </r>
        <r>    -4.4949     0.0331     0.0149     0.0006     0.0007     0.0425     0.0045     0.0007     0.0012     0.0078 </r>
        <r>    -4.2929     0.0898     0.0023     0.0000     0.0008     0.0015     0.0028     0.0027     0.0002     0.0042 </r>
        <r>    -4.0909     0.0490     0.0210     0.0004     0.0006     0.0145     0.0035     0.0017     0.0002     0.0048 </r>
        <r>    -3.8889     0.0112     0.0060     0.0000     0.0002     0.0040     0.0007     0.0004     0.0001     0.0013 </r>
        <r>    -3.6869     0.0354     0.0255     0.0033     0.0017     0.0056     0.0079     0.0001     0.0007     0.0001 </r>
        <r>    -3.4848     0.0005     0.0010     0.0001     0.0001     0.0002     0.0000     0.0000     0.0000     0.0000 </r>
        <r>    -3.2828     0.2380     0.0001     0.0005     0.0164     0.0019     0.0003     0.0051     0.0000     0.0050 </r>
        <r>    -3.0808     0.0253     0.0000     0.0010     0.0006     0.0005     0.0005     0.0006     0.0000     0.0009 </r>
        <r>    -2.8788     0.0003     0.0000     0.0000     0.0000     0.0000     0.0000     0.0000     0.0000     0.0000 </r>
        <r>    -2.6768     0.0331     0.0201     0.0053     0.0000     0.0001     0.0008     0.0009     0.0002     0.0076 </r>
        <r>    -2.4747     0.0624     0.0386     0.0112     0.0006     0.0004     0.0019     0.0016     0.0005     0.0142 </r>
        <r>    -2.2727     0.0019     0.0043     0.0053     0.0025     0.0005     0.0022     0.0001     0.0004     0.0000 </r>
        <r>    -2.0707     0.0000     0.0000     0.0000     0.0004     0.0000     0.0000     0.0000     0.0000     0.0000 </r>
        <r>    -1.8687     0.0073     0.0002     0.0068     0.0862     0.0034     0.0011     0.0010     0.0005     0.0008 </r>
        <r>    -1.6667     0.0146     0.0804     0.0726     0.0199     0.0002     0.0027     0.0005     0.0003     0.0016 </r>
        <r>    -1.4646     0.0002     0.0110     0.0252     0.0039     0.0000     0.0006     0.0001     0.0001     0.0004 </r>
        <r>    -1.2626     0.0081     0.0467     0.1541     0.0289     0.0002     0.0015     0.0005     0.0001     0.0005 </r>
        <r>    -1.0606     0.0000     0.0002     0.0003     0.0000     0.0000     0.0000     0.0000     0.0000     0.0000 </r>
        <r>    -0.8586     0.0000     0.0000     0.0000     0.0000     0.0000     0.0000     0.0000     0.0000     0.0000 </r>
        <r>    -0.6566     0.0000     0.0000     0.0000     0.0000     0.0000     0.0000     0.0000     0.0000     0.0000 </r>
        <r>    -0.4545     0.0000     0.0000     0.0000     0.0000     0.0000     0.0000     0.0000     0.0000     0.0000 </r>
        <r>    -0.2525     0.0000     0.0000     0.0000     0.0000     0.0000     0.0000     0.0000     0.0000     0.0000 </r>
        <r>    -0.0505     0.0000     0.0000     0.0000     0.0000     0.0000     0.0000     0.0000     0.0000     0.0000 </r>
        <r>     0.1515     0.0000     0.0000     0.0000     0.0000     0.0000     0.0000     0.0000     0.0000     0.0000 </r>
        <r>     0.3535     0.0000     0.0000     0.0000     0.0000     0.0000     0.0000     0.0000     0.0000     0.0000 </r>
        <r>     0.5556     0.0000     0.0000     0.0000     0.0000     0.0000     0.0000     0.0000     0.0000     0.0000 </r>
        <r>     0.7576     0.0000     0.0000     0.0000     0.0000     0.0000     0.0000     0.0000     0.0000     0.0000 </r>
        <r>     0.9596     0.0000     0.0000     0.0000     0.0000     0.0000     0.0000     0.0000     0.0000     0.0000 </r>
        <r>     1.1616     0.0000     0.0000     0.0000     0.0000     0.0000     0.0000     0.0000     0.0000     0.0000 </r>
        <r>     1.3636     0.0000     0.0000     0.0000     0.0000     0.0000     0.0000     0.0000     0.0000     0.0000 </r>
        <r>     1.5657     0.0000     0.0000     0.0000     0.0000     0.0000     0.0000     0.0000     0.0000     0.0000 </r>
        <r>     1.7677     0.0000     0.0000     0.0000     0.0000     0.0000     0.0000     0.0000     0.0000     0.0000 </r>
        <r>     1.9697     0.0000     0.0000     0.0000     0.0000     0.0000     0.0000     0.0000     0.0000     0.0000 </r>
        <r>     2.1717     0.0000     0.0000     0.0000     0.0000     0.0000     0.0000     0.0000     0.0000     0.0000 </r>
        <r>     2.3737     0.0000     0.0000     0.0000     0.0000     0.0000     0.0000     0.0000     0.0000     0.0000 </r>
        <r>     2.5758     0.0000     0.0000     0.0000     0.0000     0.0000     0.0000     0.0000     0.0000     0.0000 </r>
        <r>     2.7778     0.0000     0.0000     0.0000     0.0000     0.0000     0.0000     0.0000     0.0000     0.0000 </r>
        <r>     2.9798     0.0000     0.0000     0.0000     0.0000     0.0000     0.0000     0.0000     0.0000     0.0000 </r>
        <r>     3.1818     0.0000     0.0000     0.0000     0.0000     0.0000     0.0000     0.0000     0.0000     0.0000 </r>
        <r>     3.3838     0.0000     0.0000     0.0000     0.0000     0.0000     0.0000     0.0000     0.0000     0.0000 </r>
        <r>     3.5859     0.0000     0.0000     0.0000     0.0000     0.0000     0.0000     0.0000     0.0000     0.0000 </r>
        <r>     3.7879     0.0000     0.0000     0.0000     0.0000     0.0000     0.0000     0.0000     0.0000     0.0000 </r>
        <r>     3.9899     0.0000     0.0000     0.0000     0.0000     0.0000     0.0000     0.0000     0.0000     0.0000 </r>
        <r>     4.1919     0.0000     0.0000     0.0000     0.0000     0.0000     0.0000     0.0000     0.0000     0.0000 </r>
        <r>     4.3939     0.0000     0.0000     0.0000     0.0000     0.0000     0.0000     0.0000     0.0000     0.0000 </r>
        <r>     4.5960     0.0000     0.0000     0.0000     0.0000     0.0000     0.0000     0.0000     0.0000     0.0000 </r>
        <r>     4.7980     0.0000     0.0000     0.0000     0.0000     0.0000     0.0000     0.0000     0.0000     0.0000 </r>
        <r>     5.0000     0.0000     0.0000     0.0000     0.0000     0.0000     0.0000     0.0000     0.0000     0.0000 </r>
       </set>
       <set comment="spin 2">
        <r>   -15.0000     0.0000     0.0000     0.0000     0.0000     0.0000     0.0000     0.0000     0.0000     0.0000 </r>
        <r>   -14.7980     0.0000     0.0000     0.0000     0.0000     0.0000     0.0000     0.0000     0.0000     0.0000 </r>
        <r>   -14.5960     0.0000     0.0000     0.0000     0.0000     0.0000     0.0000     0.0000     0.0000     0.0000 </r>
        <r>   -14.3939     0.0000     0.0000     0.0000     0.0000     0.0000     0.0000     0.0000     0.0000     0.0000 </r>
        <r>   -14.1919     0.0000     0.0000     0.0000     0.0000     0.0000     0.0000     0.0000     0.0000     0.0000 </r>
        <r>   -13.9899     0.0000     0.0000     0.0000     0.0000     0.0000     0.0000     0.0000     0.0000     0.0000 </r>
        <r>   -13.7879     0.0000     0.0000     0.0000     0.0000     0.0000     0.0000     0.0000     0.0000     0.0000 </r>
        <r>   -13.5859     0.0000     0.0000     0.0000     0.0000     0.0000     0.0000     0.0000     0.0000     0.0000 </r>
        <r>   -13.3838     0.0000     0.0000     0.0000     0.0000     0.0000     0.0000     0.0000     0.0000     0.0000 </r>
        <r>   -13.1818     0.0000     0.0000     0.0000     0.0000     0.0000     0.0000     0.0000     0.0000     0.0000 </r>
        <r>   -12.9798     0.0000     0.0000     0.0000     0.0000     0.0000     0.0000     0.0000     0.0000     0.0000 </r>
        <r>   -12.7778     0.0000     0.0000     0.0000     0.0000     0.0000     0.0000     0.0000     0.0000     0.0000 </r>
        <r>   -12.5758     0.0000     0.0000     0.0000     0.0000     0.0000     0.0000     0.0000     0.0000     0.0000 </r>
        <r>   -12.3737     0.0000     0.0000     0.0000     0.0000     0.0000     0.0000     0.0000     0.0000     0.0000 </r>
        <r>   -12.1717     0.0000     0.0000     0.0000     0.0000     0.0000     0.0000     0.0000     0.0000     0.0000 </r>
        <r>   -11.9697     0.0000     0.0000     0.0000     0.0000     0.0000     0.0000     0.0000     0.0000     0.0000 </r>
        <r>   -11.7677     0.0000     0.0000     0.0000     0.0000     0.0000     0.0000     0.0000     0.0000     0.0000 </r>
        <r>   -11.5657     0.0000     0.0000     0.0000     0.0000     0.0000     0.0000     0.0000     0.0000     0.0000 </r>
        <r>   -11.3636     0.0000     0.0000     0.0000     0.0000     0.0000     0.0000     0.0000     0.0000     0.0000 </r>
        <r>   -11.1616     0.0000     0.0000     0.0000     0.0000     0.0000     0.0000     0.0000     0.0000     0.0000 </r>
        <r>   -10.9596     0.0000     0.0000     0.0000     0.0000     0.0000     0.0000     0.0000     0.0000     0.0000 </r>
        <r>   -10.7576     0.0000     0.0000     0.0000     0.0000     0.0000     0.0000     0.0000     0.0000     0.0000 </r>
        <r>   -10.5556     0.0000     0.0000     0.0000     0.0000     0.0000     0.0000     0.0000     0.0000     0.0000 </r>
        <r>   -10.3535     0.0000     0.0000     0.0000     0.0000     0.0000     0.0000     0.0000     0.0000     0.0000 </r>
        <r>   -10.1515     0.0000     0.0000     0.0000     0.0000     0.0000     0.0000     0.0000     0.0000     0.0000 </r>
        <r>    -9.9495     0.0000     0.0000     0.0000     0.0000     0.0000     0.0000     0.0000     0.0000     0.0000 </r>
        <r>    -9.7475     0.0000     0.0000     0.0000     0.0000     0.0000     0.0000     0.0000     0.0000     0.0000 </r>
        <r>    -9.5455     0.0000     0.0000     0.0000     0.0000     0.0000     0.0000     0.0000     0.0000     0.0000 </r>
        <r>    -9.3434     0.0000     0.0000     0.0000     0.0000     0.0000     0.0000     0.0000     0.0000     0.0000 </r>
        <r>    -9.1414     0.0000     0.0000     0.0000     0.0000     0.0000     0.0000     0.0000     0.0000     0.0000 </r>
        <r>    -8.9394     0.0000     0.0000     0.0000     0.0000     0.0000     0.0000     0.0000     0.0000     0.0000 </r>
        <r>    -8.7374     0.0000     0.0000     0.0000     0.0000     0.0000     0.0000     0.0000     0.0000     0.0000 </r>
        <r>    -8.5354     0.0000     0.0000     0.0000     0.0000     0.0000     0.0000     0.0000     0.0000     0.0000 </r>
        <r>    -8.3333     0.0000     0.0000     0.0000     0.0000     0.0000     0.0000     0.0000     0.0000     0.0000 </r>
        <r>    -8.1313     0.0000     0.0000     0.0000     0.0000     0.0000     0.0000     0.0000     0.0000     0.0000 </r>
        <r>    -7.9293     0.0000     0.0000     0.0000     0.0000     0.0000     0.0000     0.0000     0.0000     0.0000 </r>
        <r>    -7.7273     0.0030     0.0004     0.0000     0.0002     0.0005     0.0000     0.0004     0.0000     0.0002 </r>
        <r>    -7.5253     0.0000     0.0000     0.0000     0.0000     0.0000     0.0000     0.0000     0.0000     0.0000 </r>
        <r>    -7.3232     0.0000     0.0000     0.0000     0.0000     0.0000     0.0000     0.0000     0.0000     0.0000 </r>
        <r>    -7.1212     0.0000     0.0000     0.0000     0.0000     0.0000     0.0000     0.0000     0.0000     0.0000 </r>
        <r>    -6.9192     0.0000     0.0000     0.0000     0.0000     0.0000     0.0000     0.0000     0.0000     0.0000 </r>
        <r>    -6.7172     0.0000     0.0000     0.0000     0.0000     0.0000     0.0000     0.0000     0.0000     0.0000 </r>
        <r>    -6.5152     0.0000     0.0000     0.0000     0.0000     0.0000     0.0000     0.0000     0.0000     0.0000 </r>
        <r>    -6.3131     0.0158     0.0013     0.0000     0.0005     0.0015     0.0002     0.0019     0.0002     0.0024 </r>
        <r>    -6.1111     0.0098     0.0006     0.0000     0.0005     0.0018     0.0001     0.0017     0.0000     0.0023 </r>
        <r>    -5.9091     0.0175     0.0001     0.0005     0.0001     0.0005     0.0020     0.0005     0.0003     0.0030 </r>
        <r>    -5.7071     0.0551     0.0000     0.0001     0.0019     0.0021     0.0002     0.0092     0.0009     0.0057 </r>
        <r>    -5.5051     0.1981     0.0022     0.0008     0.0039     0.0069     0.0011     0.0205     0.0017     0.0282 </r>
        <r>    -5.3030     0.2739     0.0244     0.0003     0.0044     0.0402     0.0113     0.0225     0.0005     0.0327 </r>
        <r>    -5.1010     0.0785     0.0069     0.0000     0.0013     0.0104     0.0033     0.0066     0.0001     0.0082 </r>
        <r>    -4.8990     0.0309     0.0266     0.0001     0.0004     0.0660     0.0180     0.0024     0.0011     0.0090 </r>
        <r>    -4.6970     0.0615     0.0087     0.0004     0.0006     0.0357     0.0075     0.0074     0.0007     0.0107 </r>
        <r>    -4.4949     0.0012     0.0051     0.0001     0.0006     0.0077     0.0042     0.0006     0.0011     0.0070 </r>
        <r>    -4.2929     0.0020     0.0011     0.0000     0.0002     0.0030     0.0017     0.0004     0.0009     0.0046 </r>
        <r>    -4.0909     0.0373     0.0029     0.0003     0.0008     0.0217     0.0546     0.0154     0.0046     0.0148 </r>
        <r>    -3.8889     0.0170     0.0035     0.0127     0.0056     0.7238     1.5800     0.1946     0.3169     0.1251 </r>
        <r>    -3.6869     0.0431     0.0059     0.0012     0.0043     1.1191     0.2238     0.0205     0.6246     0.7225 </r>
        <r>    -3.4848     0.0316     0.0175     0.0019     0.0021     0.1872     0.2653     0.0667     0.0539     0.3910 </r>
        <r>    -3.2828     0.0648     0.0135     0.0013     0.0015     0.3684     0.2861     0.2613     0.4430     0.1290 </r>
        <r>    -3.0808     0.0540     0.0097     0.0013     0.0015     0.0702     0.2648     1.2720     0.4801     0.0949 </r>
        <r>    -2.8788     0.0702     0.0079     0.0041     0.0025     0.1430     0.2023     1.0423     1.7548     0.1984 </r>
        <r>    -2.6768     0.0342     0.0062     0.0049     0.0041     0.3030     1.1351     0.6971     0.5507     1.5586 </r>
        <r>    -2.4747     0.1167     0.0218     0.0030     0.0189     0.3984     0.2693     0.2455     0.1145     0.5130 </r>
        <r>    -2.2727     0.0379     0.0199     0.0013     0.0087     0.7119     0.0420     0.4975     0.1063     0.3153 </r>
        <r>    -2.0707     0.0007     0.0022     0.0000     0.0014     0.0447     0.0018     0.0152     0.0034     0.0148 </r>
        <r>    -1.8687     0.0251     0.0094     0.0066     0.0030     0.0487     0.0196     0.0134     0.0095     0.0093 </r>
        <r>    -1.6667     0.0285     0.0221     0.0042     0.0009     0.0100     0.0017     0.0076     0.0008     0.0530 </r>
        <r>    -1.4646     0.0517     0.0409     0.0075     0.0019     0.0159     0.0019     0.0134     0.0008     0.0988 </r>
        <r>    -1.2626     0.0070     0.0099     0.0056     0.0585     0.0021     0.0044     0.0110     0.0014     0.0016 </r>
        <r>    -1.0606     0.0058     0.0414     0.0571     0.0189     0.0011     0.0131     0.0000     0.0051     0.0011 </r>
        <r>    -0.8586     0.0108     0.0237     0.0494     0.0384     0.0020     0.0073     0.0013     0.0025     0.0058 </r>
        <r>    -0.6566     0.0007     0.0112     0.0487     0.0035     0.0006     0.0058     0.0011     0.0018     0.0028 </r>
        <r>    -0.4545     0.0000     0.0000     0.0000     0.0000     0.0000     0.0000     0.0000     0.0000     0.0000 </r>
        <r>    -0.2525     0.0000     0.0000     0.0000     0.0000     0.0000     0.0000     0.0000     0.0000     0.0000 </r>
        <r>    -0.0505     0.0000     0.0000     0.0000     0.0000     0.0000     0.0000     0.0000     0.0000     0.0000 </r>
        <r>     0.1515     0.0000     0.0000     0.0000     0.0000     0.0000     0.0000     0.0000     0.0000     0.0000 </r>
        <r>     0.3535     0.0000     0.0000     0.0000     0.0000     0.0000     0.0000     0.0000     0.0000     0.0000 </r>
        <r>     0.5556     0.0000     0.0000     0.0000     0.0000     0.0000     0.0000     0.0000     0.0000     0.0000 </r>
        <r>     0.7576     0.0000     0.0000     0.0000     0.0000     0.0000     0.0000     0.0000     0.0000     0.0000 </r>
        <r>     0.9596     0.0000     0.0000     0.0000     0.0000     0.0000     0.0000     0.0000     0.0000     0.0000 </r>
        <r>     1.1616     0.0000     0.0000     0.0000     0.0000     0.0000     0.0000     0.0000     0.0000     0.0000 </r>
        <r>     1.3636     0.0000     0.0000     0.0000     0.0000     0.0000     0.0000     0.0000     0.0000     0.0000 </r>
        <r>     1.5657     0.0000     0.0000     0.0000     0.0000     0.0000     0.0000     0.0000     0.0000     0.0000 </r>
        <r>     1.7677     0.0000     0.0000     0.0000     0.0000     0.0000     0.0000     0.0000     0.0000     0.0000 </r>
        <r>     1.9697     0.0000     0.0000     0.0000     0.0000     0.0000     0.0000     0.0000     0.0000     0.0000 </r>
        <r>     2.1717     0.0000     0.0000     0.0000     0.0000     0.0000     0.0000     0.0000     0.0000     0.0000 </r>
        <r>     2.3737     0.0000     0.0000     0.0000     0.0000     0.0000     0.0000     0.0000     0.0000     0.0000 </r>
        <r>     2.5758     0.0000     0.0000     0.0000     0.0000     0.0000     0.0000     0.0000     0.0000     0.0000 </r>
[...]
        <r>  0.0000  0.0007  0.0001  0.0002  0.0000  0.0000  0.0088  0.0230  0.0092 </r>
        <r>  0.0017  0.0002  0.0003  0.0010  0.0000  0.0001  0.0015  0.1691  0.0999 </r>
        <r>  0.0014  0.0000  0.0004  0.0000  0.0122  0.0000  0.0048  0.0005  0.0243 </r>
        <r>  0.0045  0.0027  0.0004  0.0001  0.0020  0.0104  0.0001  0.0004  0.0056 </r>
        <r>  0.0006  0.0006  0.0013  0.0006  0.0004  0.0037  0.0338  0.0241  0.0066 </r>
        <r>  0.0031  0.0017  0.0014  0.0016  0.0664  0.0580  0.0003  0.0973  0.0077 </r>
        <r>  0.0015  0.0001  0.0003  0.0013  0.0003  0.0000  0.0000  0.0597  0.0226 </r>
        <r>  0.0042  0.0010  0.0002  0.0000  0.0004  0.0013  0.0003  0.0003  0.0033 </r>
        <r>  0.0003  0.0003  0.0002  0.0004  0.0107  0.0035  0.0011  0.0004  0.0004 </r>
        <r>  0.0006  0.0000  0.0002  0.0001  0.0008  0.0002  0.0004  0.0005  0.0002 </r>
        <r>  0.0006  0.0001  0.0003  0.0005  0.0017  0.0057  0.0018  0.0004  0.0004 </r>
        <r>  0.0001  0.0003  0.0003  0.0001  0.0005  0.0002  0.0003  0.0002  0.0006 </r>
        <r>  0.0000  0.0000  0.0001  0.0001  0.0000  0.0000  0.0000  0.0000  0.0000 </r>
        <r>  0.0000  0.0000  0.0000  0.0000  0.0000  0.0000  0.0000  0.0000  0.0000 </r>
        <r>  0.0000  0.0000  0.0000  0.0000  0.0000  0.0000  0.0000  0.0000  0.0000 </r>
       </set>
       <set comment="band 78">
        <r>  0.0018  0.0020  0.0001  0.0011  0.0110  0.0023  0.0143  0.0008  0.0028 </r>
        <r>  0.0041  0.0001  0.0002  0.0008  0.0297  0.0014  0.0254  0.0324  0.0104 </r>
        <r>  0.0000  0.0021  0.0002  0.0023  0.0010  0.0082  0.0003  0.0520  0.0637 </r>
        <r>  0.0014  0.0004  0.0007  0.0001  0.0030  0.0315  0.0097  0.0090  0.0508 </r>
        <r>  0.0014  0.0030  0.0002  0.0064  0.0165  0.0087  0.0072  0.0000  0.0277 </r>
        <r>  0.0002  0.0000  0.0010  0.0001  0.0000  0.0020  0.0182  0.0345  0.0017 </r>
        <r>  0.0063  0.0005  0.0011  0.0034  0.0030  0.0073  0.0003  0.0123  0.0000 </r>
        <r>  0.0016  0.0001  0.0002  0.0036  0.0005  0.0019  0.0067  0.1059  0.0309 </r>
        <r>  0.0016  0.0000  0.0001  0.0003  0.0003  0.0000  0.0005  0.0003  0.0011 </r>
        <r>  0.0169  0.0006  0.0000  0.0010  0.0000  0.0002  0.0002  0.0000  0.0000 </r>
        <r>  0.0022  0.0000  0.0001  0.0003  0.0001  0.0001  0.0000  0.0008  0.0000 </r>
        <r>  0.0000  0.0010  0.0002  0.0012  0.0000  0.0027  0.0005  0.0001  0.0060 </r>
        <r>  0.0022  0.0015  0.0005  0.0002  0.0009  0.0000  0.0001  0.0012  0.0031 </r>
        <r>  0.0000  0.0000  0.0000  0.0004  0.0000  0.0000  0.0000  0.0000  0.0000 </r>
        <r>  0.0000  0.0000  0.0000  0.0001  0.0000  0.0000  0.0000  0.0000  0.0000 </r>
        <r>  0.0000  0.0000  0.0000  0.0000  0.0000  0.0000  0.0000  0.0000  0.0000 </r>
       </set>
       <set comment="band 79">
        <r>  0.0019  0.0007  0.0000  0.0005  0.0860  0.0000  0.0674  0.0144  0.0415 </r>
        <r>  0.0019  0.0001  0.0002  0.0002  0.0219  0.0051  0.0256  0.0089  0.0494 </r>
        <r>  0.0002  0.0004  0.0000  0.0001  0.0009  0.0038  0.0001  0.0059  0.0000 </r>
        <r>  0.0016  0.0002  0.0008  0.0001  0.0000  0.0738  0.0014  0.0000  0.0245 </r>
        <r>  0.0040  0.0008  0.0001  0.0018  0.0788  0.0054  0.0405  0.0031  0.0729 </r>
        <r>  0.0002  0.0000  0.0013  0.0001  0.0000  0.0064  0.0427  0.0017  0.0031 </r>
        <r>  0.0079  0.0011  0.0000  0.0002  0.0117  0.0075  0.0006  0.0123  0.0091 </r>
        <r>  0.0001  0.0000  0.0002  0.0010  0.0096  0.0002  0.0259  0.0038  0.0177 </r>
        <r>  0.0002  0.0001  0.0003  0.0001  0.0003  0.0006  0.0000  0.0001  0.0000 </r>
        <r>  0.0048  0.0013  0.0002  0.0009  0.0044  0.0004  0.0007  0.0000  0.0002 </r>
        <r>  0.0041  0.0006  0.0000  0.0005  0.0003  0.0000  0.0003  0.0007  0.0008 </r>
        <r>  0.0021  0.0009  0.0000  0.0000  0.0004  0.0000  0.0001  0.0000  0.0013 </r>
        <r>  0.0000  0.0000  0.0000  0.0003  0.0004  0.0009  0.0001  0.0008  0.0045 </r>
        <r>  0.0000  0.0000  0.0000  0.0001  0.0000  0.0000  0.0000  0.0000  0.0000 </r>
        <r>  0.0000  0.0000  0.0000  0.0000  0.0000  0.0000  0.0000  0.0000  0.0000 </r>
        <r>  0.0000  0.0000  0.0000  0.0000  0.0000  0.0000  0.0000  0.0000  0.0000 </r>
       </set>
       <set comment="band 80">
        <r>  0.0008  0.0012  0.0000  0.0000  0.0349  0.0001  0.0142  0.0034  0.0140 </r>
        <r>  0.0014  0.0000  0.0001  0.0000  0.0001  0.0049  0.0097  0.0110  0.0085 </r>
        <r>  0.0001  0.0001  0.0001  0.0001  0.0004  0.0015  0.0001  0.0109  0.0027 </r>
        <r>  0.0023  0.0000  0.0003  0.0001  0.0025  0.0028  0.0010  0.0001  0.0068 </r>
        <r>  0.0005  0.0001  0.0000  0.0000  0.0186  0.0019  0.0106  0.0011  0.0235 </r>
        <r>  0.0034  0.0003  0.0098  0.0000  0.0110  0.0449  0.2317  0.0004  0.0043 </r>
        <r>  0.0011  0.0006  0.0001  0.0001  0.0094  0.0073  0.0002  0.0113  0.0044 </r>
        <r>  0.0009  0.0018  0.0045  0.0000  0.0385  0.0285  0.1618  0.0421  0.0002 </r>
        <r>  0.0006  0.0000  0.0019  0.0000  0.0000  0.0037  0.0001  0.0008  0.0002 </r>
        <r>  0.0013  0.0004  0.0000  0.0001  0.0015  0.0001  0.0003  0.0000  0.0002 </r>
        <r>  0.0008  0.0002  0.0009  0.0003  0.0001  0.0009  0.0005  0.0004  0.0000 </r>
        <r>  0.0008  0.0000  0.0000  0.0000  0.0004  0.0002  0.0001  0.0000  0.0001 </r>
        <r>  0.0040  0.0001  0.0000  0.0000  0.0013  0.0000  0.0013  0.0024  0.0013 </r>
        <r>  0.0000  0.0000  0.0000  0.0001  0.0000  0.0000  0.0000  0.0000  0.0000 </r>
        <r>  0.0000  0.0000  0.0000  0.0000  0.0000  0.0000  0.0000  0.0000  0.0000 </r>
        <r>  0.0000  0.0000  0.0000  0.0000  0.0000  0.0000  0.0000  0.0000  0.0000 </r>
       </set>
       <set comment="band 81">
        <r>  0.0000  0.0004  0.0000  0.0004  0.0046  0.0005  0.0000  0.0000  0.0008 </r>
        <r>  0.0015  0.0001  0.0000  0.0001  0.0271  0.0071  0.0144  0.0831  0.0788 </r>
        <r>  0.0038  0.0008  0.0010  0.0000  0.0000  0.0027  0.0002  0.0016  0.0003 </r>
        <r>  0.0069  0.0005  0.0035  0.0085  0.0219  0.0262  0.0134  0.1056  0.0587 </r>
        <r>  0.0000  0.0000  0.0001  0.0002  0.0002  0.0005  0.0009  0.0000  0.0021 </r>
        <r>  0.0002  0.0002  0.0015  0.0077  0.0414  0.0051  0.0010  0.0443  0.0057 </r>
        <r>  0.0001  0.0006  0.0008  0.0000  0.0082  0.0022  0.0002  0.0026  0.0002 </r>
        <r>  0.0000  0.0001  0.0004  0.0025  0.0001  0.0088  0.0025  0.0619  0.0001 </r>
        <r>  0.0016  0.0000  0.0000  0.0002  0.0008  0.0006  0.0001  0.0011  0.0015 </r>
        <r>  0.0084  0.0001  0.0004  0.0003  0.0000  0.0003  0.0002  0.0001  0.0001 </r>
        <r>  0.0109  0.0000  0.0009  0.0038  0.0008  0.0016  0.0001  0.0000  0.0000 </r>
        <r>  0.0020  0.0004  0.0003  0.0010  0.0000  0.0007  0.0000  0.0004  0.0009 </r>
        <r>  0.0050  0.0002  0.0000  0.0001  0.0006  0.0001  0.0001  0.0000  0.0001 </r>
        <r>  0.0000  0.0000  0.0000  0.0000  0.0000  0.0000  0.0000  0.0000  0.0000 </r>
        <r>  0.0000  0.0000  0.0000  0.0000  0.0000  0.0000  0.0000  0.0000  0.0000 </r>
        <r>  0.0000  0.0000  0.0000  0.0000  0.0000  0.0000  0.0000  0.0000  0.0000 </r>
       </set>
       <set comment="band 82">
        <r>  0.0053  0.0018  0.0014  0.0005  0.0087  0.0039  0.0028  0.0020  0.0017 </r>
        <r>  0.0008  0.0008  0.0004  0.0000  0.0020  0.0005  0.0111  0.0015  0.0038 </r>
        <r>  0.0148  0.0016  0.0079  0.0016  0.0040  0.0038  0.0059  0.0000  0.0122 </r>
        <r>  0.0063  0.0012  0.0001  0.0001  0.0003  0.0002  0.0001  0.0046  0.0009 </r>
        <r>  0.0098  0.0005  0.0036  0.0003  0.0031  0.0000  0.0001  0.0032  0.0098 </r>
        <r>  0.0003  0.0001  0.0000  0.0029  0.0022  0.0000  0.0003  0.0042  0.0006 </r>
        <r>  0.0010  0.0001  0.0111  0.0023  0.0303  0.0003  0.0010  0.0001  0.0083 </r>
        <r>  0.0011  0.0000  0.0001  0.0011  0.0015  0.0020  0.0001  0.0164  0.0005 </r>
        <r>  0.0010  0.0001  0.0002  0.0000  0.0000  0.0002  0.0002  0.0002  0.0008 </r>
        <r>  0.0484  0.0001  0.0074  0.0073  0.0005  0.0039  0.0007  0.0026  0.0003 </r>
        <r>  0.0035  0.0004  0.0001  0.0010  0.0001  0.0002  0.0000  0.0000  0.0000 </r>
        <r>  0.0559  0.0001  0.0044  0.0048  0.0001  0.0027  0.0001  0.0023  0.0028 </r>
        <r>  0.0005  0.0006  0.0000  0.0004  0.0009  0.0007  0.0001  0.0005  0.0006 </r>
        <r>  0.0000  0.0001  0.0003  0.0000  0.0000  0.0000  0.0000  0.0000  0.0000 </r>
        <r>  0.0000  0.0000  0.0000  0.0000  0.0000  0.0000  0.0000  0.0000  0.0000 </r>
        <r>  0.0000  0.0000  0.0000  0.0000  0.0000  0.0000  0.0000  0.0000  0.0000 </r>
       </set>
       <set comment="band 83">
        <r>  0.0160  0.0126  0.0023  0.0005  0.0049  0.0006  0.0041  0.0002  0.0306 </r>
        <r>  0.0005  0.0055  0.0012  0.0004  0.0218  0.0042  0.0019  0.0033  0.0000 </r>
        <r>  0.0134  0.0000  0.0100  0.0066  0.0005  0.0014  0.0010  0.0171  0.0036 </r>
        <r>  0.0006  0.0001  0.0002  0.0024  0.0007  0.0018  0.0010  0.0081  0.0137 </r>
        <r>  0.0256  0.0039  0.0025  0.0049  0.0069  0.0013  0.0093  0.0002  0.0012 </r>
        <r>  0.0176  0.0085  0.0030  0.0001  0.0000  0.0001  0.0007  0.0003  0.0007 </r>
        <r>  0.0179  0.0006  0.0019  0.0000  0.0025  0.0000  0.0002  0.0143  0.0075 </r>
        <r>  0.0040  0.0021  0.0001  0.0000  0.0030  0.0146  0.0000  0.0015  0.0052 </r>
        <r>  0.0036  0.0013  0.0010  0.0001  0.0000  0.0010  0.0015  0.0001  0.0029 </r>
        <r>  0.0006  0.0003  0.0025  0.0005  0.0008  0.0014  0.0002  0.0001  0.0008 </r>
        <r>  0.0097  0.0000  0.0000  0.0000  0.0000  0.0040  0.0001  0.0000  0.0026 </r>
        <r>  0.0015  0.0001  0.0006  0.0007  0.0006  0.0001  0.0000  0.0015  0.0003 </r>
        <r>  0.0003  0.0117  0.0024  0.0004  0.0037  0.0039  0.0009  0.0003  0.0020 </r>
        <r>  0.0001  0.0001  0.0005  0.0001  0.0000  0.0000  0.0000  0.0000  0.0000 </r>
        <r>  0.0000  0.0000  0.0000  0.0000  0.0000  0.0000  0.0000  0.0000  0.0000 </r>
        <r>  0.0000  0.0000  0.0000  0.0000  0.0000  0.0000  0.0000  0.0000  0.0000 </r>
       </set>
       <set comment="band 84">
        <r>  0.0014  0.0020  0.0010  0.0119  0.0004  0.0009  0.0022  0.0003  0.0003 </r>
        <r>  0.0154  0.0058  0.0001  0.0079  0.0052  0.0023  0.0000  0.0006  0.0098 </r>
        <r>  0.0000  0.0000  0.0033  0.0008  0.0006  0.0012  0.0013  0.0016  0.0006 </r>
        <r>  0.0001  0.0155  0.0044  0.0011  0.0089  0.0053  0.0000  0.0015  0.0000 </r>
        <r>  0.0033  0.0027  0.0008  0.0004  0.0052  0.0030  0.0011  0.0001  0.0057 </r>
        <r>  0.0111  0.0000  0.0002  0.0033  0.0059  0.0014  0.0019  0.0007  0.0045 </r>
        <r>  0.0092  0.0000  0.0005  0.0011  0.0040  0.0022  0.0002  0.0005  0.0004 </r>
        <r>  0.0016  0.0003  0.0008  0.0000  0.0157  0.0022  0.0065  0.0000  0.0003 </r>
        <r>  0.0017  0.0000  0.0002  0.0001  0.0067  0.0006  0.0013  0.0000  0.0008 </r>
        <r>  0.0021  0.0063  0.0015  0.0007  0.0015  0.0001  0.0006  0.0002  0.0012 </r>
        <r>  0.0197  0.0117  0.0001  0.0073  0.0001  0.0000  0.0001  0.0001  0.0008 </r>
        <r>  0.0015  0.0008  0.0013  0.0005  0.0017  0.0000  0.0000  0.0000  0.0000 </r>
        <r>  0.0131  0.0004  0.0007  0.0058  0.0054  0.0016  0.0007  0.0000  0.0022 </r>
        <r>  0.0000  0.0000  0.0000  0.0001  0.0000  0.0000  0.0000  0.0000  0.0000 </r>
        <r>  0.0000  0.0000  0.0000  0.0000  0.0000  0.0000  0.0000  0.0000  0.0000 </r>
        <r>  0.0000  0.0000  0.0000  0.0000  0.0000  0.0000  0.0000  0.0000  0.0000 </r>
       </set>
       <set comment="band 85">
        <r>  0.0012  0.0084  0.0116  0.0038  0.0002  0.0027  0.0000  0.0010  0.0002 </r>
        <r>  0.0009  0.0065  0.0005  0.0017  0.0000  0.0005  0.0001  0.0003  0.0016 </r>
        <r>  0.0050  0.0059  0.0004  0.0104  0.0013  0.0013  0.0025  0.0011  0.0009 </r>
        <r>  0.0025  0.0012  0.0018  0.0060  0.0007  0.0003  0.0001  0.0006  0.0037 </r>
        <r>  0.0002  0.0005  0.0149  0.0056  0.0049  0.0016  0.0001  0.0001  0.0010 </r>
        <r>  0.0005  0.0029  0.0011  0.0034  0.0000  0.0001  0.0006  0.0009  0.0001 </r>
        <r>  0.0056  0.0012  0.0068  0.0001  0.0036  0.0000  0.0000  0.0034  0.0000 </r>
        <r>  0.0001  0.0014  0.0001  0.0008  0.0041  0.0015  0.0011  0.0067  0.0034 </r>
        <r>  0.0000  0.0015  0.0001  0.0003  0.0008  0.0004  0.0004  0.0022  0.0029 </r>
        <r>  0.0047  0.0008  0.0017  0.0005  0.0035  0.0008  0.0000  0.0008  0.0000 </r>
        <r>  0.0027  0.0067  0.0008  0.0021  0.0006  0.0000  0.0001  0.0001  0.0002 </r>
        <r>  0.0061  0.0094  0.0006  0.0040  0.0002  0.0001  0.0016  0.0000  0.0000 </r>
        <r>  0.0032  0.0084  0.0005  0.0043  0.0000  0.0011  0.0000  0.0001  0.0027 </r>
        <r>  0.0001  0.0000  0.0006  0.0000  0.0000  0.0000  0.0000  0.0000  0.0000 </r>
        <r>  0.0001  0.0000  0.0001  0.0000  0.0000  0.0000  0.0000  0.0000  0.0000 </r>
        <r>  0.0000  0.0000  0.0000  0.0000  0.0000  0.0000  0.0000  0.0000  0.0000 </r>
       </set>
       <set comment="band 86">
        <r>  0.0021  0.0031  0.0007  0.0072  0.0003  0.0004  0.0001  0.0001  0.0005 </r>
        <r>  0.0031  0.0002  0.0058  0.0117  0.0002  0.0061  0.0003  0.0072  0.0014 </r>
        <r>  0.0002  0.0011  0.0069  0.0016  0.0003  0.0002  0.0009  0.0013  0.0002 </r>
        <r>  0.0007  0.0029  0.0012  0.0221  0.0002  0.0018  0.0007  0.0001  0.0001 </r>
        <r>  0.0011  0.0003  0.0005  0.0039  0.0030  0.0000  0.0006  0.0003  0.0035 </r>
        <r>  0.0028  0.0067  0.0055  0.0044  0.0049  0.0000  0.0007  0.0043  0.0000 </r>
        <r>  0.0028  0.0008  0.0002  0.0035  0.0025  0.0024  0.0004  0.0022  0.0005 </r>
        <r>  0.0251  0.0003  0.0003  0.0000  0.0000  0.0031  0.0007  0.0145  0.0001 </r>
        <r>  0.0285  0.0001  0.0003  0.0006  0.0001  0.0029  0.0003  0.0038  0.0002 </r>
        <r>  0.0006  0.0010  0.0024  0.0007  0.0000  0.0005  0.0007  0.0001  0.0016 </r>
        <r>  0.0056  0.0005  0.0056  0.0092  0.0006  0.0037  0.0003  0.0009  0.0006 </r>
        <r>  0.0001  0.0018  0.0002  0.0000  0.0003  0.0001  0.0000  0.0005  0.0001 </r>
        <r>  0.0071  0.0083  0.0039  0.0043  0.0041  0.0001  0.0010  0.0025  0.0001 </r>
        <r>  0.0000  0.0000  0.0001  0.0000  0.0000  0.0000  0.0000  0.0000  0.0000 </r>
        <r>  0.0000  0.0000  0.0000  0.0000  0.0000  0.0000  0.0000  0.0000  0.0000 </r>
        <r>  0.0000  0.0000  0.0000  0.0000  0.0000  0.0000  0.0000  0.0000  0.0000 </r>
       </set>
       <set comment="band 87">
        <r>  0.0000  0.0003  0.0096  0.0012  0.0000  0.0012  0.0001  0.0007  0.0012 </r>
        <r>  0.0017  0.0002  0.0001  0.0047  0.0158  0.0047  0.0092  0.0047  0.0008 </r>
        <r>  0.0000  0.0023  0.0000  0.0073  0.0019  0.0001  0.0003  0.0007  0.0001 </r>
        <r>  0.0000  0.0008  0.0069  0.0001  0.0001  0.0001  0.0002  0.0000  0.0002 </r>
        <r>  0.0003  0.0029  0.0060  0.0002  0.0001  0.0029  0.0000  0.0010  0.0009 </r>
        <r>  0.0035  0.0058  0.0019  0.0031  0.0021  0.0016  0.0000  0.0106  0.0021 </r>
        <r>  0.0015  0.0010  0.0048  0.0004  0.0000  0.0011  0.0028  0.0002  0.0041 </r>
        <r>  0.0111  0.0102  0.0021  0.0112  0.0000  0.0003  0.0000  0.0001  0.0003 </r>
        <r>  0.0030  0.0119  0.0004  0.0134  0.0004  0.0000  0.0001  0.0002  0.0001 </r>
        <r>  0.0001  0.0010  0.0037  0.0054  0.0007  0.0003  0.0000  0.0006  0.0001 </r>
        <r>  0.0053  0.0000  0.0007  0.0029  0.0037  0.0029  0.0005  0.0004  0.0013 </r>
        <r>  0.0007  0.0014  0.0013  0.0033  0.0008  0.0003  0.0000  0.0001  0.0000 </r>
        <r>  0.0026  0.0046  0.0024  0.0032  0.0000  0.0026  0.0001  0.0017  0.0007 </r>
        <r>  0.0001  0.0000  0.0008  0.0000  0.0000  0.0000  0.0000  0.0000  0.0000 </r>
        <r>  0.0003  0.0000  0.0004  0.0000  0.0000  0.0000  0.0000  0.0000  0.0000 </r>
        <r>  0.0001  0.0000  0.0002  0.0000  0.0000  0.0000  0.0000  0.0000  0.0000 </r>
       </set>
       <set comment="band 88">
        <r>  0.0002  0.0036  0.0095  0.0002  0.0002  0.0010  0.0003  0.0001  0.0000 </r>
        <r>  0.0006  0.0000  0.0046  0.0087  0.0001  0.0005  0.0001  0.0043  0.0006 </r>
        <r>  0.0004  0.0013  0.0059  0.0109  0.0024  0.0007  0.0001  0.0025  0.0001 </r>
        <r>  0.0012  0.0006  0.0113  0.0005  0.0000  0.0008  0.0010  0.0000  0.0007 </r>
        <r>  0.0004  0.0036  0.0060  0.0044  0.0016  0.0027  0.0002  0.0005  0.0000 </r>
        <r>  0.0030  0.0004  0.0014  0.0001  0.0003  0.0000  0.0044  0.0113  0.0067 </r>
        <r>  0.0062  0.0002  0.0023  0.0068  0.0012  0.0000  0.0010  0.0003  0.0027 </r>
        <r>  0.0032  0.0004  0.0043  0.0151  0.0008  0.0000  0.0001  0.0000  0.0016 </r>
        <r>  0.0025  0.0004  0.0029  0.0132  0.0003  0.0000  0.0002  0.0001  0.0001 </r>
        <r>  0.0002  0.0061  0.0003  0.0053  0.0008  0.0000  0.0005  0.0009  0.0022 </r>
        <r>  0.0010  0.0003  0.0061  0.0047  0.0009  0.0000  0.0023  0.0006  0.0000 </r>
        <r>  0.0008  0.0000  0.0014  0.0011  0.0031  0.0000  0.0001  0.0002  0.0000 </r>
        <r>  0.0004  0.0017  0.0021  0.0014  0.0003  0.0005  0.0000  0.0070  0.0026 </r>
        <r>  0.0004  0.0000  0.0008  0.0000  0.0000  0.0000  0.0000  0.0000  0.0000 </r>
        <r>  0.0001  0.0000  0.0005  0.0000  0.0000  0.0000  0.0000  0.0000  0.0000 </r>
        <r>  0.0000  0.0000  0.0001  0.0000  0.0000  0.0000  0.0000  0.0000  0.0000 </r>
       </set>
      </set>
     </set>
    </set>
   </array>
  </projected>
 </calculation>
 <structure name="finalpos" >
  <crystal>
   <varray name="basis" >
    <v>      20.97620010       0.00000000       0.00000000 </v>
    <v>       4.76730278      13.90221941       0.00000000 </v>
    <v>       0.00000000       0.00000000      24.80323677 </v>
   </varray>
   <i name="volume">   7233.01415335 </i>
   <varray name="rec_basis" >
    <v>       0.04767308      -0.01634789       0.00000000 </v>
    <v>       0.00000000       0.07193096       0.00000000 </v>
    <v>       0.00000000       0.00000000       0.04031732 </v>
   </varray>
  </crystal>
  <varray name="positions" >
   <v>       0.32915430       0.73400804       0.49372309 </v>
   <v>       0.28484834       0.36923034       0.45372487 </v>
   <v>       0.00913666       0.93599268       0.59256725 </v>
   <v>       0.16332402       0.43836278       0.50630806 </v>
   <v>       0.24084535       0.90295895       0.48321333 </v>
   <v>       0.38712684       0.31295929       0.39783753 </v>
   <v>       0.08703932       0.97533816       0.53399871 </v>
   <v>       0.40349989       0.35803394       0.48779558 </v>
   <v>       0.29144552       0.47571839       0.37481133 </v>
   <v>       0.97899182       0.12376727       0.54080061 </v>
   <v>       0.41426635       0.47765715       0.41135646 </v>
   <v>       0.10004751       0.16200396       0.56152982 </v>
   <v>       0.30313248       0.53254120       0.47826254 </v>
   <v>       0.40999247       0.61359336       0.68236766 </v>
   <v>       0.37902424       0.69137092       0.71392558 </v>
   <v>       0.39019028       0.66853421       0.75118204 </v>
  </varray>
  <varray name="selective"  type="logical" >
   <v type="logical" >  F  F  F </v>
   <v type="logical" >  F  F  F </v>
   <v type="logical" >  T  T  T </v>
   <v type="logical" >  F  F  F </v>
   <v type="logical" >  F  F  F </v>
   <v type="logical" >  F  F  F </v>
   <v type="logical" >  T  T  T </v>
   <v type="logical" >  F  F  F </v>
   <v type="logical" >  F  F  F </v>
   <v type="logical" >  T  T  T </v>
   <v type="logical" >  F  F  F </v>
   <v type="logical" >  T  T  T </v>
   <v type="logical" >  F  F  F </v>
   <v type="logical" >  T  T  T </v>
   <v type="logical" >  T  T  T </v>
   <v type="logical" >  T  T  T </v>
  </varray>
  <nose>
   <v>      -3.00000000       0.00000000       0.00010000       0.00010000 </v>
  </nose>
 </structure>
</modeling>
