       N       E                     dE             d eps       ncg     rms          rms(c)
DAV:   1     0.263076958092E+04    0.26308E+04   -0.10153E+05  4024   0.112E+03
DAV:   2     0.755712628096E+02   -0.25552E+04   -0.24442E+04  4888   0.283E+02
DAV:   3    -0.496833951964E+03   -0.57241E+03   -0.56822E+03  4092   0.148E+02
DAV:   4    -0.522047864190E+03   -0.25214E+02   -0.24546E+02  4336   0.426E+01
DAV:   5    -0.523153252163E+03   -0.11054E+01   -0.10917E+01  5040   0.741E+00    0.404E+01
DAV:   6    -0.496319550047E+03    0.26834E+02   -0.52527E+01  4368   0.235E+01    0.245E+01
DAV:   7    -0.491724441584E+03    0.45951E+01   -0.30834E+01  4232   0.142E+01    0.157E+01
DAV:   8    -0.490955466238E+03    0.76898E+00   -0.22468E+01  4296   0.123E+01    0.107E+01
DAV:   9    -0.490073538184E+03    0.88193E+00   -0.46446E+00  4144   0.718E+00    0.455E+00
DAV:  10    -0.489865337030E+03    0.20820E+00   -0.20081E+00  4304   0.508E+00    0.239E+00
DAV:  11    -0.489923759214E+03   -0.58422E-01   -0.19467E+00  4136   0.310E+00    0.225E+00
DAV:  12    -0.489832628306E+03    0.91131E-01   -0.13013E+00  4248   0.241E+00    0.142E+00
DAV:  13    -0.489838364928E+03   -0.57366E-02   -0.89063E-01  4064   0.161E+00    0.150E+00
DAV:  14    -0.489801920339E+03    0.36445E-01   -0.53762E-01  4448   0.120E+00    0.682E-01
DAV:  15    -0.489808113112E+03   -0.61928E-02   -0.14167E-01  3976   0.637E-01    0.601E-01
DAV:  16    -0.489804781696E+03    0.33314E-02   -0.18600E-02  3984   0.274E-01    0.384E-01
DAV:  17    -0.489804441025E+03    0.34067E-03   -0.10392E-02  4144   0.127E-01    0.204E-01
DAV:  18    -0.489805629126E+03   -0.11881E-02   -0.53003E-03  2976   0.740E-02    0.341E-01
DAV:  19    -0.489805549572E+03    0.79554E-04   -0.79666E-03  3048   0.808E-02    0.491E-01
DAV:  20    -0.489803940428E+03    0.16091E-02   -0.25303E-02  3664   0.148E-01    0.186E-01
DAV:  21    -0.489805043402E+03   -0.11030E-02   -0.10207E-03  3552   0.569E-02    0.187E-01
DAV:  22    -0.489804704462E+03    0.33894E-03   -0.68523E-03  3656   0.778E-02    0.219E-01
DAV:  23    -0.489804879416E+03   -0.17495E-03   -0.71781E-04  2648   0.479E-02    0.161E-01
DAV:  24    -0.489804967403E+03   -0.87987E-04   -0.86792E-04  2344   0.399E-02
   1 F= -.49378804E+03 E0= -.49378804E+03  d E =0.000000E+00  mag=     0.0017
