 vasp.5.4.4.18Apr17-6-g9f103f2a35 (build Nov  8 2022 18:58:45) complex           
 executed on             LinuxGNU date 2023.04.13  15:54:36
 running on   48 total cores
 distrk:  each k-point on   48 cores,    1 groups
 distr:  one band on NCORES_PER_BAND=  12 cores,    4 groups


--------------------------------------------------------------------------------------------------------


 INCAR:
 POTCAR:    PAW_PBE C 08Apr2002                   
 POTCAR:    PAW_PBE N 08Apr2002                   
 POTCAR:    PAW_PBE Ge_d 03Jul2007                
 POTCAR:    PAW_PBE C 08Apr2002                   
 POTCAR:    PAW_PBE O 08Apr2002                   
 POTCAR:    PAW_PBE C 08Apr2002                   
   SHA256 =  253f7b50bb8d59471dbedb8285d89021f4a42ed1a2c5d38a03a736e69125dd95 C/
   COPYR  = (c) Copyright 08Apr2002 Georg Kresse                                
   COPYR  = This file is part of the software VASP. Any use, copying, and all ot
   COPYR  = If you do not have a valid VASP license, you may not use, copy or di
   VRHFIN =C: s2p2                                                              
   LEXCH  = PE                                                                  
   EATOM  =   147.1560 eV,   10.8157 Ry                                         
                                                                                
   TITEL  = PAW_PBE C 08Apr2002                                                 
   LULTRA =        F    use ultrasoft PP ?                                      
   IUNSCR =        1    unscreen: 0-lin 1-nonlin 2-no                           
   RPACOR =    1.200    partial core radius                                     
   POMASS =   12.011; ZVAL   =    4.000    mass and valenz                      
   RCORE  =    1.500    outmost cutoff radius                                   
   RWIGS  =    1.630; RWIGS  =    0.863    wigner-seitz radius (au A)           
   ENMAX  =  400.000; ENMIN  =  300.000 eV                                      
   ICORE  =        2    local potential                                         
   LCOR   =        T    correct aug charges                                     
   LPAW   =        T    paw PP                                                  
   EAUG   =  644.873                                                            
   DEXC   =    0.000                                                            
   RMAX   =    1.529    core radius for proj-oper                               
   RAUG   =    1.300    factor for augmentation sphere                          
   RDEP   =    1.501    radius for radial grids                                 
   RDEPT  =    1.300    core radius for aug-charge                              
                                                                                
   Atomic configuration                                                         
    4 entries                                                                   
     n  l   j            E        occ.                                          
     1  0  0.50      -273.3789   2.0000                                         
     2  0  0.50       -13.7508   2.0000                                         
     2  1  0.50        -5.2854   2.0000                                         
     3  2  1.50        -5.4423   0.0000                                         
   Description                                                                  
     l       E           TYP  RCUT    TYP  RCUT                                 
     0    -13.7508458     23  1.200                                             
     0     -8.2022199     23  1.200                                             
     1     -5.2854383     23  1.500                                             
     1     34.0145650     23  1.500                                             
     2     -5.4423304      7  1.500                                             
  local pseudopotential read in
  partial core-charges read in
  partial kinetic energy density read in
  atomic valenz-charges read in
  non local Contribution for L=           0  read in
    real space projection operators read in
  non local Contribution for L=           0  read in
    real space projection operators read in
  non local Contribution for L=           1  read in
    real space projection operators read in
  non local Contribution for L=           1  read in
    real space projection operators read in
    PAW grid and wavefunctions read in

   number of l-projection  operators is LMAX  =           4
   number of lm-projection operators is LMMAX =           8

 POTCAR:    PAW_PBE N 08Apr2002                   
   SHA256 =  e053789ff3a61a86a1b75d8a110fcc91f86041011e7b0817c7c99e4e8a6349d7 N/
   COPYR  = (c) Copyright 08Apr2002 Georg Kresse                                
   COPYR  = This file is part of the software VASP. Any use, copying, and all ot
   COPYR  = If you do not have a valid VASP license, you may not use, copy or di
   VRHFIN =N: s2p3                                                              
   LEXCH  = PE                                                                  
   EATOM  =   264.5486 eV,   19.4438 Ry                                         
                                                                                
   TITEL  = PAW_PBE N 08Apr2002                                                 
   LULTRA =        F    use ultrasoft PP ?                                      
   IUNSCR =        1    unscreen: 0-lin 1-nonlin 2-no                           
   RPACOR =    1.200    partial core radius                                     
   POMASS =   14.001; ZVAL   =    5.000    mass and valenz                      
   RCORE  =    1.500    outmost cutoff radius                                   
   RWIGS  =    1.400; RWIGS  =    0.741    wigner-seitz radius (au A)           
   ENMAX  =  400.000; ENMIN  =  300.000 eV                                      
   ICORE  =        2    local potential                                         
   LCOR   =        T    correct aug charges                                     
   LPAW   =        T    paw PP                                                  
   EAUG   =  627.112                                                            
   DEXC   =    0.000                                                            
   RMAX   =    1.529    core radius for proj-oper                               
   RAUG   =    1.300    factor for augmentation sphere                          
   RDEP   =    1.514    radius for radial grids                                 
   RDEPT  =    1.338    core radius for aug-charge                              
                                                                                
   Atomic configuration                                                         
    4 entries                                                                   
     n  l   j            E        occ.                                          
     1  0  0.50      -384.7179   2.0000                                         
     2  0  0.50       -18.5828   2.0000                                         
     2  1  0.50        -7.0898   3.0000                                         
     3  2  1.50        -6.8029   0.0000                                         
   Description                                                                  
     l       E           TYP  RCUT    TYP  RCUT                                 
     0    -18.5828119     23  1.200                                             
     0    -13.5018863     23  1.200                                             
     1     -7.0897853     23  1.500                                             
     1      9.5240782     23  1.500                                             
     2     -6.8029130      7  1.500                                             
  local pseudopotential read in
  partial core-charges read in
  partial kinetic energy density read in
  atomic valenz-charges read in
  non local Contribution for L=           0  read in
    real space projection operators read in
  non local Contribution for L=           0  read in
    real space projection operators read in
  non local Contribution for L=           1  read in
    real space projection operators read in
  non local Contribution for L=           1  read in
    real space projection operators read in
    PAW grid and wavefunctions read in

   number of l-projection  operators is LMAX  =           4
   number of lm-projection operators is LMMAX =           8

 POTCAR:    PAW_PBE Ge_d 03Jul2007                
   SHA256 =  944b26c40d2d7c4f4eb1ff3a2e8dbfdd7129146276cd341854bfd5c0e57780ed Ge
   COPYR  = (c) Copyright 03Jul2007 Georg Kresse                                
   COPYR  = This file is part of the software VASP. Any use, copying, and all ot
   COPYR  = If you do not have a valid VASP license, you may not use, copy or di
   VRHFIN =Ge: 3d4s4p                                                           
   LEXCH  = PE                                                                  
   EATOM  =  2596.2402 eV,  190.8183 Ry                                         
                                                                                
   TITEL  = PAW_PBE Ge_d 03Jul2007                                              
   LULTRA =        F    use ultrasoft PP ?                                      
   IUNSCR =        1    unscreen: 0-lin 1-nonlin 2-no                           
   RPACOR =    2.000    partial core radius                                     
   POMASS =   72.610; ZVAL   =   14.000    mass and valenz                      
   RCORE  =    2.300    outmost cutoff radius                                   
   RWIGS  =    2.300; RWIGS  =    1.217    wigner-seitz radius (au A)           
   ENMAX  =  310.294; ENMIN  =  232.720 eV                                      
   ICORE  =        3    local potential                                         
   LCOR   =        T    correct aug charges                                     
   LPAW   =        T    paw PP                                                  
   EAUG   =  531.356                                                            
   DEXC   =    0.000                                                            
   RMAX   =    2.342    core radius for proj-oper                               
   RAUG   =    1.300    factor for augmentation sphere                          
   RDEP   =    2.318    radius for radial grids                                 
   RDEPT  =    1.783    core radius for aug-charge                              
                                                                                
   Atomic configuration                                                         
    9 entries                                                                   
     n  l   j            E        occ.                                          
     1  0  0.50    -10959.8463   2.0000                                         
     2  0  0.50     -1371.6056   2.0000                                         
     2  1  1.50     -1198.4791   6.0000                                         
     3  0  0.50      -168.4733   2.0000                                         
     3  1  1.50      -115.6019   6.0000                                         
     3  2  2.50       -29.3106  10.0000                                         
     4  0  0.50       -11.7309   2.0000                                         
     4  1  0.50        -3.8952   2.0000                                         
     4  3  2.50        -4.0817   0.0000                                         
   Description                                                                  
     l       E           TYP  RCUT    TYP  RCUT                                 
     2    -29.3105938     23  2.200                                             
     2    -13.6058260     23  2.200                                             
     0    -11.7309493     23  2.300                                             
     0     -7.4578696     23  2.300                                             
     1     -3.8952261     23  2.300                                             
     1      6.1178114     23  2.300                                             
     3     -1.3605826     23  2.300                                             
  local pseudopotential read in
  partial core-charges read in
  partial kinetic energy density read in
  atomic valenz-charges read in
  non local Contribution for L=           2  read in
    real space projection operators read in
  non local Contribution for L=           2  read in
    real space projection operators read in
  non local Contribution for L=           0  read in
    real space projection operators read in
  non local Contribution for L=           0  read in
    real space projection operators read in
  non local Contribution for L=           1  read in
    real space projection operators read in
  non local Contribution for L=           1  read in
    real space projection operators read in
    PAW grid and wavefunctions read in

   number of l-projection  operators is LMAX  =           6
   number of lm-projection operators is LMMAX =          18

 POTCAR:    PAW_PBE C 08Apr2002                   
   SHA256 =  253f7b50bb8d59471dbedb8285d89021f4a42ed1a2c5d38a03a736e69125dd95 C/
   COPYR  = (c) Copyright 08Apr2002 Georg Kresse                                
   COPYR  = This file is part of the software VASP. Any use, copying, and all ot
   COPYR  = If you do not have a valid VASP license, you may not use, copy or di
   VRHFIN =C: s2p2                                                              
   LEXCH  = PE                                                                  
   EATOM  =   147.1560 eV,   10.8157 Ry                                         
                                                                                
   TITEL  = PAW_PBE C 08Apr2002                                                 
   LULTRA =        F    use ultrasoft PP ?                                      
   IUNSCR =        1    unscreen: 0-lin 1-nonlin 2-no                           
   RPACOR =    1.200    partial core radius                                     
   POMASS =   12.011; ZVAL   =    4.000    mass and valenz                      
   RCORE  =    1.500    outmost cutoff radius                                   
   RWIGS  =    1.630; RWIGS  =    0.863    wigner-seitz radius (au A)           
   ENMAX  =  400.000; ENMIN  =  300.000 eV                                      
   ICORE  =        2    local potential                                         
   LCOR   =        T    correct aug charges                                     
   LPAW   =        T    paw PP                                                  
   EAUG   =  644.873                                                            
   DEXC   =    0.000                                                            
   RMAX   =    1.529    core radius for proj-oper                               
   RAUG   =    1.300    factor for augmentation sphere                          
   RDEP   =    1.501    radius for radial grids                                 
   RDEPT  =    1.300    core radius for aug-charge                              
                                                                                
   Atomic configuration                                                         
    4 entries                                                                   
     n  l   j            E        occ.                                          
     1  0  0.50      -273.3789   2.0000                                         
     2  0  0.50       -13.7508   2.0000                                         
     2  1  0.50        -5.2854   2.0000                                         
     3  2  1.50        -5.4423   0.0000                                         
   Description                                                                  
     l       E           TYP  RCUT    TYP  RCUT                                 
     0    -13.7508458     23  1.200                                             
     0     -8.2022199     23  1.200                                             
     1     -5.2854383     23  1.500                                             
     1     34.0145650     23  1.500                                             
     2     -5.4423304      7  1.500                                             
  local pseudopotential read in
  partial core-charges read in
  partial kinetic energy density read in
  atomic valenz-charges read in
  non local Contribution for L=           0  read in
    real space projection operators read in
  non local Contribution for L=           0  read in
    real space projection operators read in
  non local Contribution for L=           1  read in
    real space projection operators read in
  non local Contribution for L=           1  read in
    real space projection operators read in
    PAW grid and wavefunctions read in

   number of l-projection  operators is LMAX  =           4
   number of lm-projection operators is LMMAX =           8

 POTCAR:    PAW_PBE O 08Apr2002                   
   SHA256 =  818f92134a0a090dccd8ba1447fa70422a3b330e708bb4f08108d8ae51209ddf O/
   COPYR  = (c) Copyright 08Apr2002 Georg Kresse                                
   COPYR  = This file is part of the software VASP. Any use, copying, and all ot
   COPYR  = If you do not have a valid VASP license, you may not use, copy or di
   VRHFIN =O: s2p4                                                              
   LEXCH  = PE                                                                  
   EATOM  =   432.3788 eV,   31.7789 Ry                                         
                                                                                
   TITEL  = PAW_PBE O 08Apr2002                                                 
   LULTRA =        F    use ultrasoft PP ?                                      
   IUNSCR =        1    unscreen: 0-lin 1-nonlin 2-no                           
   RPACOR =    1.200    partial core radius                                     
   POMASS =   16.000; ZVAL   =    6.000    mass and valenz                      
   RCORE  =    1.520    outmost cutoff radius                                   
   RWIGS  =    1.550; RWIGS  =    0.820    wigner-seitz radius (au A)           
   ENMAX  =  400.000; ENMIN  =  300.000 eV                                      
   ICORE  =        2    local potential                                         
   LCOR   =        T    correct aug charges                                     
   LPAW   =        T    paw PP                                                  
   EAUG   =  605.392                                                            
   DEXC   =    0.000                                                            
   RMAX   =    1.553    core radius for proj-oper                               
   RAUG   =    1.300    factor for augmentation sphere                          
   RDEP   =    1.550    radius for radial grids                                 
   RDEPT  =    1.329    core radius for aug-charge                              
                                                                                
   Atomic configuration                                                         
    4 entries                                                                   
     n  l   j            E        occ.                                          
     1  0  0.50      -514.6923   2.0000                                         
     2  0  0.50       -23.9615   2.0000                                         
     2  1  0.50        -9.0305   4.0000                                         
     3  2  1.50        -9.5241   0.0000                                         
   Description                                                                  
     l       E           TYP  RCUT    TYP  RCUT                                 
     0    -23.9615318     23  1.200                                             
     0     -9.5240782     23  1.200                                             
     1     -9.0304911     23  1.520                                             
     1      8.1634956     23  1.520                                             
     2     -9.5240782      7  1.500                                             
  local pseudopotential read in
  partial core-charges read in
  partial kinetic energy density read in
  kinetic energy density of atom read in
  atomic valenz-charges read in
  non local Contribution for L=           0  read in
    real space projection operators read in
  non local Contribution for L=           0  read in
    real space projection operators read in
  non local Contribution for L=           1  read in
    real space projection operators read in
  non local Contribution for L=           1  read in
    real space projection operators read in
    PAW grid and wavefunctions read in

   number of l-projection  operators is LMAX  =           4
   number of lm-projection operators is LMMAX =           8


 ----------------------------------------------------------------------------- 
|                                                                             |
|  ADVICE TO THIS USER RUNNING 'VASP/VAMP'   (HEAR YOUR MASTER'S VOICE ...):  |
|                                                                             |
|      You have a (more or less) 'large supercell' and for larger cells       |
|      it might be more efficient to use real space projection opertators     |
|      So try LREAL= Auto  in the INCAR   file.                               |
|      Mind:          For very  accurate calculation you might also keep the  |
|      reciprocal projection scheme          (i.e. LREAL=.FALSE.)             |
|                                                                             |
 ----------------------------------------------------------------------------- 

  PAW_PBE C 08Apr2002                   :
 energy of atom  1       EATOM= -147.1560
 kinetic energy error for atom=    0.0132 (will be added to EATOM!!)
  PAW_PBE N 08Apr2002                   :
 energy of atom  2       EATOM= -264.5486
 kinetic energy error for atom=    0.0298 (will be added to EATOM!!)
  PAW_PBE Ge_d 03Jul2007                :
 energy of atom  3       EATOM=-2596.2402
 kinetic energy error for atom=    0.0090 (will be added to EATOM!!)
  PAW_PBE C 08Apr2002                   :
 energy of atom  4       EATOM= -147.1560
 kinetic energy error for atom=    0.0132 (will be added to EATOM!!)
  PAW_PBE O 08Apr2002                   :
 energy of atom  5       EATOM= -432.3788
 kinetic energy error for atom=    0.0458 (will be added to EATOM!!)


 POSCAR: POSCAR-c3n4                             
  positions in direct lattice
  velocities in cartesian coordinates
 exchange correlation table for  LEXCH =        8
   RHO(1)=    0.500       N(1)  =     2000
   RHO(2)=  100.500       N(2)  =     4000



--------------------------------------------------------------------------------------------------------


 ion  position               nearest neighbor table
   1  0.107  0.214  0.478-  46 1.34  26 1.35  25 1.48
   2  0.286  0.392  0.477-  29 1.33  35 1.39  25 1.50
   3  0.105  0.392  0.477-  44 1.33  39 1.40  25 1.53
   4  0.446  0.058  0.508-  30 1.33  27 1.35  48 1.42
   5  0.444  0.387  0.464-  28 1.34  29 1.36  56 1.44
   6  0.110  0.054  0.481-  26 1.34  31 1.35  32 1.41
   7  0.106  0.715  0.494-  54 1.33  34 1.38  33 1.45
   8  0.287  0.894  0.498-  27 1.33  37 1.37  33 1.51
   9  0.104  0.893  0.501-  31 1.33  52 1.36  33 1.55
  10  0.450  0.554  0.505-  38 1.33  56 1.36  35 1.37
  11  0.444  0.889  0.485-  37 1.36  36 1.36  48 1.40
  12  0.103  0.554  0.502-  34 1.33  40 1.36  39 1.38
  13  0.609  0.218  0.497-  30 1.35  42 1.36  41 1.46
  14  0.786  0.392  0.464-  51 1.35  45 1.37  41 1.50
  15  0.606  0.394  0.471-  55 1.35  28 1.37  41 1.54
  16  0.945  0.055  0.490-  46 1.33  43 1.34  32 1.41
  17  0.942  0.385  0.462-  45 1.34  44 1.36  40 1.43
  18  0.613  0.059  0.511-  42 1.33  47 1.36  48 1.42
  19  0.610  0.716  0.503-  50 1.34  38 1.37  49 1.45
  20  0.788  0.893  0.509-  43 1.33  53 1.36  49 1.52
  21  0.606  0.895  0.503-  47 1.34  36 1.37  49 1.55
  22  0.944  0.557  0.471-  51 1.32  54 1.35  40 1.43
  23  0.943  0.887  0.519-  53 1.36  52 1.36  32 1.41
  24  0.615  0.559  0.484-  55 1.33  50 1.35  56 1.43
  25  0.167  0.334  0.477-   1 1.48   2 1.50   3 1.53
  26  0.162  0.162  0.472-   6 1.34   1 1.35
  27  0.338  0.999  0.517-   8 1.33   4 1.35
  28  0.499  0.338  0.453-   5 1.34  15 1.37
  29  0.337  0.343  0.453-   2 1.33   5 1.36
  30  0.502  0.166  0.506-   4 1.33  13 1.35
  31  0.159  0.997  0.476-   9 1.33   6 1.35
  32  0.999  0.998  0.495-   6 1.41  16 1.41  23 1.41
  33  0.167  0.833  0.499-   7 1.45   8 1.51   9 1.55
  34  0.156  0.660  0.517-  12 1.33   7 1.38
  35  0.341  0.500  0.504-  10 1.37   2 1.39  57 2.10
  36  0.500  0.838  0.481-  11 1.36  21 1.37
  37  0.337  0.838  0.477-  11 1.36   8 1.37
  38  0.504  0.660  0.521-  10 1.33  19 1.37
  39  0.158  0.500  0.504-  12 1.38   3 1.40  57 2.11
  40  0.997  0.498  0.485-  12 1.36  22 1.43  17 1.43
  41  0.667  0.333  0.475-  13 1.46  14 1.50  15 1.54
  42  0.665  0.168  0.510-  18 1.33  13 1.36
  43  0.838  0.998  0.488-  20 1.33  16 1.34
  44  0.003  0.340  0.453-   3 1.33  17 1.36
  45  0.836  0.334  0.453-  17 1.34  14 1.37
  46  0.001  0.163  0.485-  16 1.33   1 1.34
  47  0.661  0.001  0.521-  21 1.34  18 1.36
  48  0.501  0.002  0.499-  11 1.40  18 1.42   4 1.42
  49  0.667  0.834  0.506-  19 1.45  20 1.52  21 1.55
  50  0.664  0.668  0.482-  19 1.34  24 1.35
  51  0.839  0.501  0.462-  22 1.32  14 1.35
  52  0.001  0.838  0.528-   9 1.36  23 1.36
  53  0.837  0.839  0.533-  23 1.36  20 1.36
  54  0.006  0.667  0.467-   7 1.33  22 1.35
  55  0.664  0.503  0.480-  24 1.33  15 1.35
  56  0.502  0.499  0.491-  10 1.36  24 1.43   5 1.44
  57  0.313  0.623  0.541-  35 2.10  39 2.11
  58  0.297  0.599  0.752-  59 1.15
  59  0.225  0.526  0.783-  58 1.15


IMPORTANT INFORMATION: All symmetrisations will be switched off!
NOSYMM: (Re-)initialisation of all symmetry stuff for point group C_1.



 KPOINTS: K-Points                                

Automatic generation of k-mesh.
Space group operators:
 irot       det(A)        alpha          n_x          n_y          n_z        tau_x        tau_y        tau_z
    1     1.000000     0.000000     1.000000     0.000000     0.000000     0.000000     0.000000     0.000000
 
 Subroutine IBZKPT returns following result:
 ===========================================
 
 Found      5 irreducible k-points:
 
 Following reciprocal coordinates:
            Coordinates               Weight
  0.000000  0.000000  0.000000      1.000000
  0.333333  0.000000  0.000000      2.000000
  0.000000  0.333333  0.000000      2.000000
  0.333333  0.333333  0.000000      2.000000
 -0.333333  0.333333  0.000000      2.000000
 
 Following cartesian coordinates:
            Coordinates               Weight
  0.000000  0.000000  0.000000      1.000000
  0.024277  0.014368  0.000000      2.000000
  0.000396  0.028736  0.000000      2.000000
  0.024673  0.043104  0.000000      2.000000
 -0.023881  0.014368  0.000000      2.000000
 
 TETIRR: Found     24 inequivalent tetrahedra from       54


--------------------------------------------------------------------------------------------------------




 Dimension of arrays:
   k-points           NKPTS =      5   k-points in BZ     NKDIM =      5   number of bands    NBANDS=    172
   number of dos      NEDOS =   4000   number of ions     NIONS =     59
   non local maximal  LDIM  =      6   non local SUM 2l+1 LMDIM =     18
   total plane-waves  NPLWV = 537600
   max r-space proj   IRMAX =      1   max aug-charges    IRDMAX=   6501
   dimension x,y,z NGX =    80 NGY =   80 NGZ =   84
   dimension x,y,z NGXF=   160 NGYF=  160 NGZF=  168
   support grid    NGXF=   160 NGYF=  160 NGZF=  168
   ions per type =              24  32   1   1   1
   NGX,Y,Z   is equivalent  to a cutoff of   9.06,  9.23,  8.78 a.u.
   NGXF,Y,Z  is equivalent  to a cutoff of  18.13, 18.46, 17.57 a.u.

 SYSTEM =  unknown system                          
 POSCAR =  POSCAR-c3n4                             

 Startparameter for this run:
   NWRITE =      2    write-flag & timer
   PREC   = normal    normal or accurate (medium, high low for compatibility)
   ISTART =      0    job   : 0-new  1-cont  2-samecut
   ICHARG =      2    charge: 1-file 2-atom 10-const
   ISPIN  =      2    spin polarized calculation?
   LNONCOLLINEAR =      F non collinear calculations
   LSORBIT =      F    spin-orbit coupling
   INIWAV =      1    electr: 0-lowe 1-rand  2-diag
   LASPH  =      F    aspherical Exc in radial PAW
   METAGGA=      F    non-selfconsistent MetaGGA calc.

 Electronic Relaxation 1
   ENCUT  =  440.0 eV  32.34 Ry    5.69 a.u.  25.10 24.64 27.19*2*pi/ulx,y,z
   ENINI  =  440.0     initial cutoff
   ENAUG  =  644.9 eV  augmentation charge cutoff
   NELM   =    100;   NELMIN=  2; NELMDL= -5     # of ELM steps 
   EDIFF  = 0.1E-03   stopping-criterion for ELM
   LREAL  =      F    real-space projection
   NLSPLINE    = F    spline interpolate recip. space projectors
   LCOMPAT=      F    compatible to vasp.4.4
   GGA_COMPAT  = T    GGA compatible to vasp.4.4-vasp.4.6
   LMAXPAW     = -100 max onsite density
   LMAXMIX     =    2 max onsite mixed and CHGCAR
   VOSKOWN=      0    Vosko Wilk Nusair interpolation
   ROPT   =    0.00000   0.00000   0.00000   0.00000
   ROPT   =    0.00000
 Ionic relaxation
   EDIFFG = -.1E-01   stopping-criterion for IOM
   NSW    =      0    number of steps for IOM
   NBLOCK =      1;   KBLOCK =      1    inner block; outer block 
   IBRION =     -1    ionic relax: 0-MD 1-quasi-New 2-CG
   NFREE  =      0    steps in history (QN), initial steepest desc. (CG)
   ISIF   =      2    stress and relaxation
   IWAVPR =     10    prediction:  0-non 1-charg 2-wave 3-comb
   ISYM   =      0    0-nonsym 1-usesym 2-fastsym
   LCORR  =      T    Harris-Foulkes like correction to forces

   POTIM  = 0.5000    time-step for ionic-motion
   TEIN   =    0.0    initial temperature
   TEBEG  =    0.0;   TEEND  =   0.0 temperature during run
   SMASS  =  -3.00    Nose mass-parameter (am)
   estimated Nose-frequenzy (Omega)   =  0.10E-29 period in steps =****** mass=  -0.492E-26a.u.
   SCALEE = 1.0000    scale energy and forces
   NPACO  =    256;   APACO  = 16.0  distance and # of slots for P.C.
   PSTRESS=    0.0 pullay stress

  Mass of Ions in am
   POMASS =  12.01 14.00 72.61 12.01 16.00
  Ionic Valenz
   ZVAL   =   4.00  5.00 14.00  4.00  6.00
  Atomic Wigner-Seitz radii
   RWIGS  =  -1.00 -1.00 -1.00 -1.00 -1.00
  virtual crystal weights 
   VCA    =   1.00  1.00  1.00  1.00  1.00
   NELECT =     280.0000    total number of electrons
   NUPDOWN=      -1.0000    fix difference up-down

 DOS related values:
   EMIN   = -14.00;   EMAX   =  6.00  energy-range for DOS
   EFERMI =   0.00
   ISMEAR =    -5;   SIGMA  =   0.20  broadening in eV -4-tet -1-fermi 0-gaus

 Electronic relaxation 2 (details)
   IALGO  =     38    algorithm
   LDIAG  =      T    sub-space diagonalisation (order eigenvalues)
   LSUBROT=      F    optimize rotation matrix (better conditioning)
   TURBO    =      0    0=normal 1=particle mesh
   IRESTART =      0    0=no restart 2=restart with 2 vectors
   NREBOOT  =      0    no. of reboots
   NMIN     =      0    reboot dimension
   EREF     =   0.00    reference energy to select bands
   IMIX   =      4    mixing-type and parameters
     AMIX     =   0.25;   BMIX     =  0.00
     AMIX_MAG =   1.00;   BMIX_MAG =  0.00
     AMIN     =   0.10
     WC   =   100.;   INIMIX=   1;  MIXPRE=   1;  MAXMIX= -45

 Intra band minimization:
   WEIMIN = 0.0000     energy-eigenvalue tresh-hold
   EBREAK =  0.15E-06  absolut break condition
   DEPER  =   0.30     relativ break condition  

   TIME   =   0.40     timestep for ELM

  volume/ion in A,a.u.               =      48.62       328.13
  Fermi-wavevector in a.u.,A,eV,Ry     =   0.753748  1.424378  7.729964  0.568136
  Thomas-Fermi vector in A             =   1.851258

 Write flags
   LWAVE        =      F    write WAVECAR
   LDOWNSAMPLE  =      F    k-point downsampling of WAVECAR
   LCHARG       =      F    write CHGCAR
   LVTOT        =      F    write LOCPOT, total local potential
   LVHAR        =      F    write LOCPOT, Hartree potential only
   LELF         =      F    write electronic localiz. function (ELF)
   LORBIT       =     11    0 simple, 1 ext, 2 COOP (PROOUT), +10 PAW based schemes


 Dipole corrections
   LMONO  =      F    monopole corrections only (constant potential shift)
   LDIPOL =      F    correct potential (dipole corrections)
   IDIPOL =      0    1-x, 2-y, 3-z, 4-all directions 
   EPSILON=  1.0000000 bulk dielectric constant

 Exchange correlation treatment:
   GGA     =    --    GGA type
   LEXCH   =     8    internal setting for exchange type
   VOSKOWN=      0    Vosko Wilk Nusair interpolation
   LHFCALC =     F    Hartree Fock is set to
   LHFONE  =     F    Hartree Fock one center treatment
   AEXX    =    0.0000 exact exchange contribution

 Linear response parameters
   LEPSILON=     F    determine dielectric tensor
   LRPA    =     F    only Hartree local field effects (RPA)
   LNABLA  =     F    use nabla operator in PAW spheres
   LVEL    =     F    velocity operator in full k-point grid
   LINTERFAST=   F  fast interpolation
   KINTER  =     0    interpolate to denser k-point grid
   CSHIFT  =0.1000    complex shift for real part using Kramers Kronig
   OMEGAMAX=  -1.0    maximum frequency
   DEG_THRESHOLD= 0.2000000E-02 threshold for treating states as degnerate
   RTIME   =   -0.100 relaxation time in fs
  (WPLASMAI=    0.000 imaginary part of plasma frequency in eV, 0.658/RTIME)
   DFIELD  = 0.0000000 0.0000000 0.0000000 field for delta impulse in time

 Orbital magnetization related:
   ORBITALMAG=     F  switch on orbital magnetization
   LCHIMAG   =     F  perturbation theory with respect to B field
   DQ        =  0.001000  dq finite difference perturbation B field
   LLRAUG    =     F  two centre corrections for induced B field



--------------------------------------------------------------------------------------------------------


 Static calculation
 charge density and potential will be updated during run
 spin polarized calculation
 Variant of blocked Davidson
 Davidson routine will perform the subspace rotation
 perform sub-space diagonalisation
    after iterative eigenvector-optimisation
 modified Broyden-mixing scheme, WC =      100.0
 initial mixing is a Kerker type mixing with AMIX =  0.2500 and BMIX =      0.0001
 Hartree-type preconditioning will be used
 using additional bands           32
 reciprocal scheme for non local part
 use partial core corrections
 calculate Harris-corrections to forces   (improved forces if not selfconsistent)
 use gradient corrections 
 use of overlap-Matrix (Vanderbilt PP)
 Fermi weights with tetrahedron method with Bloechl corrections


--------------------------------------------------------------------------------------------------------


  energy-cutoff  :      440.00
  volume of cell :     2868.82
      direct lattice vectors                 reciprocal lattice vectors
    14.674029689 -0.202184902  0.000000000     0.068707896  0.040664259 -0.000000000
    -7.337014844 12.396902454  0.000000000     0.001120578  0.081328518 -0.000000000
     0.000000000  0.000000000 15.900000000    -0.000000000 -0.000000000  0.062893082

  length of vectors
    14.675422517 14.405380150 15.900000000     0.079839569  0.081336237  0.062893082



 k-points in units of 2pi/SCALE and weight: K-Points                                
   0.00000000  0.00000000  0.00000000       0.111
   0.02427679  0.01436804  0.00000000       0.222
   0.00039594  0.02873608  0.00000000       0.222
   0.02467273  0.04310411  0.00000000       0.222
  -0.02388085  0.01436804  0.00000000       0.222

 k-points in reciprocal lattice and weights: K-Points                                
   0.00000000  0.00000000  0.00000000       0.111
   0.33333333  0.00000000  0.00000000       0.222
   0.00000000  0.33333333  0.00000000       0.222
   0.33333333  0.33333333  0.00000000       0.222
  -0.33333333  0.33333333  0.00000000       0.222

 position of ions in fractional coordinates (direct lattice) 
   0.10740292  0.21354761  0.47829273
   0.28643342  0.39234898  0.47707077
   0.10468864  0.39170417  0.47732555
   0.44564418  0.05807101  0.50792034
   0.44367993  0.38698080  0.46441914
   0.11010743  0.05439177  0.48091829
   0.10608864  0.71541019  0.49414878
   0.28700476  0.89368529  0.49761311
   0.10430962  0.89295374  0.50060927
   0.45047563  0.55358968  0.50502170
   0.44418776  0.88947400  0.48529398
   0.10330292  0.55381527  0.50203389
   0.60894721  0.21753223  0.49662921
   0.78597053  0.39157744  0.46421523
   0.60603118  0.39384911  0.47059575
   0.94506829  0.05461562  0.48950760
   0.94154982  0.38495385  0.46241065
   0.61282354  0.05944373  0.51068861
   0.61048115  0.71624557  0.50270559
   0.78798016  0.89321130  0.50899033
   0.60594678  0.89517466  0.50303983
   0.94426642  0.55710544  0.47059634
   0.94342051  0.88701843  0.51893161
   0.61527796  0.55876390  0.48439460
   0.16698389  0.33373650  0.47660029
   0.16231432  0.16238691  0.47245244
   0.33838509  0.99916639  0.51701039
   0.49920828  0.33778368  0.45326696
   0.33713659  0.34256893  0.45349511
   0.50196957  0.16635398  0.50605912
   0.15885228  0.99659729  0.47587302
   0.99903960  0.99752238  0.49498117
   0.16668431  0.83349716  0.49867798
   0.15576637  0.66041148  0.51721978
   0.34086480  0.49991488  0.50441186
   0.50028623  0.83818562  0.48092055
   0.33653565  0.83811440  0.47666551
   0.50361732  0.65988433  0.52072882
   0.15840861  0.49994861  0.50416049
   0.99673060  0.49792548  0.48474649
   0.66689077  0.33324188  0.47537395
   0.66505503  0.16786819  0.50987131
   0.83776396  0.99750966  0.48775534
   0.00313857  0.34024124  0.45349936
   0.83574510  0.33431824  0.45294341
   0.00102579  0.16274613  0.48533346
   0.66091561  0.00114728  0.52137181
   0.50063234  0.00158725  0.49891043
   0.66702853  0.83422008  0.50645035
   0.66424529  0.66822312  0.48161407
   0.83932048  0.50120512  0.46205831
   0.00144305  0.83818451  0.52757481
   0.83689624  0.83879573  0.53270959
   0.00566880  0.66659198  0.46682628
   0.66395696  0.50290502  0.48048628
   0.50154317  0.49892095  0.49072071
   0.31314536  0.62305694  0.54138791
   0.29686498  0.59949921  0.75188881
   0.22496838  0.52559815  0.78258091

 position of ions in cartesian coordinates  (Angst):
   0.00923162  2.62561362  7.60485439
   1.32446220  4.80599955  7.58542521
  -1.33773509  4.83475192  7.58947625
   6.11332811  0.62979808  8.07593341
   3.67128850  4.70765790  7.38426440
   1.21664639  0.65202744  7.64660078
  -3.69222732  8.84742080  7.85696555
  -2.34546590 11.02090135  7.91204844
  -5.02097233 11.04877059  7.95968746
   2.54859708  6.77171792  8.02984507
  -0.00805953 10.93691435  7.71617427
  -2.54748078  6.84470758  7.98233890
   7.33967219  2.57360587  7.89640450
   8.66034533  4.69543600  7.38102214
   6.00324282  4.75997867  7.48247241
  13.46724446  0.48598601  7.78317083
  10.99191791  4.58186817  7.35232926
   8.55645127  0.61301443  8.11994885
   3.70311420  8.75579637  7.99301896
   5.00933965 10.91373568  8.09294628
   2.32377122 10.97487968  7.99833322
   9.76870252  6.71546541  7.48248176
   7.33571320 10.80553560  8.25101256
   4.92894799  6.80254164  7.70187421
   0.00169690  4.10353724  7.57794469
   1.19036991  1.98027719  7.51199380
  -2.36542581 12.31815194  8.22046526
   4.84707334  4.08653890  7.20694472
   2.43371911  4.17862962  7.21057222
   6.14537472  1.96078336  8.04634003
  -4.98104599 12.32260186  7.56638109
   7.34110025 12.16419689  7.87020061
  -3.66945052 10.29908188  7.92897996
  -2.55972858  8.15556313  8.22379455
   1.33397730  6.12847830  8.02014861
   1.19143471 10.28975507  7.64663670
  -1.21092361 10.32198004  7.57898168
   2.54851438  8.07869788  8.27958824
  -1.34363770  6.16578634  8.01615175
  10.97276772  5.97120974  7.70746922
   7.34097428  3.99633181  7.55844587
   8.52738577  1.94658155  8.10695376
   4.97463001 12.19664677  7.75530985
  -2.45029956  4.21730283  7.21063984
   9.81085050  3.97553560  7.20180016
  -1.17901822  2.01734047  7.71680209
   9.68987763 -0.11940444  8.28981175
   7.33464817 -0.08154328  7.93267582
   3.66731126 10.20688188  8.05256063
   4.84439210  8.14959644  7.65766366
   8.63886423  6.04369305  7.34672712
  -6.12859688 10.39059982  8.38843953
   6.12638356 10.22926100  8.47008251
  -4.80761116  8.26252962  7.42253787
   6.05310256  6.10022238  7.63973179
   3.69906892  6.08366994  7.80245928
   0.02372627  7.66066283  8.60806771
  -0.04232909  7.37191164 11.95503209
  -0.55512876  6.47030383 12.44303642



--------------------------------------------------------------------------------------------------------


 k-point  1 :   0.0000 0.0000 0.0000  plane waves:   60121
 k-point  2 :   0.3333 0.0000 0.0000  plane waves:   60156
 k-point  3 :   0.0000 0.3333 0.0000  plane waves:   60050
 k-point  4 :   0.3333 0.3333 0.0000  plane waves:   60101
 k-point  5 :  -0.3333 0.3333 0.0000  plane waves:   60131

 maximum and minimum number of plane-waves per node :      5037     4979

 maximum number of plane-waves:     60156
 maximum index in each direction: 
   IXMAX=   25   IYMAX=   24   IZMAX=   27
   IXMIN=  -25   IYMIN=  -24   IZMIN=  -27


 parallel 3D FFT for wavefunctions:
    minimum data exchange during FFTs selected (reduces bandwidth)
 parallel 3D FFT for charge:
    minimum data exchange during FFTs selected (reduces bandwidth)


 total amount of memory used by VASP MPI-rank0   107964. kBytes
=======================================================================

   base      :      30000. kBytes
   nonl-proj :      22847. kBytes
   fftplans  :       4937. kBytes
   grid      :      15075. kBytes
   one-center:        155. kBytes
   wavefun   :      34950. kBytes

     INWAV:  cpu time    0.0001: real time    0.0001
 Broyden mixing: mesh for mixing (old mesh)
   NGX = 51   NGY = 49   NGZ = 55
  (NGX  =160   NGY  =160   NGZ  =168)
  gives a total of 137445 points

 initial charge density was supplied:
 charge density of overlapping atoms calculated
 number of electron     280.0000000 magnetization       2.0000000
 keeping initial charge density in first step


--------------------------------------------------------------------------------------------------------


 Maximum index for augmentation-charges          355 (set IRDMAX)


--------------------------------------------------------------------------------------------------------


 First call to EWALD:  gamma=   0.125
 Maximum number of real-space cells 3x 3x 3
 Maximum number of reciprocal cells 3x 3x 3

    FEWALD:  cpu time    0.0023: real time    0.0023


--------------------------------------- Iteration      1(   1)  ---------------------------------------


    POTLOK:  cpu time    0.1543: real time    0.1655
    SETDIJ:  cpu time    0.0097: real time    0.0101
     EDDAV:  cpu time   14.6496: real time   14.6736
 BZINTS: Fermi energy:  8.478973;280.000000 electrons
         Band energy:***********;  BLOECHL correction: -0.015508
       DOS:  cpu time    0.1452: real time    0.1452
    --------------------------------------------
      LOOP:  cpu time   14.9589: real time   14.9944

 eigenvalue-minimisations  :  4024
 total energy-change (2. order) : 0.2630770E+04  (-0.1015262E+05)
 number of electron     280.0000000 magnetization       2.0000000
 augmentation part      280.0000000 magnetization       2.0000000

 Free energy of the ion-electron system (eV)
  ---------------------------------------------------
  alpha Z        PSCENC =       129.88610169
  Ewald energy   TEWEN  =     28800.74929431
  -Hartree energ DENC   =    -40675.72839908
  -exchange      EXHF   =         0.00000000
  -V(xc)+E(xc)   XCENC  =      1061.14855287
  PAW double counting   =     11453.83848114   -11942.90478952
  entropy T*S    EENTRO =         0.00000000
  eigenvalues    EBANDS =     -1367.95581267
  atomic energy  EATOM  =     15171.73615219
  Solvation  Ediel_sol  =         0.00000000
  ---------------------------------------------------
  free energy    TOTEN  =      2630.76958092 eV

  energy without entropy =     2630.76958092  energy(sigma->0) =     2630.76958092


--------------------------------------------------------------------------------------------------------




--------------------------------------- Iteration      1(   2)  ---------------------------------------


     EDDAV:  cpu time   17.0440: real time   17.0616
 BZINTS: Fermi energy: -0.001500;280.000000 electrons
         Band energy:***********;  BLOECHL correction:  0.000000
       DOS:  cpu time    0.0172: real time    0.0172
    --------------------------------------------
      LOOP:  cpu time   17.0612: real time   17.0789

 eigenvalue-minimisations  :  4888
 total energy-change (2. order) :-0.2555198E+04  (-0.2444195E+04)
 number of electron     280.0000000 magnetization       2.0000000
 augmentation part      280.0000000 magnetization       2.0000000

 Free energy of the ion-electron system (eV)
  ---------------------------------------------------
  alpha Z        PSCENC =       129.88610169
  Ewald energy   TEWEN  =     28800.74929431
  -Hartree energ DENC   =    -40675.72839908
  -exchange      EXHF   =         0.00000000
  -V(xc)+E(xc)   XCENC  =      1061.14855287
  PAW double counting   =     11453.83848114   -11942.90478952
  entropy T*S    EENTRO =         0.00000000
  eigenvalues    EBANDS =     -3923.15413077
  atomic energy  EATOM  =     15171.73615219
  Solvation  Ediel_sol  =         0.00000000
  ---------------------------------------------------
  free energy    TOTEN  =        75.57126281 eV

  energy without entropy =       75.57126281  energy(sigma->0) =       75.57126281


--------------------------------------------------------------------------------------------------------




--------------------------------------- Iteration      1(   3)  ---------------------------------------


     EDDAV:  cpu time   14.8320: real time   14.8436
 BZINTS: Fermi energy: -3.680522;280.000000 electrons
         Band energy:***********;  BLOECHL correction: -0.000814
       DOS:  cpu time    0.0228: real time    0.0228
    --------------------------------------------
      LOOP:  cpu time   14.8547: real time   14.8663

 eigenvalue-minimisations  :  4092
 total energy-change (2. order) :-0.5724052E+03  (-0.5682161E+03)
 number of electron     280.0000000 magnetization       2.0000000
 augmentation part      280.0000000 magnetization       2.0000000

 Free energy of the ion-electron system (eV)
  ---------------------------------------------------
  alpha Z        PSCENC =       129.88610169
  Ewald energy   TEWEN  =     28800.74929431
  -Hartree energ DENC   =    -40675.72839908
  -exchange      EXHF   =         0.00000000
  -V(xc)+E(xc)   XCENC  =      1061.14855287
  PAW double counting   =     11453.83848114   -11942.90478952
  entropy T*S    EENTRO =         0.00000000
  eigenvalues    EBANDS =     -4495.55934555
  atomic energy  EATOM  =     15171.73615219
  Solvation  Ediel_sol  =         0.00000000
  ---------------------------------------------------
  free energy    TOTEN  =      -496.83395196 eV

  energy without entropy =     -496.83395196  energy(sigma->0) =     -496.83395196


--------------------------------------------------------------------------------------------------------




--------------------------------------- Iteration      1(   4)  ---------------------------------------


     EDDAV:  cpu time   15.5215: real time   15.5281
 BZINTS: Fermi energy: -4.093776;280.000000 electrons
         Band energy:***********;  BLOECHL correction: -0.002938
       DOS:  cpu time    0.0252: real time    0.0252
    --------------------------------------------
      LOOP:  cpu time   15.5468: real time   15.5533

 eigenvalue-minimisations  :  4336
 total energy-change (2. order) :-0.2521391E+02  (-0.2454552E+02)
 number of electron     280.0000000 magnetization       2.0000000
 augmentation part      280.0000000 magnetization       2.0000000

 Free energy of the ion-electron system (eV)
  ---------------------------------------------------
  alpha Z        PSCENC =       129.88610169
  Ewald energy   TEWEN  =     28800.74929431
  -Hartree energ DENC   =    -40675.72839908
  -exchange      EXHF   =         0.00000000
  -V(xc)+E(xc)   XCENC  =      1061.14855287
  PAW double counting   =     11453.83848114   -11942.90478952
  entropy T*S    EENTRO =         0.00000000
  eigenvalues    EBANDS =     -4520.77325777
  atomic energy  EATOM  =     15171.73615219
  Solvation  Ediel_sol  =         0.00000000
  ---------------------------------------------------
  free energy    TOTEN  =      -522.04786419 eV

  energy without entropy =     -522.04786419  energy(sigma->0) =     -522.04786419


--------------------------------------------------------------------------------------------------------




--------------------------------------- Iteration      1(   5)  ---------------------------------------


     EDDAV:  cpu time   17.4809: real time   17.4926
 BZINTS: Fermi energy: -4.127811;280.000000 electrons
         Band energy:***********;  BLOECHL correction: -0.004134
       DOS:  cpu time    0.0244: real time    0.0244
    CHARGE:  cpu time    0.2670: real time    0.2672
    MIXING:  cpu time    0.0039: real time    0.0041
    --------------------------------------------
      LOOP:  cpu time   17.7762: real time   17.7883

 eigenvalue-minimisations  :  5040
 total energy-change (2. order) :-0.1105388E+01  (-0.1091734E+01)
 number of electron     280.0000032 magnetization       0.0262256
 augmentation part       20.0480262 magnetization       0.0315805

 Broyden mixing:
  rms(total) = 0.40437E+01    rms(broyden)= 0.40408E+01
  rms(prec ) = 0.44423E+01
  weight for this iteration     100.00

 Free energy of the ion-electron system (eV)
  ---------------------------------------------------
  alpha Z        PSCENC =       129.88610169
  Ewald energy   TEWEN  =     28800.74929431
  -Hartree energ DENC   =    -40675.72839908
  -exchange      EXHF   =         0.00000000
  -V(xc)+E(xc)   XCENC  =      1061.14855287
  PAW double counting   =     11453.83848114   -11942.90478952
  entropy T*S    EENTRO =         0.00000000
  eigenvalues    EBANDS =     -4521.87864575
  atomic energy  EATOM  =     15171.73615219
  Solvation  Ediel_sol  =         0.00000000
  ---------------------------------------------------
  free energy    TOTEN  =      -523.15325216 eV

  energy without entropy =     -523.15325216  energy(sigma->0) =     -523.15325216


--------------------------------------------------------------------------------------------------------




--------------------------------------- Iteration      1(   6)  ---------------------------------------


    POTLOK:  cpu time    0.1396: real time    0.1431
    SETDIJ:  cpu time    0.0089: real time    0.0089
     EDDAV:  cpu time   15.7121: real time   15.7180
 BZINTS: Fermi energy: -3.541135;280.000000 electrons
         Band energy:***********;  BLOECHL correction:  0.000000
       DOS:  cpu time    0.0161: real time    0.0161
    CHARGE:  cpu time    0.2577: real time    0.2579
    MIXING:  cpu time    0.0044: real time    0.0081
    --------------------------------------------
      LOOP:  cpu time   16.1389: real time   16.1521

 eigenvalue-minimisations  :  4368
 total energy-change (2. order) : 0.2683370E+02  (-0.5252738E+01)
 number of electron     280.0000024 magnetization      -0.0129792
 augmentation part       18.8867065 magnetization      -0.0025415

 Broyden mixing:
  rms(total) = 0.24543E+01    rms(broyden)= 0.24539E+01
  rms(prec ) = 0.25983E+01
  weight for this iteration     100.00

 eigenvalues of (default mixing * dielectric matrix)
  average eigenvalue GAMMA=   1.4059
  1.4059

 Free energy of the ion-electron system (eV)
  ---------------------------------------------------
  alpha Z        PSCENC =       129.88610169
  Ewald energy   TEWEN  =     28800.74929431
  -Hartree energ DENC   =    -40975.91174777
  -exchange      EXHF   =         0.00000000
  -V(xc)+E(xc)   XCENC  =      1075.54083813
  PAW double counting   =     14783.76545044   -15274.88292281
  entropy T*S    EENTRO =         0.00000000
  eigenvalues    EBANDS =     -4207.20271621
  atomic energy  EATOM  =     15171.73615219
  Solvation  Ediel_sol  =         0.00000000
  ---------------------------------------------------
  free energy    TOTEN  =      -496.31955005 eV

  energy without entropy =     -496.31955005  energy(sigma->0) =     -496.31955005


--------------------------------------------------------------------------------------------------------




--------------------------------------- Iteration      1(   7)  ---------------------------------------


    POTLOK:  cpu time    0.1362: real time    0.1416
    SETDIJ:  cpu time    0.0089: real time    0.0089
     EDDAV:  cpu time   15.2912: real time   15.2999
 BZINTS: Fermi energy: -3.226057;280.000000 electrons
         Band energy:***********;  BLOECHL correction:  0.000000
       DOS:  cpu time    0.0158: real time    0.0158
    CHARGE:  cpu time    0.2573: real time    0.2574
    MIXING:  cpu time    0.0038: real time    0.0038
    --------------------------------------------
      LOOP:  cpu time   15.7132: real time   15.7275

 eigenvalue-minimisations  :  4232
 total energy-change (2. order) : 0.4595108E+01  (-0.3083411E+01)
 number of electron     280.0000025 magnetization      -0.0013627
 augmentation part       18.4739419 magnetization      -0.0015109

 Broyden mixing:
  rms(total) = 0.15732E+01    rms(broyden)= 0.15727E+01
  rms(prec ) = 0.16738E+01
  weight for this iteration     100.00

 eigenvalues of (default mixing * dielectric matrix)
  average eigenvalue GAMMA=   1.5828
  1.0565  2.1092

 Free energy of the ion-electron system (eV)
  ---------------------------------------------------
  alpha Z        PSCENC =       129.88610169
  Ewald energy   TEWEN  =     28800.74929431
  -Hartree energ DENC   =    -41241.98633157
  -exchange      EXHF   =         0.00000000
  -V(xc)+E(xc)   XCENC  =      1086.37077698
  PAW double counting   =     19258.82684070   -19753.16683596
  entropy T*S    EENTRO =         0.00000000
  eigenvalues    EBANDS =     -3944.14043992
  atomic energy  EATOM  =     15171.73615219
  Solvation  Ediel_sol  =         0.00000000
  ---------------------------------------------------
  free energy    TOTEN  =      -491.72444158 eV

  energy without entropy =     -491.72444158  energy(sigma->0) =     -491.72444158


--------------------------------------------------------------------------------------------------------




--------------------------------------- Iteration      1(   8)  ---------------------------------------


    POTLOK:  cpu time    0.1395: real time    0.1443
    SETDIJ:  cpu time    0.0089: real time    0.0089
     EDDAV:  cpu time   15.4801: real time   15.4864
 BZINTS: Fermi energy: -2.920980;280.000000 electrons
         Band energy:***********;  BLOECHL correction:  0.000000
       DOS:  cpu time    0.0162: real time    0.0162
    CHARGE:  cpu time    0.2603: real time    0.2604
    MIXING:  cpu time    0.0039: real time    0.0039
    --------------------------------------------
      LOOP:  cpu time   15.9090: real time   15.9201

 eigenvalue-minimisations  :  4296
 total energy-change (2. order) : 0.7689753E+00  (-0.2246814E+01)
 number of electron     280.0000023 magnetization       0.0078846
 augmentation part       18.3563245 magnetization       0.0070085

 Broyden mixing:
  rms(total) = 0.10663E+01    rms(broyden)= 0.10659E+01
  rms(prec ) = 0.11469E+01
  weight for this iteration     100.00

 eigenvalues of (default mixing * dielectric matrix)
  average eigenvalue GAMMA=   1.7135
  3.2242  1.2595  0.6569

 Free energy of the ion-electron system (eV)
  ---------------------------------------------------
  alpha Z        PSCENC =       129.88610169
  Ewald energy   TEWEN  =     28800.74929431
  -Hartree energ DENC   =    -41343.02208655
  -exchange      EXHF   =         0.00000000
  -V(xc)+E(xc)   XCENC  =      1090.39829210
  PAW double counting   =     22357.69572559   -22854.09603652
  entropy T*S    EENTRO =         0.00000000
  eigenvalues    EBANDS =     -3844.30290904
  atomic energy  EATOM  =     15171.73615219
  Solvation  Ediel_sol  =         0.00000000
  ---------------------------------------------------
  free energy    TOTEN  =      -490.95546624 eV

  energy without entropy =     -490.95546624  energy(sigma->0) =     -490.95546624


--------------------------------------------------------------------------------------------------------




--------------------------------------- Iteration      1(   9)  ---------------------------------------


    POTLOK:  cpu time    0.1428: real time    0.1434
    SETDIJ:  cpu time    0.0089: real time    0.0089
     EDDAV:  cpu time   15.0304: real time   15.0392
 BZINTS: Fermi energy: -2.260815;280.000000 electrons
         Band energy:***********;  BLOECHL correction:  0.000000
       DOS:  cpu time    0.0160: real time    0.0160
    CHARGE:  cpu time    0.2594: real time    0.2602
    MIXING:  cpu time    0.0040: real time    0.0040
    --------------------------------------------
      LOOP:  cpu time   15.4616: real time   15.4718

 eigenvalue-minimisations  :  4144
 total energy-change (2. order) : 0.8819281E+00  (-0.4644617E+00)
 number of electron     280.0000023 magnetization       0.0018826
 augmentation part       18.3079021 magnetization       0.0011097

 Broyden mixing:
  rms(total) = 0.45470E+00    rms(broyden)= 0.45451E+00
  rms(prec ) = 0.51790E+00
  weight for this iteration     100.00

 eigenvalues of (default mixing * dielectric matrix)
  average eigenvalue GAMMA=   1.6595
  3.6977  1.3430  0.9284  0.6688

 Free energy of the ion-electron system (eV)
  ---------------------------------------------------
  alpha Z        PSCENC =       129.88610169
  Ewald energy   TEWEN  =     28800.74929431
  -Hartree energ DENC   =    -41443.24251094
  -exchange      EXHF   =         0.00000000
  -V(xc)+E(xc)   XCENC  =      1094.14953012
  PAW double counting   =     26679.93617930   -27179.73663989
  entropy T*S    EENTRO =         0.00000000
  eigenvalues    EBANDS =     -3743.55164495
  atomic energy  EATOM  =     15171.73615219
  Solvation  Ediel_sol  =         0.00000000
  ---------------------------------------------------
  free energy    TOTEN  =      -490.07353818 eV

  energy without entropy =     -490.07353818  energy(sigma->0) =     -490.07353818


--------------------------------------------------------------------------------------------------------




--------------------------------------- Iteration      1(  10)  ---------------------------------------


    POTLOK:  cpu time    0.1438: real time    0.1446
    SETDIJ:  cpu time    0.0089: real time    0.0089
     EDDAV:  cpu time   15.4904: real time   15.4978
 BZINTS: Fermi energy: -2.265991;280.000000 electrons
         Band energy:***********;  BLOECHL correction: -0.004596
       DOS:  cpu time    0.0229: real time    0.0229
    CHARGE:  cpu time    0.2630: real time    0.2630
    MIXING:  cpu time    0.0044: real time    0.0044
    --------------------------------------------
      LOOP:  cpu time   15.9334: real time   15.9416

 eigenvalue-minimisations  :  4304
 total energy-change (2. order) : 0.2082012E+00  (-0.2008138E+00)
 number of electron     280.0000024 magnetization      -0.0036402
 augmentation part       18.3326962 magnetization      -0.0022205

 Broyden mixing:
  rms(total) = 0.23883E+00    rms(broyden)= 0.23863E+00
  rms(prec ) = 0.26950E+00
  weight for this iteration     100.00

 eigenvalues of (default mixing * dielectric matrix)
  average eigenvalue GAMMA=   1.5730
  3.8533  1.4360  1.1787  0.7229  0.6740

 Free energy of the ion-electron system (eV)
  ---------------------------------------------------
  alpha Z        PSCENC =       129.88610169
  Ewald energy   TEWEN  =     28800.74929431
  -Hartree energ DENC   =    -41443.39707776
  -exchange      EXHF   =         0.00000000
  -V(xc)+E(xc)   XCENC  =      1094.41388604
  PAW double counting   =     28043.03737889   -28543.51035281
  entropy T*S    EENTRO =         0.00000000
  eigenvalues    EBANDS =     -3742.78071957
  atomic energy  EATOM  =     15171.73615219
  Solvation  Ediel_sol  =         0.00000000
  ---------------------------------------------------
  free energy    TOTEN  =      -489.86533703 eV

  energy without entropy =     -489.86533703  energy(sigma->0) =     -489.86533703


--------------------------------------------------------------------------------------------------------




--------------------------------------- Iteration      1(  11)  ---------------------------------------


    POTLOK:  cpu time    0.1405: real time    0.1422
    SETDIJ:  cpu time    0.0087: real time    0.0087
     EDDAV:  cpu time   15.0335: real time   15.0455
 BZINTS: Fermi energy: -2.355839;280.000000 electrons
         Band energy:***********;  BLOECHL correction:  0.000000
       DOS:  cpu time    0.0153: real time    0.0153
    CHARGE:  cpu time    0.2619: real time    0.2620
    MIXING:  cpu time    0.0045: real time    0.0046
    --------------------------------------------
      LOOP:  cpu time   15.4645: real time   15.4782

 eigenvalue-minimisations  :  4136
 total energy-change (2. order) :-0.5842218E-01  (-0.1946709E+00)
 number of electron     280.0000024 magnetization      -0.0012721
 augmentation part       18.3318251 magnetization      -0.0013586

 Broyden mixing:
  rms(total) = 0.22496E+00    rms(broyden)= 0.22445E+00
  rms(prec ) = 0.30183E+00
  weight for this iteration     100.00

 eigenvalues of (default mixing * dielectric matrix)
  average eigenvalue GAMMA=   1.4276
  3.8850  1.5279  1.0796  0.8042  0.8042  0.4644

 Free energy of the ion-electron system (eV)
  ---------------------------------------------------
  alpha Z        PSCENC =       129.88610169
  Ewald energy   TEWEN  =     28800.74929431
  -Hartree energ DENC   =    -41424.74966655
  -exchange      EXHF   =         0.00000000
  -V(xc)+E(xc)   XCENC  =      1093.92762210
  PAW double counting   =     28574.36901960   -29074.32339022
  entropy T*S    EENTRO =         0.00000000
  eigenvalues    EBANDS =     -3761.51889232
  atomic energy  EATOM  =     15171.73615219
  Solvation  Ediel_sol  =         0.00000000
  ---------------------------------------------------
  free energy    TOTEN  =      -489.92375921 eV

  energy without entropy =     -489.92375921  energy(sigma->0) =     -489.92375921


--------------------------------------------------------------------------------------------------------




--------------------------------------- Iteration      1(  12)  ---------------------------------------


    POTLOK:  cpu time    0.1415: real time    0.1437
    SETDIJ:  cpu time    0.0087: real time    0.0087
     EDDAV:  cpu time   15.3127: real time   15.3261
 BZINTS: Fermi energy: -2.315829;280.000000 electrons
         Band energy:***********;  BLOECHL correction:  0.000000
       DOS:  cpu time    0.0159: real time    0.0159
    CHARGE:  cpu time    0.2624: real time    0.2624
    MIXING:  cpu time    0.0047: real time    0.0047
    --------------------------------------------
      LOOP:  cpu time   15.7461: real time   15.7619

 eigenvalue-minimisations  :  4248
 total energy-change (2. order) : 0.9113091E-01  (-0.1301274E+00)
 number of electron     280.0000023 magnetization       0.0002924
 augmentation part       18.3325767 magnetization       0.0001687

 Broyden mixing:
  rms(total) = 0.14155E+00    rms(broyden)= 0.14094E+00
  rms(prec ) = 0.17834E+00
  weight for this iteration     100.00

 eigenvalues of (default mixing * dielectric matrix)
  average eigenvalue GAMMA=   1.4335
  3.7819  2.0903  1.3205  0.9721  0.7261  0.7261  0.4174

 Free energy of the ion-electron system (eV)
  ---------------------------------------------------
  alpha Z        PSCENC =       129.88610169
  Ewald energy   TEWEN  =     28800.74929431
  -Hartree energ DENC   =    -41418.76549352
  -exchange      EXHF   =         0.00000000
  -V(xc)+E(xc)   XCENC  =      1093.67039041
  PAW double counting   =     28702.49830463   -29202.35866753
  entropy T*S    EENTRO =         0.00000000
  eigenvalues    EBANDS =     -3767.24871048
  atomic energy  EATOM  =     15171.73615219
  Solvation  Ediel_sol  =         0.00000000
  ---------------------------------------------------
  free energy    TOTEN  =      -489.83262831 eV

  energy without entropy =     -489.83262831  energy(sigma->0) =     -489.83262831


--------------------------------------------------------------------------------------------------------




--------------------------------------- Iteration      1(  13)  ---------------------------------------


    POTLOK:  cpu time    0.1429: real time    0.1435
    SETDIJ:  cpu time    0.0088: real time    0.0088
     EDDAV:  cpu time   14.7919: real time   14.8028
 BZINTS: Fermi energy: -2.385846;280.000000 electrons
         Band energy:***********;  BLOECHL correction:  0.000000
       DOS:  cpu time    0.0152: real time    0.0152
    CHARGE:  cpu time    0.2617: real time    0.2618
    MIXING:  cpu time    0.0050: real time    0.0050
    --------------------------------------------
      LOOP:  cpu time   15.2253: real time   15.2369

 eigenvalue-minimisations  :  4064
 total energy-change (2. order) :-0.5736622E-02  (-0.8906344E-01)
 number of electron     280.0000024 magnetization      -0.0002023
 augmentation part       18.3519353 magnetization      -0.0001065

 Broyden mixing:
  rms(total) = 0.15010E+00    rms(broyden)= 0.14966E+00
  rms(prec ) = 0.21157E+00
  weight for this iteration     100.00

 eigenvalues of (default mixing * dielectric matrix)
  average eigenvalue GAMMA=   1.4199
  3.7780  2.3568  1.2813  1.1156  1.1156  0.6799  0.6799  0.3521

 Free energy of the ion-electron system (eV)
  ---------------------------------------------------
  alpha Z        PSCENC =       129.88610169
  Ewald energy   TEWEN  =     28800.74929431
  -Hartree energ DENC   =    -41401.60071093
  -exchange      EXHF   =         0.00000000
  -V(xc)+E(xc)   XCENC  =      1093.08169720
  PAW double counting   =     28764.16759148   -29263.69217298
  entropy T*S    EENTRO =         0.00000000
  eigenvalues    EBANDS =     -3784.16631788
  atomic energy  EATOM  =     15171.73615219
  Solvation  Ediel_sol  =         0.00000000
  ---------------------------------------------------
  free energy    TOTEN  =      -489.83836493 eV

  energy without entropy =     -489.83836493  energy(sigma->0) =     -489.83836493


--------------------------------------------------------------------------------------------------------




--------------------------------------- Iteration      1(  14)  ---------------------------------------


    POTLOK:  cpu time    0.1395: real time    0.1412
    SETDIJ:  cpu time    0.0088: real time    0.0088
     EDDAV:  cpu time   15.8663: real time   15.8720
 BZINTS: Fermi energy: -2.370843;280.000000 electrons
         Band energy:***********;  BLOECHL correction:  0.000000
       DOS:  cpu time    0.0153: real time    0.0153
    CHARGE:  cpu time    0.2636: real time    0.2638
    MIXING:  cpu time    0.0051: real time    0.0052
    --------------------------------------------
      LOOP:  cpu time   16.2987: real time   16.3063

 eigenvalue-minimisations  :  4448
 total energy-change (2. order) : 0.3644459E-01  (-0.5376231E-01)
 number of electron     280.0000024 magnetization      -0.0003248
 augmentation part       18.3410204 magnetization      -0.0003846

 Broyden mixing:
  rms(total) = 0.68171E-01    rms(broyden)= 0.67471E-01
  rms(prec ) = 0.94648E-01
  weight for this iteration     100.00

 eigenvalues of (default mixing * dielectric matrix)
  average eigenvalue GAMMA=   1.4086
  3.7877  2.7861  1.3822  1.1202  1.1202  0.8433  0.6460  0.6460  0.3455

 Free energy of the ion-electron system (eV)
  ---------------------------------------------------
  alpha Z        PSCENC =       129.88610169
  Ewald energy   TEWEN  =     28800.74929431
  -Hartree energ DENC   =    -41397.61797012
  -exchange      EXHF   =         0.00000000
  -V(xc)+E(xc)   XCENC  =      1092.94319264
  PAW double counting   =     28828.87867043   -29328.27721693
  entropy T*S    EENTRO =         0.00000000
  eigenvalues    EBANDS =     -3788.10014454
  atomic energy  EATOM  =     15171.73615219
  Solvation  Ediel_sol  =         0.00000000
  ---------------------------------------------------
  free energy    TOTEN  =      -489.80192034 eV

  energy without entropy =     -489.80192034  energy(sigma->0) =     -489.80192034


--------------------------------------------------------------------------------------------------------




--------------------------------------- Iteration      1(  15)  ---------------------------------------


    POTLOK:  cpu time    0.1408: real time    0.1419
    SETDIJ:  cpu time    0.0088: real time    0.0088
     EDDAV:  cpu time   14.5437: real time   14.5511
 BZINTS: Fermi energy: -2.384417;280.000000 electrons
         Band energy:***********;  BLOECHL correction: -0.006710
       DOS:  cpu time    0.0230: real time    0.0230
    CHARGE:  cpu time    0.2618: real time    0.2619
    MIXING:  cpu time    0.0054: real time    0.0054
    --------------------------------------------
      LOOP:  cpu time   14.9835: real time   14.9922

 eigenvalue-minimisations  :  3976
 total energy-change (2. order) :-0.6192773E-02  (-0.1416677E-01)
 number of electron     280.0000024 magnetization      -0.0001623
 augmentation part       18.3562179 magnetization      -0.0000810

 Broyden mixing:
  rms(total) = 0.60058E-01    rms(broyden)= 0.59830E-01
  rms(prec ) = 0.84819E-01
  weight for this iteration     100.00

 eigenvalues of (default mixing * dielectric matrix)
  average eigenvalue GAMMA=   1.3516
  3.7876  2.6892  1.4760  1.2256  1.2256  0.9440  0.6988  0.6988  0.4419  0.3283

 Free energy of the ion-electron system (eV)
  ---------------------------------------------------
  alpha Z        PSCENC =       129.88610169
  Ewald energy   TEWEN  =     28800.74929431
  -Hartree energ DENC   =    -41394.27648259
  -exchange      EXHF   =         0.00000000
  -V(xc)+E(xc)   XCENC  =      1092.82763647
  PAW double counting   =     28873.52330573   -29372.94666410
  entropy T*S    EENTRO =         0.00000000
  eigenvalues    EBANDS =     -3791.30745680
  atomic energy  EATOM  =     15171.73615219
  Solvation  Ediel_sol  =         0.00000000
  ---------------------------------------------------
  free energy    TOTEN  =      -489.80811311 eV

  energy without entropy =     -489.80811311  energy(sigma->0) =     -489.80811311


--------------------------------------------------------------------------------------------------------




--------------------------------------- Iteration      1(  16)  ---------------------------------------


    POTLOK:  cpu time    0.1367: real time    0.1420
    SETDIJ:  cpu time    0.0088: real time    0.0088
     EDDAV:  cpu time   14.6110: real time   14.6207
 BZINTS: Fermi energy: -2.369589;280.000000 electrons
         Band energy:***********;  BLOECHL correction: -0.006874
       DOS:  cpu time    0.0225: real time    0.0225
    CHARGE:  cpu time    0.2694: real time    0.2696
    MIXING:  cpu time    0.0059: real time    0.0059
    --------------------------------------------
      LOOP:  cpu time   15.0543: real time   15.0694

 eigenvalue-minimisations  :  3984
 total energy-change (2. order) : 0.3331416E-02  (-0.1860000E-02)
 number of electron     280.0000024 magnetization      -0.0007383
 augmentation part       18.3489746 magnetization       0.0006718

 Broyden mixing:
  rms(total) = 0.38377E-01    rms(broyden)= 0.38348E-01
  rms(prec ) = 0.52082E-01
  weight for this iteration     100.00

 eigenvalues of (default mixing * dielectric matrix)
  average eigenvalue GAMMA=   1.2432
  3.7814  2.6701  1.4988  1.2441  1.2441  0.9391  0.7000  0.7000  0.4499  0.3274
  0.1205

 Free energy of the ion-electron system (eV)
  ---------------------------------------------------
  alpha Z        PSCENC =       129.88610169
  Ewald energy   TEWEN  =     28800.74929431
  -Hartree energ DENC   =    -41395.50473407
  -exchange      EXHF   =         0.00000000
  -V(xc)+E(xc)   XCENC  =      1092.86891829
  PAW double counting   =     28874.74572335   -29374.18876888
  entropy T*S    EENTRO =         0.00000000
  eigenvalues    EBANDS =     -3790.09746858
  atomic energy  EATOM  =     15171.73615219
  Solvation  Ediel_sol  =         0.00000000
  ---------------------------------------------------
  free energy    TOTEN  =      -489.80478170 eV

  energy without entropy =     -489.80478170  energy(sigma->0) =     -489.80478170


--------------------------------------------------------------------------------------------------------




--------------------------------------- Iteration      1(  17)  ---------------------------------------


    POTLOK:  cpu time    0.1389: real time    0.1436
    SETDIJ:  cpu time    0.0089: real time    0.0089
     EDDAV:  cpu time   15.0326: real time   15.0439
 BZINTS: Fermi energy: -2.369995;280.000000 electrons
         Band energy:***********;  BLOECHL correction: -0.007002
       DOS:  cpu time    0.0219: real time    0.0219
    CHARGE:  cpu time    0.2643: real time    0.2643
    MIXING:  cpu time    0.0058: real time    0.0058
    --------------------------------------------
      LOOP:  cpu time   15.4724: real time   15.4885

 eigenvalue-minimisations  :  4144
 total energy-change (2. order) : 0.3406710E-03  (-0.1039207E-02)
 number of electron     280.0000024 magnetization      -0.0031646
 augmentation part       18.3492714 magnetization       0.0039260

 Broyden mixing:
  rms(total) = 0.20442E-01    rms(broyden)= 0.20309E-01
  rms(prec ) = 0.20888E-01
  weight for this iteration     100.00

 eigenvalues of (default mixing * dielectric matrix)
  average eigenvalue GAMMA=   1.1581
  3.7803  2.6636  1.5106  1.2534  1.2534  0.9363  0.7027  0.7027  0.4596  0.3270
  0.2037  0.1037

 Free energy of the ion-electron system (eV)
  ---------------------------------------------------
  alpha Z        PSCENC =       129.88610169
  Ewald energy   TEWEN  =     28800.74929431
  -Hartree energ DENC   =    -41395.92877101
  -exchange      EXHF   =         0.00000000
  -V(xc)+E(xc)   XCENC  =      1092.88483153
  PAW double counting   =     28871.66352925   -29371.12245420
  entropy T*S    EENTRO =         0.00000000
  eigenvalues    EBANDS =     -3789.67312479
  atomic energy  EATOM  =     15171.73615219
  Solvation  Ediel_sol  =         0.00000000
  ---------------------------------------------------
  free energy    TOTEN  =      -489.80444102 eV

  energy without entropy =     -489.80444102  energy(sigma->0) =     -489.80444102


--------------------------------------------------------------------------------------------------------




--------------------------------------- Iteration      1(  18)  ---------------------------------------


    POTLOK:  cpu time    0.1389: real time    0.1422
    SETDIJ:  cpu time    0.0089: real time    0.0089
     EDDAV:  cpu time   11.7639: real time   11.7731
 BZINTS: Fermi energy: -2.369569;280.000000 electrons
         Band energy:***********;  BLOECHL correction: -0.006768
       DOS:  cpu time    0.0202: real time    0.0202
    CHARGE:  cpu time    0.2626: real time    0.2626
    MIXING:  cpu time    0.0060: real time    0.0060
    --------------------------------------------
      LOOP:  cpu time   12.2006: real time   12.2130

 eigenvalue-minimisations  :  2976
 total energy-change (2. order) :-0.1188102E-02  (-0.5300317E-03)
 number of electron     280.0000024 magnetization      -0.0060801
 augmentation part       18.3496877 magnetization       0.0012857

 Broyden mixing:
  rms(total) = 0.34107E-01    rms(broyden)= 0.34077E-01
  rms(prec ) = 0.39706E-01
  weight for this iteration     100.00

 eigenvalues of (default mixing * dielectric matrix)
  average eigenvalue GAMMA=   1.1563
  3.7487  2.5237  1.7360  1.2845  1.2845  0.9600  0.6945  0.6945  0.5616  0.5616
  0.3267  0.3267  0.3292

 Free energy of the ion-electron system (eV)
  ---------------------------------------------------
  alpha Z        PSCENC =       129.88610169
  Ewald energy   TEWEN  =     28800.74929431
  -Hartree energ DENC   =    -41396.00010058
  -exchange      EXHF   =         0.00000000
  -V(xc)+E(xc)   XCENC  =      1092.88725919
  PAW double counting   =     28870.30723691   -29369.76652977
  entropy T*S    EENTRO =         0.00000000
  eigenvalues    EBANDS =     -3789.60504305
  atomic energy  EATOM  =     15171.73615219
  Solvation  Ediel_sol  =         0.00000000
  ---------------------------------------------------
  free energy    TOTEN  =      -489.80562913 eV

  energy without entropy =     -489.80562913  energy(sigma->0) =     -489.80562913


--------------------------------------------------------------------------------------------------------




--------------------------------------- Iteration      1(  19)  ---------------------------------------


    POTLOK:  cpu time    0.1369: real time    0.1454
    SETDIJ:  cpu time    0.0089: real time    0.0089
     EDDAV:  cpu time   12.0052: real time   12.0130
 BZINTS: Fermi energy: -2.368711;280.000000 electrons
         Band energy:***********;  BLOECHL correction: -0.006825
       DOS:  cpu time    0.0230: real time    0.0230
    CHARGE:  cpu time    0.2639: real time    0.2639
    MIXING:  cpu time    0.0065: real time    0.0065
    --------------------------------------------
      LOOP:  cpu time   12.4445: real time   12.4608

 eigenvalue-minimisations  :  3048
 total energy-change (2. order) : 0.7955420E-04  (-0.7966617E-03)
 number of electron     280.0000024 magnetization      -0.0119286
 augmentation part       18.3507111 magnetization      -0.0061613

 Broyden mixing:
  rms(total) = 0.49072E-01    rms(broyden)= 0.49015E-01
  rms(prec ) = 0.69520E-01
  weight for this iteration     100.00

 eigenvalues of (default mixing * dielectric matrix)
  average eigenvalue GAMMA=   1.1629
  3.7253  2.5563  1.8481  1.2889  1.2889  0.9038  0.9038  0.9861  0.6929  0.6929
  0.3310  0.4520  0.3057  0.3057

 Free energy of the ion-electron system (eV)
  ---------------------------------------------------
  alpha Z        PSCENC =       129.88610169
  Ewald energy   TEWEN  =     28800.74929431
  -Hartree energ DENC   =    -41396.36328460
  -exchange      EXHF   =         0.00000000
  -V(xc)+E(xc)   XCENC  =      1092.90162753
  PAW double counting   =     28866.49608447   -29365.96691463
  entropy T*S    EENTRO =         0.00000000
  eigenvalues    EBANDS =     -3789.24461053
  atomic energy  EATOM  =     15171.73615219
  Solvation  Ediel_sol  =         0.00000000
  ---------------------------------------------------
  free energy    TOTEN  =      -489.80554957 eV

  energy without entropy =     -489.80554957  energy(sigma->0) =     -489.80554957


--------------------------------------------------------------------------------------------------------




--------------------------------------- Iteration      1(  20)  ---------------------------------------


[...]
   -.204E+02 0.922E+02 0.861E+02   0.211E+02 -.945E+02 -.864E+02   -.607E+00 0.236E+01 0.391E+00   -.130E-01 -.799E-01 -.385E-01
   -.652E+02 -.217E+02 0.469E+02   0.675E+02 0.230E+02 -.468E+02   -.236E+01 -.134E+01 -.538E-01   -.477E-02 -.236E-01 -.132E-04
   0.385E+02 -.558E+02 0.323E+01   -.390E+02 0.535E+02 -.336E+01   0.516E+00 0.227E+01 0.117E+00   0.639E-02 -.567E-01 0.113E-02
   0.627E+02 -.700E+01 0.863E+01   -.600E+02 0.855E+01 -.868E+01   -.256E+01 -.158E+01 0.405E-01   0.484E-02 -.283E-01 -.112E-02
   -.331E+02 0.237E+02 -.156E+02   0.300E+02 -.221E+02 0.154E+02   0.297E+01 -.148E+01 0.227E+00   0.218E-01 -.311E-01 -.109E-02
   -.337E+02 0.136E+02 -.247E+02   0.329E+02 -.119E+02 0.243E+02   0.966E+00 -.188E+01 0.399E+00   -.122E+00 0.105E+00 0.274E-01
   -.342E+01 0.123E+02 0.762E+02   0.340E+01 -.149E+02 -.759E+02   0.740E-01 0.267E+01 -.320E+00   -.365E-01 0.743E-02 0.772E-02
   0.284E+02 0.104E+02 -.241E+02   -.273E+02 -.842E+01 0.237E+02   -.108E+01 -.193E+01 0.361E+00   -.529E-01 -.405E-01 -.122E-01
   0.196E-01 -.488E+02 -.136E+02   -.449E-01 0.458E+02 0.132E+02   -.435E-02 0.287E+01 0.406E+00   0.804E-01 -.372E-01 0.109E-02
   0.519E+02 0.345E+02 0.618E+02   -.494E+02 -.331E+02 -.611E+02   -.265E+01 -.140E+01 -.691E+00   0.149E+00 0.553E-02 0.448E-02
   -.533E+02 0.380E+02 0.450E+02   0.502E+02 -.365E+02 -.444E+02   0.286E+01 -.144E+01 -.636E+00   0.158E+00 -.632E-01 -.308E-02
   0.591E+02 -.237E+02 0.195E+02   -.613E+02 0.251E+02 -.193E+02   0.227E+01 -.136E+01 -.210E+00   -.153E-01 0.248E-01 -.273E-03
   0.150E+02 0.939E+02 0.863E+02   -.157E+02 -.961E+02 -.869E+02   0.532E+00 0.230E+01 0.584E+00   0.185E-02 0.339E-01 0.215E-01
   -.703E+02 -.484E+02 -.494E+02   0.725E+02 0.495E+02 0.498E+02   -.218E+01 -.126E+01 -.372E+00   -.107E-01 0.221E-01 -.479E-02
   -.400E+02 -.562E+02 -.873E+01   0.406E+02 0.538E+02 0.872E+01   -.559E+00 0.224E+01 -.499E-02   -.176E-01 0.916E-01 0.198E-02
   0.295E+02 0.220E+02 -.344E+02   -.265E+02 -.207E+02 0.339E+02   -.295E+01 -.128E+01 0.472E+00   0.142E-01 0.487E-01 0.650E-03
   -.699E+02 -.311E+01 -.251E+01   0.672E+02 0.476E+01 0.227E+01   0.270E+01 -.174E+01 0.211E+00   -.372E-01 0.487E-01 0.341E-02
   0.823E+02 -.371E+02 0.604E+02   -.845E+02 0.383E+02 -.608E+02   0.224E+01 -.123E+01 0.391E+00   0.609E-01 -.609E-01 0.132E-01
   -.482E+01 0.760E+02 -.799E+02   0.476E+01 -.788E+02 0.804E+02   0.326E-01 0.283E+01 -.503E+00   0.288E-01 0.273E-02 0.156E-03
   -.897E+02 -.329E+02 0.210E+02   0.920E+02 0.339E+02 -.212E+02   -.232E+01 -.110E+01 0.130E+00   0.648E-01 0.114E+00 -.545E-02
   0.650E+01 0.481E+02 0.694E+02   -.685E+01 -.485E+02 -.699E+02   0.614E+00 0.247E+00 0.482E+00   -.284E+00 -.210E-01 0.453E-02
   -.180E+03 -.489E+02 0.899E+02   0.211E+03 0.669E+02 -.958E+02   -.311E+02 -.179E+02 0.591E+01   -.617E-01 -.719E-01 0.836E-03
   0.166E+03 -.140E+03 -.140E+03   -.196E+03 0.157E+03 0.150E+03   0.300E+02 -.171E+02 -.969E+01   0.362E-01 -.593E-01 -.106E-01
   -.839E+00 0.197E+03 0.188E+03   0.188E+01 -.230E+03 -.198E+03   -.119E+01 0.335E+02 0.106E+02   0.770E-01 -.216E+00 -.668E-01
   -.455E+02 0.200E+03 0.214E+03   0.448E+02 -.232E+03 -.227E+03   0.822E+00 0.322E+02 0.136E+02   -.113E+00 -.171E+00 -.744E-01
   0.179E+03 -.954E+02 -.746E+02   -.209E+03 0.114E+03 0.762E+02   0.303E+02 -.187E+02 -.156E+01   0.891E-01 -.962E-01 0.620E-02
   -.148E+03 -.106E+03 0.139E+03   0.178E+03 0.122E+03 -.151E+03   -.302E+02 -.161E+02 0.112E+02   0.634E-02 -.526E-01 0.554E-02
   -.246E+01 0.119E+02 0.110E+02   0.255E+01 -.126E+02 -.117E+02   -.784E-01 0.571E+00 0.610E+00   0.645E-02 0.292E-02 0.177E-03
   0.390E+02 -.489E+02 -.905E+01   -.400E+02 0.514E+02 0.986E+01   0.998E+00 -.253E+01 -.829E+00   0.284E-01 -.663E-01 -.416E-02
   -.198E+02 -.105E+03 -.141E+03   0.449E+02 0.122E+03 0.154E+03   -.251E+02 -.173E+02 -.123E+02   -.324E-01 -.546E-01 -.204E-01
   0.160E+02 0.618E+02 -.219E+02   -.353E+02 -.530E+02 0.279E+02   0.195E+02 -.898E+01 -.605E+01   -.188E+00 0.117E+00 0.394E-01
   -.288E+02 0.877E+02 0.163E+03   0.300E+02 -.120E+03 -.173E+03   -.118E+01 0.322E+02 0.923E+01   -.712E-01 0.390E-01 0.111E-01
   0.241E+02 0.891E+02 0.180E+03   -.260E+02 -.121E+03 -.190E+03   0.188E+01 0.322E+02 0.101E+02   -.375E-01 -.175E-01 0.145E-01
   0.187E+02 -.106E+03 -.137E+03   -.441E+02 0.123E+03 0.147E+03   0.254E+02 -.171E+02 -.107E+02   -.104E+00 0.100E+00 0.275E-01
   -.118E+02 0.598E+02 -.266E+02   0.312E+02 -.510E+02 0.333E+02   -.193E+02 -.886E+01 -.670E+01   -.127E+00 -.389E-01 -.116E-01
   0.660E+02 0.375E+02 -.102E+02   -.701E+02 -.404E+02 0.135E+02   0.419E+01 0.295E+01 -.340E+01   -.179E-01 -.676E-01 -.500E-02
   0.108E+02 -.118E+02 0.502E+02   -.121E+02 0.136E+02 -.518E+02   0.989E+00 -.163E+01 0.156E+01   0.300E+00 -.782E-01 0.472E-02
   -.172E+03 -.918E+02 -.990E+02   0.202E+03 0.111E+03 0.103E+03   -.300E+02 -.186E+02 -.361E+01   0.163E-01 0.252E-01 -.185E-01
   0.151E+03 -.114E+03 0.921E+02   -.181E+03 0.131E+03 -.101E+03   0.307E+02 -.173E+02 0.878E+01   -.165E-02 0.473E-01 0.110E-02
   0.445E+02 0.207E+03 0.210E+03   -.442E+02 -.239E+03 -.223E+03   -.664E-01 0.325E+02 0.126E+02   -.841E-01 0.131E+00 0.612E-01
   0.188E+01 0.201E+03 0.173E+03   -.377E+01 -.235E+03 -.180E+03   0.190E+01 0.341E+02 0.752E+01   0.726E-01 0.137E+00 0.452E-01
   0.182E+03 -.567E+02 0.772E+01   -.213E+03 0.753E+02 -.715E+01   0.312E+02 -.186E+02 -.575E+00   -.449E-01 0.452E-01 -.251E-02
   -.163E+03 -.136E+03 -.147E+03   0.193E+03 0.153E+03 0.157E+03   -.298E+02 -.170E+02 -.100E+02   -.301E-01 0.473E-01 -.511E-02
   -.126E+01 -.406E+02 0.151E+02   0.128E+01 0.418E+02 -.163E+02   0.110E-02 -.107E+01 0.111E+01   -.132E-01 0.631E-02 0.257E-02
   -.216E+02 -.503E+02 -.245E+02   0.208E+02 0.529E+02 0.254E+02   0.698E+00 -.271E+01 -.931E+00   -.132E-01 0.937E-01 0.534E-02
   -.204E+03 -.790E+02 0.119E+03   0.233E+03 0.970E+02 -.128E+03   -.290E+02 -.181E+02 0.879E+01   0.662E-01 0.155E+00 -.136E-01
   0.174E+03 -.111E+03 0.110E+03   -.206E+03 0.128E+03 -.114E+03   0.310E+02 -.172E+02 0.327E+01   0.230E+00 -.592E-01 0.121E-01
   0.225E+02 0.173E+03 -.193E+03   -.213E+02 -.206E+03 0.205E+03   -.131E+01 0.330E+02 -.127E+02   0.516E-01 -.166E-01 -.872E-02
   -.276E+02 0.168E+03 -.208E+03   0.258E+02 -.201E+03 0.221E+03   0.179E+01 0.331E+02 -.132E+02   0.426E-01 0.436E-01 0.343E-02
   0.200E+03 -.899E+02 0.175E+03   -.228E+03 0.109E+03 -.187E+03   0.280E+02 -.186E+02 0.115E+02   0.822E-01 -.955E-01 0.269E-01
   -.175E+03 -.103E+03 0.694E+01   0.206E+03 0.119E+03 -.486E+01   -.312E+02 -.162E+02 -.212E+01   0.241E+00 0.735E-01 0.171E-01
   -.667E+02 0.439E+02 -.230E+02   0.707E+02 -.477E+02 0.264E+02   -.409E+01 0.358E+01 -.340E+01   -.479E-01 0.989E-01 0.141E-02
   0.611E+01 -.219E+03 -.461E+03   -.641E+01 0.238E+03 0.474E+03   0.822E+00 -.195E+02 -.124E+02   -.491E+00 0.814E-01 -.248E-02
   -.102E+03 -.176E+03 -.205E+03   0.114E+03 0.198E+03 0.194E+03   -.124E+02 -.219E+02 0.112E+02   -.336E-01 0.354E-02 -.106E-01
   0.100E+03 0.183E+03 -.464E+03   -.127E+03 -.230E+03 0.490E+03   0.263E+02 0.463E+02 -.253E+02   -.324E-01 0.167E-01 -.243E-01
 -----------------------------------------------------------------------------------------------
   -.207E+02 -.416E+01 0.750E+01   -.128E-12 -.227E-12 0.114E-12   0.213E+02 0.404E+01 -.753E+01   -.551E+00 0.116E+00 0.328E-01


 POSITION                                       TOTAL-FORCE (eV/Angst)
 -----------------------------------------------------------------------------------
      0.00923      2.62561      7.60485         0.029008      0.051825      0.003022
      1.32446      4.80600      7.58543         0.053014      0.124187      0.023323
     -1.33774      4.83475      7.58948        -0.113288      0.105336     -0.001193
      6.11333      0.62980      8.07593        -0.007168     -0.118238     -0.002975
      3.67129      4.70766      7.38426         0.159686     -0.023338     -0.001823
      1.21665      0.65203      7.64660        -0.053314      0.026904     -0.021063
     -3.69223      8.84742      7.85697        -0.032698     -0.006969     -0.010583
     -2.34547     11.02090      7.91205         0.070327     -0.084030     -0.012265
     -5.02097     11.04877      7.95969        -0.034828      0.045714      0.017044
      2.54860      6.77172      8.02985         0.085204     -0.068005      0.009402
     -0.00806     10.93691      7.71617         0.011266     -0.041196     -0.031172
     -2.54748      6.84471      7.98234        -0.090824     -0.036100     -0.014308
      7.33967      2.57361      7.89640         0.052066     -0.138951      0.040382
      8.66035      4.69544      7.38102        -0.033525     -0.025719      0.020681
      6.00324      4.75998      7.48247        -0.008828     -0.002675      0.019144
     13.46724      0.48599      7.78317         0.021517      0.022850     -0.031820
     10.99192      4.58187      7.35233        -0.159114      0.065609      0.015866
      8.55645      0.61301      8.11995         0.078526     -0.165568      0.006549
      3.70311      8.75580      7.99302         0.041242      0.062863     -0.005701
      5.00934     10.91374      8.09295        -0.032102     -0.019530      0.016116
      2.32377     10.97488      7.99833         0.014387     -0.066257     -0.022087
      9.76870      6.71547      7.48248         0.021017     -0.061940      0.015860
      7.33571     10.80554      8.25101         0.001843      0.068818      0.003901
      4.92895      6.80254      7.70187         0.032696      0.034009     -0.018760
      0.00170      4.10354      7.57794        -0.021527     -0.129917      0.010223
      1.19037      1.98028      7.51199         0.005255     -0.010642      0.010305
     -2.36543     12.31815      8.22047         0.042901      0.057848     -0.000350
      4.84707      4.08654      7.20694        -0.074964      0.070312      0.070478
      2.43372      4.17863      7.21057        -0.012079      0.041637      0.013710
      6.14537      1.96078      8.04634         0.021492      0.082344     -0.009562
     -4.98105     12.32260      7.56638         0.014825     -0.010695      0.009154
      7.34110     12.16420      7.87020         0.012876     -0.043973     -0.008974
     -3.66945     10.29908      7.92898         0.011586     -0.033701     -0.026172
     -2.55973      8.15556      8.22379        -0.007088     -0.002749      0.000564
      1.33398      6.12848      8.02015        -0.008058     -0.112580      0.013821
      1.19143     10.28976      7.64664        -0.003060      0.039466     -0.009204
     -1.21092     10.32198      7.57898        -0.027126      0.036659      0.041835
      2.54851      8.07870      8.27959        -0.067073      0.002708      0.045932
     -1.34364      6.16579      8.01615        -0.016814     -0.140645     -0.009619
     10.97277      5.97121      7.70747         0.076700     -0.014671     -0.053047
      7.34097      3.99633      7.55845         0.000075      0.109422     -0.026520
      8.52739      1.94658      8.10695        -0.075546      0.127942     -0.036263
      4.97463     12.19665      7.75531         0.010958      0.004137     -0.013621
     -2.45030      4.21730      7.21064         0.162814      0.009319      0.012657
      9.81085      3.97554      7.20180         0.076147      0.008448      0.016078
     -1.17902      2.01734      7.71680        -0.032694      0.014544     -0.007265
      9.68988     -0.11940      8.28981        -0.096705      0.071343      0.004153
      7.33465     -0.08154      7.93268         0.008009      0.088781     -0.002918
      3.66731     10.20688      8.05256        -0.040460     -0.044606     -0.050073
      4.84439      8.14960      7.65766         0.017205     -0.016378     -0.006465
      8.63886      6.04369      7.34673        -0.010945     -0.002630      0.018578
     -6.12860     10.39060      8.38844         0.005833      0.000460     -0.009709
      6.12638     10.22926      8.47008         0.024429      0.027599     -0.021941
     -4.80761      8.26253      7.42254         0.028185      0.084640      0.013930
      6.05310      6.10022      7.63973        -0.026452     -0.021943     -0.019881
      3.69907      6.08367      7.80246        -0.120357     -0.053050     -0.018361
      0.02373      7.66066      8.60807         0.008380      0.011056      0.079237
     -0.04233      7.37191     11.95503         0.035587      0.044731     -0.037793
     -0.55513      6.47030     12.44304        -0.028417     -0.044817     -0.010455
 -----------------------------------------------------------------------------------
    total drift:                               -0.015734     -0.001966      0.004352


--------------------------------------------------------------------------------------------------------



  FREE ENERGIE OF THE ION-ELECTRON SYSTEM (eV)
  ---------------------------------------------------
  free  energy   TOTEN  =      -493.78803850 eV

  energy  without entropy=     -493.78803850  energy(sigma->0) =     -493.78803850



--------------------------------------------------------------------------------------------------------


    POTLOK:  cpu time    0.1525: real time    0.1526


--------------------------------------------------------------------------------------------------------


     LOOP+:  cpu time  368.6377: real time  369.0215
    4ORBIT:  cpu time    0.0000: real time    0.0000



 total charge     

# of ion       s       p       d       tot
------------------------------------------
    1        0.836   1.683   0.000   2.519
    2        0.822   1.665   0.000   2.487
    3        0.818   1.642   0.000   2.460
    4        0.853   1.709   0.000   2.562
    5        0.840   1.701   0.000   2.541
    6        0.853   1.710   0.000   2.564
    7        0.836   1.678   0.000   2.514
    8        0.830   1.649   0.000   2.479
    9        0.831   1.641   0.000   2.472
   10        0.859   1.746   0.000   2.605
   11        0.847   1.694   0.000   2.541
   12        0.856   1.734   0.000   2.590
   13        0.835   1.672   0.000   2.507
   14        0.822   1.659   0.000   2.481
   15        0.817   1.652   0.000   2.469
   16        0.857   1.722   0.000   2.580
   17        0.840   1.697   0.000   2.538
   18        0.850   1.703   0.000   2.553
   19        0.836   1.685   0.000   2.521
   20        0.834   1.656   0.000   2.491
   21        0.825   1.634   0.000   2.460
   22        0.853   1.716   0.000   2.569
   23        0.845   1.680   0.000   2.525
   24        0.850   1.718   0.000   2.568
   25        1.190   2.585   0.000   3.775
   26        1.264   2.642   0.000   3.906
   27        1.264   2.634   0.000   3.899
   28        1.257   2.604   0.000   3.862
   29        1.255   2.639   0.000   3.894
   30        1.265   2.637   0.000   3.902
   31        1.265   2.632   0.000   3.897
   32        1.229   2.722   0.000   3.951
   33        1.195   2.583   0.000   3.778
   34        1.255   2.642   0.000   3.897
   35        1.239   2.645   0.000   3.883
   36        1.252   2.610   0.000   3.862
   37        1.253   2.613   0.000   3.865
   38        1.257   2.653   0.000   3.910
   39        1.236   2.634   0.000   3.870
   40        1.226   2.735   0.000   3.962
   41        1.193   2.572   0.000   3.765
   42        1.262   2.629   0.000   3.891
   43        1.270   2.644   0.000   3.914
   44        1.254   2.632   0.000   3.886
   45        1.258   2.609   0.000   3.867
   46        1.268   2.651   0.000   3.919
   47        1.261   2.626   0.000   3.887
   48        1.226   2.727   0.000   3.953
   49        1.195   2.577   0.000   3.772
   50        1.262   2.636   0.000   3.898
   51        1.265   2.645   0.000   3.910
   52        1.255   2.606   0.000   3.862
   53        1.256   2.610   0.000   3.866
   54        1.265   2.635   0.000   3.900
   55        1.262   2.640   0.000   3.901
   56        1.227   2.742   0.000   3.969
   57        1.356   0.686  10.044  12.086
   58        1.036   1.435   0.000   2.471
   59        1.639   3.539   0.000   5.178
--------------------------------------------------
tot         64.058 130.499  10.044 204.601



 magnetization (x)

# of ion       s       p       d       tot
------------------------------------------
    1        0.000   0.000   0.000   0.000
    2       -0.000  -0.000   0.000  -0.000
    3       -0.000  -0.001   0.000  -0.001
    4        0.000   0.000   0.000   0.000
    5       -0.000  -0.000   0.000  -0.000
    6       -0.000   0.000   0.000   0.000
    7       -0.000  -0.000   0.000  -0.000
    8        0.000   0.000   0.000   0.000
    9       -0.000   0.000   0.000   0.000
   10       -0.000   0.000   0.000   0.000
   11        0.000   0.000   0.000   0.000
   12       -0.000  -0.000   0.000  -0.000
   13        0.000   0.000   0.000   0.000
   14       -0.000  -0.001   0.000  -0.001
   15       -0.000  -0.001   0.000  -0.001
   16        0.000   0.000   0.000   0.000
   17       -0.000  -0.001   0.000  -0.001
   18        0.000   0.000   0.000   0.000
   19        0.000  -0.000   0.000  -0.000
   20        0.000   0.000   0.000   0.000
   21        0.000   0.000   0.000   0.000
   22       -0.000  -0.000   0.000  -0.000
   23        0.000   0.000   0.000   0.000
   24       -0.000  -0.000   0.000  -0.000
   25        0.000   0.000   0.000   0.000
   26       -0.000   0.000   0.000   0.000
   27       -0.000   0.000   0.000   0.000
   28       -0.000   0.000   0.000   0.000
   29        0.000   0.000   0.000   0.000
   30       -0.000   0.000   0.000  -0.000
   31       -0.000  -0.000   0.000  -0.000
   32       -0.000   0.000   0.000   0.000
   33       -0.000  -0.000   0.000  -0.000
   34       -0.000   0.000   0.000   0.000
   35       -0.000  -0.000   0.000  -0.000
   36        0.000   0.000   0.000   0.000
   37        0.000   0.000   0.000   0.000
   38       -0.000   0.000   0.000   0.000
   39       -0.000  -0.000   0.000  -0.000
   40       -0.000  -0.001   0.000  -0.001
   41        0.000   0.000   0.000   0.000
   42       -0.000   0.000   0.000   0.000
   43       -0.000   0.000   0.000   0.000
   44       -0.000  -0.000   0.000  -0.000
   45       -0.000  -0.000   0.000  -0.000
   46       -0.000   0.000   0.000   0.000
   47       -0.000   0.000   0.000   0.000
   48        0.000   0.000   0.000   0.000
   49       -0.000  -0.000   0.000  -0.000
   50       -0.000   0.000   0.000   0.000
   51       -0.000  -0.000   0.000  -0.000
   52       -0.000   0.000   0.000   0.000
   53       -0.000   0.000   0.000   0.000
   54       -0.000   0.000   0.000   0.000
   55       -0.000  -0.000   0.000  -0.000
   56       -0.000  -0.001   0.000  -0.001
   57        0.000   0.002  -0.000   0.002
   58        0.000   0.000   0.000   0.000
   59       -0.000   0.000   0.000   0.000
--------------------------------------------------
tot         -0.000  -0.003  -0.000  -0.003

 BZINTS: Fermi energy: -2.365869;280.000000 electrons
         Band energy:***********;  BLOECHL correction: -0.007165

 total amount of memory used by VASP MPI-rank0   107964. kBytes
=======================================================================

   base      :      30000. kBytes
   nonl-proj :      22847. kBytes
   fftplans  :       4937. kBytes
   grid      :      15075. kBytes
   one-center:        155. kBytes
   wavefun   :      34950. kBytes

  
  
 General timing and accounting informations for this job:
 ========================================================
  
                  Total CPU time used (sec):      381.850
                            User time (sec):      380.823
                          System time (sec):        1.027
                         Elapsed time (sec):      382.583
  
                   Maximum memory used (kb):      186280.
                   Average memory used (kb):           0.
  
                          Minor page faults:        91837
                          Major page faults:            0
                 Voluntary context switches:         1106
