       N       E                     dE             d eps       ncg     rms          ort
DAV:   1     0.251625149694E+04    0.25163E+04   -0.11653E+05   768   0.110E+03
DAV:   2    -0.244596301081E+03   -0.27608E+04   -0.26365E+04   768   0.280E+02
DAV:   3    -0.702728524922E+03   -0.45813E+03   -0.45477E+03   768   0.120E+02
DAV:   4    -0.719306312146E+03   -0.16578E+02   -0.16444E+02   768   0.281E+01
DAV:   5    -0.719850670751E+03   -0.54436E+00   -0.54271E+00   768   0.424E+00
SDA:   6    -0.552561347079E+03    0.16729E+03   -0.54271E+00   768   0.506E+03 0.000E+00
CGA:   7    -0.604100643788E+03   -0.51539E+02   -0.25162E+02   768   0.335E+03 0.467E+03
CGA:   8    -0.640309021141E+03   -0.36208E+02   -0.15025E+02   768   0.224E+03 0.435E+03
CGA:   9    -0.653747146264E+03   -0.13438E+02   -0.14858E+02   768   0.308E+02 0.219E+02
CGA:  10    -0.660907022525E+03   -0.71599E+01   -0.71873E+01   768   0.632E+01-0.500E+00
CGA:  11    -0.662037655581E+03   -0.11306E+01   -0.11306E+01   768   0.484E+01 0.169E-01
CGA:  12    -0.662592032996E+03   -0.55438E+00   -0.42388E+00   768   0.104E+01 0.138E+01
CGA:  13    -0.662777471708E+03   -0.18544E+00   -0.18269E+00   768   0.149E+01-0.144E-01
CGA:  14    -0.662908610672E+03   -0.13114E+00   -0.11516E+00   768   0.898E+00 0.189E+00
CGA:  15    -0.662974613251E+03   -0.66003E-01   -0.70819E-01   768   0.410E+00-0.270E-01
CGA:  16    -0.663030454902E+03   -0.55842E-01   -0.55058E-01   768   0.479E+00-0.843E-02
CGA:  17    -0.663058306258E+03   -0.27851E-01   -0.18075E-01   768   0.325E+00 0.244E+00
CGA:  18    -0.663100933296E+03   -0.42627E-01   -0.42587E-01   768   0.182E+00-0.298E-03
CGA:  19    -0.663133453271E+03   -0.32520E-01   -0.31680E-01   768   0.410E-01 0.267E-01
CGA:  20    -0.663151214306E+03   -0.17761E-01   -0.17483E-01   768   0.346E-01 0.103E-02
CGA:  21    -0.663161901243E+03   -0.10687E-01   -0.10796E-01   768   0.605E-01-0.534E-03
CGA:  22    -0.663169565426E+03   -0.76642E-02   -0.77175E-02   768   0.117E-01 0.277E-03
CGA:  23    -0.663173924150E+03   -0.43587E-02   -0.43919E-02   768   0.168E-01-0.221E-03
CGA:  24    -0.663175726837E+03   -0.18027E-02   -0.17990E-02   768   0.627E-02-0.191E-04
CGA:  25    -0.663177861791E+03   -0.21350E-02   -0.21456E-02   768   0.448E-02-0.592E-04
CGA:  26    -0.663178537344E+03   -0.67555E-03   -0.67590E-03   768   0.475E-02-0.111E-04
CGA:  27    -0.663179794572E+03   -0.12572E-02   -0.12608E-02   768   0.184E-02-0.367E-04
CGA:  28    -0.663180178932E+03   -0.38436E-03   -0.38413E-03   768   0.196E-02 0.144E-04
CGA:  29    -0.663180429137E+03   -0.25021E-03   -0.25183E-03   768   0.501E-03 0.983E-05
CGA:  30    -0.663180618466E+03   -0.18933E-03   -0.18386E-03   768   0.473E-03 0.266E-04
CGA:  31    -0.663180681872E+03   -0.63406E-04   -0.62639E-04   768   0.292E-03 0.926E-05
   1 F= -.66971833E+03 E0= -.66970501E+03  d E =-.669718E+03  mag=     1.3795
       N       E                     dE             d eps       ncg     rms          ort
SDA:   1    -0.662158440653E+03    0.10222E+01    0.00000E+00   768   0.337E+01 0.000E+00
CGA:   2    -0.662639956072E+03   -0.48152E+00   -0.48335E+00   768   0.155E+01 0.525E-02
CGA:   3    -0.662926505161E+03   -0.28655E+00   -0.28632E+00   768   0.100E+01-0.171E-01
CGA:   4    -0.663098668241E+03   -0.17216E+00   -0.17244E+00   768   0.355E+00 0.677E-02
CGA:   5    -0.663159584969E+03   -0.60917E-01   -0.60855E-01   768   0.127E+00-0.101E-02
CGA:   6    -0.663181414862E+03   -0.21830E-01   -0.21851E-01   768   0.593E-01 0.596E-03
CGA:   7    -0.663191610010E+03   -0.10195E-01   -0.10188E-01   768   0.301E-01-0.162E-03
CGA:   8    -0.663196916114E+03   -0.53061E-02   -0.53081E-02   768   0.113E-01 0.988E-04
CGA:   9    -0.663199096351E+03   -0.21802E-02   -0.21804E-02   768   0.435E-02-0.132E-04
CGA:  10    -0.663199782245E+03   -0.68589E-03   -0.68633E-03   768   0.169E-02 0.114E-04
CGA:  11    -0.663200065642E+03   -0.28340E-03   -0.28339E-03   768   0.574E-03 0.982E-06
CGA:  12    -0.663200178209E+03   -0.11257E-03   -0.11255E-03   768   0.248E-03 0.154E-05
CGA:  13    -0.663200218464E+03   -0.40254E-04   -0.40228E-04   768   0.121E-03-0.116E-05
   2 F= -.66973735E+03 E0= -.66972456E+03  d E =-.190155E-01  mag=     1.3678
       N       E                     dE             d eps       ncg     rms          ort
SDA:   1    -0.663139140054E+03    0.61038E-01    0.00000E+00   768   0.201E+00 0.000E+00
CGA:   2    -0.663168748221E+03   -0.29608E-01   -0.29593E-01   768   0.929E-01-0.123E-03
CGA:   3    -0.663185978615E+03   -0.17230E-01   -0.17230E-01   768   0.582E-01 0.195E-03
CGA:   4    -0.663196122677E+03   -0.10144E-01   -0.10142E-01   768   0.228E-01-0.127E-03
CGA:   5    -0.663199779933E+03   -0.36573E-02   -0.36581E-02   768   0.811E-02 0.594E-05
CGA:   6    -0.663201146874E+03   -0.13669E-02   -0.13667E-02   768   0.381E-02-0.754E-05
CGA:   7    -0.663201806953E+03   -0.66008E-03   -0.66012E-03   768   0.176E-02 0.305E-05
CGA:   8    -0.663202131670E+03   -0.32472E-03   -0.32474E-03   768   0.734E-03-0.592E-05
CGA:   9    -0.663202261316E+03   -0.12965E-03   -0.12964E-03   768   0.294E-03-0.301E-05
CGA:  10    -0.663202308260E+03   -0.46944E-04   -0.46887E-04   768   0.103E-03-0.273E-05
   3 F= -.66973957E+03 E0= -.66972670E+03  d E =-.212362E-01  mag=     1.3699
       N       E                     dE             d eps       ncg     rms          ort
SDA:   1    -0.663005651079E+03    0.19661E+00    0.00000E+00   768   0.741E+00 0.000E+00
CGA:   2    -0.663103224964E+03   -0.97574E-01   -0.97759E-01   768   0.298E+00 0.634E-03
CGA:   3    -0.663158850344E+03   -0.55625E-01   -0.55657E-01   768   0.207E+00-0.205E-02
CGA:   4    -0.663197063293E+03   -0.38213E-01   -0.38197E-01   768   0.892E-01 0.121E-02
CGA:   5    -0.663212711492E+03   -0.15648E-01   -0.15647E-01   768   0.330E-01-0.209E-03
CGA:   6    -0.663218013603E+03   -0.53021E-02   -0.53048E-02   768   0.133E-01 0.789E-04
CGA:   7    -0.663220214775E+03   -0.22012E-02   -0.22008E-02   768   0.615E-02-0.928E-05
CGA:   8    -0.663221314334E+03   -0.10996E-02   -0.10995E-02   768   0.242E-02 0.194E-04
CGA:   9    -0.663221756735E+03   -0.44240E-03   -0.44239E-03   768   0.909E-03 0.374E-05
CGA:  10    -0.663221897673E+03   -0.14094E-03   -0.14102E-03   768   0.328E-03 0.354E-05
CGA:  11    -0.663221953425E+03   -0.55752E-04   -0.55750E-04   768   0.112E-03-0.161E-06
   4 F= -.66975876E+03 E0= -.66974571E+03  d E =-.191896E-01  mag=     1.3774
       N       E                     dE             d eps       ncg     rms          ort
SDA:   1    -0.661316916526E+03    0.19050E+01    0.00000E+00   768   0.686E+01 0.000E+00
CGA:   2    -0.662186957739E+03   -0.87004E+00   -0.87646E+00   768   0.274E+01 0.787E-02
CGA:   3    -0.662686356545E+03   -0.49940E+00   -0.50031E+00   768   0.195E+01-0.660E-01
CGA:   4    -0.663041528769E+03   -0.35517E+00   -0.35446E+00   768   0.763E+00 0.346E-01
CGA:   5    -0.663185285250E+03   -0.14376E+00   -0.14387E+00   768   0.280E+00-0.556E-02
CGA:   6    -0.663232425974E+03   -0.47141E-01   -0.47164E-01   768   0.113E+00 0.230E-02
CGA:   7    -0.663251182302E+03   -0.18756E-01   -0.18748E-01   768   0.580E-01-0.360E-03
CGA:   8    -0.663260935074E+03   -0.97528E-02   -0.97554E-02   768   0.210E-01 0.266E-03
CGA:   9    -0.663265082820E+03   -0.41477E-02   -0.41498E-02   768   0.725E-02-0.540E-04
CGA:  10    -0.663266274294E+03   -0.11915E-02   -0.11917E-02   768   0.306E-02 0.153E-04
CGA:  11    -0.663266752379E+03   -0.47808E-03   -0.47797E-03   768   0.105E-02-0.350E-05
CGA:  12    -0.663266968503E+03   -0.21612E-03   -0.21614E-03   768   0.439E-03-0.528E-06
CGA:  13    -0.663267049150E+03   -0.80647E-04   -0.80669E-04   768   0.296E-03-0.280E-05
   5 F= -.66980288E+03 E0= -.66978943E+03  d E =-.633159E-01  mag=     1.4045
       N       E                     dE             d eps       ncg     rms          ort
SDA:   1    -0.655437964432E+03    0.78290E+01    0.00000E+00   768   0.291E+02 0.000E+00
CGA:   2    -0.658895022467E+03   -0.34571E+01   -0.35247E+01   768   0.114E+02-0.946E-01
CGA:   3    -0.660901628684E+03   -0.20066E+01   -0.20095E+01   768   0.812E+01-0.579E+00
CGA:   4    -0.662376178554E+03   -0.14745E+01   -0.14674E+01   768   0.283E+01 0.277E+00
CGA:   5    -0.662962703946E+03   -0.58653E+00   -0.58710E+00   768   0.102E+01-0.124E-01
CGA:   6    -0.663154280679E+03   -0.19158E+00   -0.19135E+00   768   0.366E+00 0.119E-01
CGA:   7    -0.663232664930E+03   -0.78384E-01   -0.78588E-01   768   0.193E+00-0.388E-02
CGA:   8    -0.663263180033E+03   -0.30515E-01   -0.30587E-01   768   0.913E-01 0.179E-02
CGA:   9    -0.663277831466E+03   -0.14651E-01   -0.14636E-01   768   0.287E-01-0.335E-03
CGA:  10    -0.663283363813E+03   -0.55323E-02   -0.55293E-02   768   0.905E-02 0.117E-03
CGA:  11    -0.663285194541E+03   -0.18307E-02   -0.18317E-02   768   0.501E-02-0.317E-04
CGA:  12    -0.663285959768E+03   -0.76523E-03   -0.76524E-03   768   0.218E-02-0.832E-06
CGA:  13    -0.663286474697E+03   -0.51493E-03   -0.51540E-03   768   0.116E-02-0.898E-05
CGA:  14    -0.663286744599E+03   -0.26990E-03   -0.27016E-03   768   0.105E-02-0.391E-05
CGA:  15    -0.663286932171E+03   -0.18757E-03   -0.18757E-03   768   0.555E-03-0.304E-05
CGA:  16    -0.663287087955E+03   -0.15578E-03   -0.15580E-03   768   0.356E-03-0.175E-06
CGA:  17    -0.663287154477E+03   -0.66522E-04   -0.66521E-04   768   0.243E-03-0.929E-06
   6 F= -.66982401E+03 E0= -.66981023E+03  d E =-.844382E-01  mag=     1.4751
       N       E                     dE             d eps       ncg     rms          ort
SDA:   1    -0.662484973073E+03    0.80211E+00    0.00000E+00   768   0.268E+01 0.000E+00
CGA:   2    -0.662859004893E+03   -0.37403E+00   -0.37309E+00   768   0.108E+01-0.510E-02
CGA:   3    -0.663065669319E+03   -0.20666E+00   -0.20656E+00   768   0.738E+00 0.981E-02
CGA:   4    -0.663202168758E+03   -0.13650E+00   -0.13645E+00   768   0.341E+00-0.780E-02
CGA:   5    -0.663257469089E+03   -0.55300E-01   -0.55390E-01   768   0.122E+00 0.137E-02
CGA:   6    -0.663277242579E+03   -0.19773E-01   -0.19748E-01   768   0.508E-01-0.448E-03
CGA:   7    -0.663285608736E+03   -0.83662E-02   -0.83712E-02   768   0.215E-01 0.966E-04
CGA:   8    -0.663289654789E+03   -0.40461E-02   -0.40467E-02   768   0.925E-02-0.836E-04
CGA:   9    -0.663291243826E+03   -0.15890E-02   -0.15893E-02   768   0.351E-02 0.655E-05
CGA:  10    -0.663291791321E+03   -0.54749E-03   -0.54717E-03   768   0.117E-02-0.825E-05
CGA:  11    -0.663291995235E+03   -0.20391E-03   -0.20392E-03   768   0.422E-03 0.605E-07
CGA:  12    -0.663292070461E+03   -0.75226E-04   -0.75224E-04   768   0.191E-03-0.572E-06
   7 F= -.66982823E+03 E0= -.66981454E+03  d E =-.886574E-01  mag=     1.4502
       N       E                     dE             d eps       ncg     rms          ort
SDA:   1    -0.662979344883E+03    0.31265E+00    0.00000E+00   768   0.110E+01 0.000E+00
CGA:   2    -0.663131696059E+03   -0.15235E+00   -0.15274E+00   768   0.505E+00 0.151E-02
CGA:   3    -0.663222490577E+03   -0.90795E-01   -0.90802E-01   768   0.325E+00-0.381E-02
CGA:   4    -0.663280212270E+03   -0.57722E-01   -0.57721E-01   768   0.117E+00 0.158E-02
CGA:   5    -0.663300678222E+03   -0.20466E-01   -0.20463E-01   768   0.415E-01-0.268E-03
CGA:   6    -0.663307883549E+03   -0.72053E-02   -0.72064E-02   768   0.189E-01 0.145E-03
CGA:   7    -0.663311059243E+03   -0.31757E-02   -0.31752E-02   768   0.949E-02-0.133E-04
CGA:   8    -0.663312758707E+03   -0.16995E-02   -0.16994E-02   768   0.375E-02 0.324E-04
CGA:   9    -0.663313474685E+03   -0.71598E-03   -0.71604E-03   768   0.134E-02-0.166E-05
CGA:  10    -0.663313684040E+03   -0.20936E-03   -0.20946E-03   768   0.521E-03 0.396E-05
CGA:  11    -0.663313769764E+03   -0.85724E-04   -0.85729E-04   768   0.167E-03 0.527E-06
   8 F= -.66985058E+03 E0= -.66983679E+03  d E =-.223513E-01  mag=     1.4615
       N       E                     dE             d eps       ncg     rms          ort
SDA:   1    -0.660352943053E+03    0.29607E+01    0.00000E+00   768   0.102E+02 0.000E+00
CGA:   2    -0.661699299360E+03   -0.13464E+01   -0.13584E+01   768   0.465E+01 0.207E-01
CGA:   3    -0.662525269822E+03   -0.82597E+00   -0.82637E+00   768   0.302E+01-0.114E+00
CGA:   4    -0.663060650159E+03   -0.53538E+00   -0.53491E+00   768   0.991E+00 0.471E-01
CGA:   5    -0.663246278646E+03   -0.18563E+00   -0.18574E+00   768   0.352E+00-0.598E-02
CGA:   6    -0.663310079972E+03   -0.63801E-01   -0.63764E-01   768   0.161E+00 0.372E-02
CGA:   7    -0.663337719214E+03   -0.27639E-01   -0.27630E-01   768   0.902E-01-0.630E-03
CGA:   8    -0.663352812437E+03   -0.15093E-01   -0.15102E-01   768   0.335E-01 0.594E-03
CGA:   9    -0.663359548807E+03   -0.67364E-02   -0.67412E-02   768   0.108E-01-0.132E-03
CGA:  10    -0.663361409668E+03   -0.18609E-02   -0.18610E-02   768   0.475E-02 0.283E-04
CGA:  11    -0.663362125094E+03   -0.71543E-03   -0.71521E-03   768   0.169E-02-0.377E-05
CGA:  12    -0.663362467413E+03   -0.34232E-03   -0.34227E-03   768   0.640E-03 0.193E-05
CGA:  13    -0.663362595669E+03   -0.12826E-03   -0.12832E-03   768   0.454E-03-0.277E-05
CGA:  14    -0.663362670855E+03   -0.75186E-04   -0.75173E-04   768   0.208E-03-0.705E-06
   9 F= -.66990198E+03 E0= -.66988768E+03  d E =-.737563E-01  mag=     1.4999
       N       E                     dE             d eps       ncg     rms          ort
SDA:   1    -0.651278003460E+03    0.12085E+02    0.00000E+00   768   0.439E+02 0.000E+00
CGA:   2    -0.656557315034E+03   -0.52793E+01   -0.54079E+01   768   0.197E+02-0.336E+00
CGA:   3    -0.659879498509E+03   -0.33222E+01   -0.33025E+01   768   0.127E+02-0.996E+00
CGA:   4    -0.662117307779E+03   -0.22378E+01   -0.22337E+01   768   0.379E+01 0.402E+00
CGA:   5    -0.662876177479E+03   -0.75887E+00   -0.75902E+00   768   0.136E+01 0.342E-03
CGA:   6    -0.663150748482E+03   -0.27457E+00   -0.27411E+00   768   0.560E+00 0.151E-01
CGA:   7    -0.663279548109E+03   -0.12880E+00   -0.12910E+00   768   0.269E+00-0.446E-02
CGA:   8    -0.663332309216E+03   -0.52761E-01   -0.52672E-01   768   0.136E+00 0.389E-02
CGA:   9    -0.663351424931E+03   -0.19116E-01   -0.19059E-01   768   0.518E-01-0.223E-03
CGA:  10    -0.663360379819E+03   -0.89549E-02   -0.89583E-02   768   0.145E-01 0.178E-03
CGA:  11    -0.663363879175E+03   -0.34994E-02   -0.35024E-02   768   0.614E-02-0.458E-04
CGA:  12    -0.663365034275E+03   -0.11551E-02   -0.11551E-02   768   0.449E-02-0.452E-05
CGA:  13    -0.663365777248E+03   -0.74297E-03   -0.74290E-03   768   0.195E-02-0.764E-05
CGA:  14    -0.663366340373E+03   -0.56313E-03   -0.56401E-03   768   0.123E-02-0.724E-05
CGA:  15    -0.663366603849E+03   -0.26348E-03   -0.26349E-03   768   0.118E-02-0.189E-05
CGA:  16    -0.663366816173E+03   -0.21232E-03   -0.21231E-03   768   0.436E-03 0.771E-06
CGA:  17    -0.663366942450E+03   -0.12628E-03   -0.12642E-03   768   0.298E-03-0.156E-05
CGA:  18    -0.663366990948E+03   -0.48498E-04   -0.48508E-04   768   0.185E-03 0.535E-06
  10 F= -.66991227E+03 E0= -.66989516E+03  d E =-.840421E-01  mag=     1.6246
       N       E                     dE             d eps       ncg     rms          ort
SDA:   1    -0.660329532822E+03    0.30374E+01    0.00000E+00   768   0.986E+01 0.000E+00
CGA:   2    -0.661788415237E+03   -0.14589E+01   -0.14530E+01   768   0.432E+01-0.288E-01
CGA:   3    -0.662566098777E+03   -0.77768E+00   -0.77953E+00   768   0.287E+01 0.657E-01
CGA:   4    -0.663074752439E+03   -0.50865E+00   -0.50696E+00   768   0.121E+01-0.440E-01
CGA:   5    -0.663255833229E+03   -0.18108E+00   -0.18205E+00   768   0.414E+00 0.460E-02
CGA:   6    -0.663325608932E+03   -0.69776E-01   -0.69638E-01   768   0.182E+00-0.291E-02
CGA:   7    -0.663357509802E+03   -0.31901E-01   -0.31925E-01   768   0.800E-01 0.780E-03
CGA:   8    -0.663372658539E+03   -0.15149E-01   -0.15149E-01   768   0.407E-01-0.497E-03
CGA:   9    -0.663379354395E+03   -0.66959E-02   -0.67014E-02   768   0.147E-01 0.934E-04
CGA:  10    -0.663381845900E+03   -0.24915E-02   -0.24904E-02   768   0.493E-02-0.325E-04
CGA:  11    -0.663382682164E+03   -0.83626E-03   -0.83638E-03   768   0.198E-02 0.224E-05
CGA:  12    -0.663383015396E+03   -0.33323E-03   -0.33317E-03   768   0.803E-03-0.341E-05
CGA:  13    -0.663383166932E+03   -0.15154E-03   -0.15153E-03   768   0.392E-03 0.226E-05
CGA:  14    -0.663383241234E+03   -0.74303E-04   -0.74298E-04   768   0.234E-03 0.703E-06
  11 F= -.66992545E+03 E0= -.66990995E+03  d E =-.972251E-01  mag=     1.5508
       N       E                     dE             d eps       ncg     rms          ort
SDA:   1    -0.663046800855E+03    0.33637E+00    0.00000E+00   768   0.963E+00 0.000E+00
CGA:   2    -0.663264692135E+03   -0.21789E+00   -0.21780E+00   768   0.898E+00 0.148E-02
CGA:   3    -0.663376110027E+03   -0.11142E+00   -0.11165E+00   768   0.265E+00 0.258E-03
CGA:   4    -0.663423509127E+03   -0.47399E-01   -0.47404E-01   768   0.396E-01 0.334E-03
CGA:   5    -0.663431233925E+03   -0.77248E-02   -0.77244E-02   768   0.154E-01 0.390E-04
CGA:   6    -0.663433777095E+03   -0.25432E-02   -0.25435E-02   768   0.535E-02 0.146E-04
CGA:   7    -0.663434750930E+03   -0.97384E-03   -0.97382E-03   768   0.282E-02-0.596E-05
CGA:   8    -0.663435197577E+03   -0.44665E-03   -0.44655E-03   768   0.137E-02-0.401E-05
CGA:   9    -0.663435472924E+03   -0.27535E-03   -0.27541E-03   768   0.563E-03-0.357E-05
CGA:  10    -0.663435602081E+03   -0.12916E-03   -0.12903E-03   768   0.307E-03 0.272E-05
CGA:  11    -0.663435651178E+03   -0.49097E-04   -0.49127E-04   768   0.154E-03 0.108E-05
  12 F= -.66997933E+03 E0= -.66996369E+03  d E =-.538807E-01  mag=     1.5522
       N       E                     dE             d eps       ncg     rms          ort
SDA:   1    -0.660088663057E+03    0.33469E+01    0.00000E+00   768   0.843E+01 0.000E+00
CGA:   2    -0.662025000219E+03   -0.19363E+01   -0.19318E+01   768   0.802E+01 0.740E-01
CGA:   3    -0.663017852772E+03   -0.99285E+00   -0.99306E+00   768   0.221E+01 0.540E-02
CGA:   4    -0.663420113563E+03   -0.40226E+00   -0.40228E+00   768   0.355E+00 0.788E-02
CGA:   5    -0.663488953159E+03   -0.68840E-01   -0.68844E-01   768   0.141E+00-0.139E-03
CGA:   6    -0.663512973538E+03   -0.24020E-01   -0.24024E-01   768   0.523E-01 0.237E-03
CGA:   7    -0.663522554831E+03   -0.95813E-02   -0.95813E-02   768   0.280E-01 0.233E-04
CGA:   8    -0.663527061882E+03   -0.45071E-02   -0.45078E-02   768   0.138E-01 0.165E-04
CGA:   9    -0.663529766072E+03   -0.27042E-02   -0.27043E-02   768   0.536E-02-0.754E-05
CGA:  10    -0.663530994367E+03   -0.12283E-02   -0.12277E-02   768   0.278E-02 0.118E-04
CGA:  11    -0.663531434889E+03   -0.44052E-03   -0.44064E-03   768   0.136E-02 0.307E-05
CGA:  12    -0.663531671374E+03   -0.23648E-03   -0.23653E-03   768   0.414E-03 0.417E-05
CGA:  13    -0.663531762485E+03   -0.91111E-04   -0.91128E-04   768   0.204E-03-0.527E-06
  13 F= -.67007981E+03 E0= -.67006398E+03  d E =-.154363E+00  mag=     1.5481
       N       E                     dE             d eps       ncg     rms          ort
SDA:   1    -0.650271006426E+03    0.13261E+02    0.00000E+00   768   0.325E+02 0.000E+00
CGA:   2    -0.657869712521E+03   -0.75987E+01   -0.75557E+01   768   0.293E+02 0.623E+00
CGA:   3    -0.661613085513E+03   -0.37434E+01   -0.36929E+01   768   0.793E+01 0.264E+00
CGA:   4    -0.663069731528E+03   -0.14566E+01   -0.14567E+01   768   0.144E+01 0.533E-01
CGA:   5    -0.663358793704E+03   -0.28906E+00   -0.28913E+00   768   0.585E+00-0.219E-02
CGA:   6    -0.663466357469E+03   -0.10756E+00   -0.10756E+00   768   0.230E+00 0.109E-02
CGA:   7    -0.663515219771E+03   -0.48862E-01   -0.48885E-01   768   0.105E+00-0.468E-03
CGA:   8    -0.663536312666E+03   -0.21093E-01   -0.21084E-01   768   0.657E-01 0.347E-03
CGA:   9    -0.663546134492E+03   -0.98218E-02   -0.98262E-02   768   0.262E-01 0.162E-04
CGA:  10    -0.663551822999E+03   -0.56885E-02   -0.56861E-02   768   0.979E-02 0.563E-04
CGA:  11    -0.663554020000E+03   -0.21970E-02   -0.21963E-02   768   0.410E-02 0.119E-04
CGA:  12    -0.663554723313E+03   -0.70331E-03   -0.70338E-03   768   0.232E-02 0.476E-05
CGA:  13    -0.663555106854E+03   -0.38354E-03   -0.38348E-03   768   0.719E-03-0.217E-05
CGA:  14    -0.663555308298E+03   -0.20144E-03   -0.20137E-03   768   0.434E-03 0.882E-06
CGA:  15    -0.663555391640E+03   -0.83342E-04   -0.83343E-04   768   0.350E-03-0.787E-06
  14 F= -.67011187E+03 E0= -.67009671E+03  d E =-.186416E+00  mag=     1.4919
       N       E                     dE             d eps       ncg     rms          ort
SDA:   1    -0.663496474177E+03    0.58834E-01    0.00000E+00   768   0.185E+00 0.000E+00
CGA:   2    -0.663538926598E+03   -0.42452E-01   -0.42421E-01   768   0.176E+00 0.539E-03
CGA:   3    -0.663562318028E+03   -0.23391E-01   -0.23385E-01   768   0.527E-01 0.183E-04
CGA:   4    -0.663571634908E+03   -0.93169E-02   -0.93166E-02   768   0.801E-02-0.433E-04
CGA:   5    -0.663573156408E+03   -0.15215E-02   -0.15215E-02   768   0.308E-02 0.170E-04
CGA:   6    -0.663573699364E+03   -0.54296E-03   -0.54308E-03   768   0.118E-02 0.891E-05
CGA:   7    -0.663573923229E+03   -0.22386E-03   -0.22386E-03   768   0.646E-03 0.835E-06
CGA:   8    -0.663574041723E+03   -0.11849E-03   -0.11848E-03   768   0.384E-03-0.183E-05
CGA:   9    -0.663574116203E+03   -0.74480E-04   -0.74494E-04   768   0.155E-03-0.237E-05
  15 F= -.67013129E+03 E0= -.67011621E+03  d E =-.194247E-01  mag=     1.4864
       N       E                     dE             d eps       ncg     rms          ort
SDA:   1    -0.662913873503E+03    0.66017E+00    0.00000E+00   768   0.166E+01 0.000E+00
CGA:   2    -0.663295671937E+03   -0.38180E+00   -0.38110E+00   768   0.155E+01 0.118E-01
CGA:   3    -0.663505403675E+03   -0.20973E+00   -0.20954E+00   768   0.461E+00 0.119E-02
CGA:   4    -0.663586802371E+03   -0.81399E-01   -0.81413E-01   768   0.730E-01 0.407E-03
CGA:   5    -0.663600571362E+03   -0.13769E-01   -0.13769E-01   768   0.291E-01-0.881E-05
CGA:   6    -0.663605641016E+03   -0.50697E-02   -0.50703E-02   768   0.108E-01 0.350E-04
CGA:   7    -0.663607857834E+03   -0.22168E-02   -0.22169E-02   768   0.555E-02-0.863E-06
CGA:   8    -0.663608905310E+03   -0.10475E-02   -0.10475E-02   768   0.346E-02-0.255E-05
CGA:   9    -0.663609501314E+03   -0.59600E-03   -0.59582E-03   768   0.128E-02-0.719E-05
CGA:  10    -0.663609800399E+03   -0.29909E-03   -0.29907E-03   768   0.580E-03 0.383E-06
CGA:  11    -0.663609915163E+03   -0.11476E-03   -0.11476E-03   768   0.294E-03 0.624E-06
CGA:  12    -0.663609962661E+03   -0.47499E-04   -0.47529E-04   768   0.132E-03 0.112E-05
  16 F= -.67016923E+03 E0= -.67015433E+03  d E =-.573686E-01  mag=     1.4691
       N       E                     dE             d eps       ncg     rms          ort
SDA:   1    -0.660766406699E+03    0.28435E+01    0.00000E+00   768   0.673E+01 0.000E+00
CGA:   2    -0.662322423075E+03   -0.15560E+01   -0.15522E+01   768   0.609E+01 0.587E-01
CGA:   3    -0.663156266003E+03   -0.83384E+00   -0.82837E+00   768   0.178E+01 0.157E-01
CGA:   4    -0.663469562003E+03   -0.31330E+00   -0.31345E+00   768   0.306E+00 0.453E-02
CGA:   5    -0.663528779384E+03   -0.59217E-01   -0.59220E-01   768   0.115E+00-0.497E-03
CGA:   6    -0.663549196777E+03   -0.20417E-01   -0.20418E-01   768   0.453E-01 0.531E-04
CGA:   7    -0.663558787035E+03   -0.95903E-02   -0.95925E-02   768   0.209E-01-0.534E-04
CGA:   8    -0.663563392797E+03   -0.46058E-02   -0.46054E-02   768   0.141E-01 0.134E-04
CGA:   9    -0.663565515505E+03   -0.21227E-02   -0.21191E-02   768   0.558E-02-0.243E-04
CGA:  10    -0.663566750027E+03   -0.12345E-02   -0.12345E-02   768   0.230E-02 0.104E-05
CGA:  11    -0.663567252720E+03   -0.50269E-03   -0.50265E-03   768   0.921E-03 0.144E-05
CGA:  12    -0.663567424889E+03   -0.17217E-03   -0.17217E-03   768   0.593E-03 0.138E-05
CGA:  13    -0.663567526906E+03   -0.10202E-03   -0.10198E-03   768   0.220E-03-0.103E-05
CGA:  14    -0.663567592705E+03   -0.65799E-04   -0.65714E-04   768   0.158E-03 0.838E-06
  17 F= -.67013103E+03 E0= -.67011598E+03  d E =-.191674E-01  mag=     1.4138
       N       E                     dE             d eps       ncg     rms          ort
SDA:   1    -0.661996699553E+03    0.15708E+01    0.00000E+00   768   0.397E+01 0.000E+00
CGA:   2    -0.662848949499E+03   -0.85225E+00   -0.85428E+00   768   0.397E+01-0.665E-01
CGA:   3    -0.663355620503E+03   -0.50667E+00   -0.51066E+00   768   0.115E+01-0.193E-02
CGA:   4    -0.663562133278E+03   -0.20651E+00   -0.20644E+00   768   0.173E+00-0.219E-02
CGA:   5    -0.663594461319E+03   -0.32328E-01   -0.32329E-01   768   0.696E-01 0.414E-04
CGA:   6    -0.663606142468E+03   -0.11681E-01   -0.11679E-01   768   0.226E-01-0.571E-04
CGA:   7    -0.663610597434E+03   -0.44550E-02   -0.44548E-02   768   0.116E-01 0.327E-04
CGA:   8    -0.663612626783E+03   -0.20293E-02   -0.20297E-02   768   0.683E-02 0.117E-04
CGA:   9    -0.663613855219E+03   -0.12284E-02   -0.12288E-02   768   0.262E-02 0.194E-04
CGA:  10    -0.663614487938E+03   -0.63272E-03   -0.63261E-03   768   0.121E-02 0.159E-05
CGA:  11    -0.663614725195E+03   -0.23726E-03   -0.23726E-03   768   0.673E-03 0.173E-06
CGA:  12    -0.663614830939E+03   -0.10574E-03   -0.10571E-03   768   0.257E-03-0.143E-05
CGA:  13    -0.663614890672E+03   -0.59732E-04   -0.59726E-04   768   0.110E-03 0.109E-06
  18 F= -.67017519E+03 E0= -.67016028E+03  d E =-.633276E-01  mag=     1.4530
       N       E                     dE             d eps       ncg     rms          ort
SDA:   1    -0.663625531006E+03   -0.10700E-01    0.00000E+00   768   0.357E-01 0.000E+00
CGA:   2    -0.663633608241E+03   -0.80772E-02   -0.80776E-02   768   0.208E-01-0.908E-05
CGA:   3    -0.663636973589E+03   -0.33653E-02   -0.33659E-02   768   0.931E-02 0.438E-05
CGA:   4    -0.663638396245E+03   -0.14227E-02   -0.14225E-02   768   0.307E-02 0.214E-05
CGA:   5    -0.663638939983E+03   -0.54374E-03   -0.54371E-03   768   0.104E-02-0.305E-05
CGA:   6    -0.663639120122E+03   -0.18014E-03   -0.18008E-03   768   0.436E-03-0.251E-05
CGA:   7    -0.663639198025E+03   -0.77903E-04   -0.77901E-04   768   0.243E-03-0.294E-06
  19 F= -.67019952E+03 E0= -.67018469E+03  d E =-.243293E-01  mag=     1.4536
       N       E                     dE             d eps       ncg     rms          ort
SDA:   1    -0.663576596559E+03    0.62524E-01    0.00000E+00   768   0.321E+00 0.000E+00
CGA:   2    -0.663648733303E+03   -0.72137E-01   -0.72151E-01   768   0.191E+00-0.287E-03
CGA:   3    -0.663678654515E+03   -0.29921E-01   -0.29948E-01   768   0.849E-01 0.239E-03
CGA:   4    -0.663691592592E+03   -0.12938E-01   -0.12930E-01   768   0.285E-01-0.304E-04
CGA:   5    -0.663696667415E+03   -0.50748E-02   -0.50754E-02   768   0.964E-02 0.199E-04
CGA:   6    -0.663698328490E+03   -0.16611E-02   -0.16607E-02   768   0.402E-02-0.139E-04
CGA:   7    -0.663699050852E+03   -0.72236E-03   -0.72241E-03   768   0.216E-02 0.243E-05
CGA:   8    -0.663699460286E+03   -0.40943E-03   -0.40944E-03   768   0.105E-02-0.793E-06
CGA:   9    -0.663699669374E+03   -0.20909E-03   -0.20908E-03   768   0.427E-03 0.410E-06
CGA:  10    -0.663699746733E+03   -0.77359E-04   -0.77342E-04   768   0.183E-03-0.220E-05
  20 F= -.67026009E+03 E0= -.67024547E+03  d E =-.848939E-01  mag=     1.4512
       N       E                     dE             d eps       ncg     rms          ort
SDA:   1    -0.663272110696E+03    0.42756E+00    0.00000E+00   768   0.129E+01 0.000E+00
CGA:   2    -0.663560212877E+03   -0.28810E+00   -0.28826E+00   768   0.776E+00-0.286E-02
CGA:   3    -0.663679710518E+03   -0.11950E+00   -0.11972E+00   768   0.345E+00 0.226E-02
CGA:   4    -0.663732982029E+03   -0.53272E-01   -0.53216E-01   768   0.113E+00-0.424E-03
CGA:   5    -0.663752550415E+03   -0.19568E-01   -0.19575E-01   768   0.394E-01 0.233E-03
CGA:   6    -0.663759208170E+03   -0.66578E-02   -0.66550E-02   768   0.161E-01-0.842E-04
CGA:   7    -0.663762107211E+03   -0.28990E-02   -0.28992E-02   768   0.845E-02 0.257E-04
CGA:   8    -0.663763742119E+03   -0.16349E-02   -0.16351E-02   768   0.420E-02-0.123E-04
CGA:   9    -0.663764566802E+03   -0.82468E-03   -0.82456E-03   768   0.179E-02 0.555E-05
CGA:  10    -0.663764883588E+03   -0.31679E-03   -0.31673E-03   768   0.748E-03-0.552E-05
CGA:  11    -0.663765010080E+03   -0.12649E-03   -0.12648E-03   768   0.291E-03-0.117E-05
CGA:  12    -0.663765067108E+03   -0.57028E-04   -0.57039E-04   768   0.138E-03-0.867E-06
  21 F= -.67032521E+03 E0= -.67031086E+03  d E =-.150020E+00  mag=     1.4442
       N       E                     dE             d eps       ncg     rms          ort
SDA:   1    -0.663702472314E+03    0.62538E-01    0.00000E+00   768   0.178E+00 0.000E+00
CGA:   2    -0.663741995365E+03   -0.39523E-01   -0.39535E-01   768   0.109E+00-0.208E-03
CGA:   3    -0.663758523949E+03   -0.16529E-01   -0.16542E-01   768   0.484E-01 0.123E-03
CGA:   4    -0.663766038922E+03   -0.75150E-02   -0.75127E-02   768   0.156E-01-0.128E-04
CGA:   5    -0.663768808356E+03   -0.27694E-02   -0.27695E-02   768   0.522E-02 0.606E-05
CGA:   6    -0.663769693818E+03   -0.88546E-03   -0.88529E-03   768   0.221E-02-0.804E-05
CGA:   7    -0.663770091784E+03   -0.39797E-03   -0.39797E-03   768   0.119E-02 0.324E-06
CGA:   8    -0.663770320659E+03   -0.22888E-03   -0.22888E-03   768   0.598E-03-0.303E-06
CGA:   9    -0.663770440795E+03   -0.12014E-03   -0.12013E-03   768   0.255E-03 0.834E-07
CGA:  10    -0.663770486619E+03   -0.45824E-04   -0.45817E-04   768   0.116E-03-0.171E-05
  22 F= -.67033049E+03 E0= -.67031617E+03  d E =-.155291E+00  mag=     1.4409
       N       E                     dE             d eps       ncg     rms          ort
SDA:   1    -0.663731303569E+03    0.39137E-01    0.00000E+00   768   0.172E+00 0.000E+00
CGA:   2    -0.663759194424E+03   -0.27891E-01   -0.27875E-01   768   0.902E-01-0.255E-03
CGA:   3    -0.663774437940E+03   -0.15244E-01   -0.15248E-01   768   0.539E-01 0.200E-03
CGA:   4    -0.663783916698E+03   -0.94788E-02   -0.94779E-02   768   0.183E-01-0.602E-04
CGA:   5    -0.663787121242E+03   -0.32045E-02   -0.32048E-02   768   0.659E-02 0.228E-04
CGA:   6    -0.663788308749E+03   -0.11875E-02   -0.11875E-02   768   0.304E-02-0.145E-04
CGA:   7    -0.663788829106E+03   -0.52036E-03   -0.52035E-03   768   0.155E-02-0.332E-05
CGA:   8    -0.663789105214E+03   -0.27611E-03   -0.27610E-03   768   0.623E-03-0.361E-05
CGA:   9    -0.663789224914E+03   -0.11970E-03   -0.11969E-03   768   0.232E-03 0.402E-06
CGA:  10    -0.663789263492E+03   -0.38578E-04   -0.38570E-04   768   0.960E-04-0.484E-06
  23 F= -.67034896E+03 E0= -.67033454E+03  d E =-.184770E-01  mag=     1.4320
       N       E                     dE             d eps       ncg     rms          ort
SDA:   1    -0.663304429952E+03    0.48479E+00    0.00000E+00   768   0.154E+01 0.000E+00
CGA:   2    -0.663556871458E+03   -0.25244E+00   -0.25219E+00   768   0.813E+00-0.667E-02
CGA:   3    -0.663693240400E+03   -0.13637E+00   -0.13647E+00   768   0.488E+00 0.558E-02
CGA:   4    -0.663777670628E+03   -0.84430E-01   -0.84401E-01   768   0.173E+00-0.243E-02
CGA:   5    -0.663806646254E+03   -0.28976E-01   -0.28990E-01   768   0.641E-01 0.719E-03
CGA:   6    -0.663817587940E+03   -0.10942E-01   -0.10939E-01   768   0.296E-01-0.240E-03
CGA:   7    -0.663822590965E+03   -0.50030E-02   -0.50040E-02   768   0.141E-01 0.595E-04
CGA:   8    -0.663825210997E+03   -0.26200E-02   -0.26207E-02   768   0.606E-02-0.442E-04
CGA:   9    -0.663826303311E+03   -0.10923E-02   -0.10922E-02   768   0.243E-02 0.945E-05
CGA:  10    -0.663826688170E+03   -0.38486E-03   -0.38473E-03   768   0.899E-03-0.369E-05
CGA:  11    -0.663826839231E+03   -0.15106E-03   -0.15107E-03   768   0.310E-03 0.647E-06
CGA:  12    -0.663826897094E+03   -0.57864E-04   -0.57866E-04   768   0.154E-03-0.192E-06
  24 F= -.67038562E+03 E0= -.67037087E+03  d E =-.551351E-01  mag=     1.4022
       N       E                     dE             d eps       ncg     rms          ort
SDA:   1    -0.661729074433E+03    0.20978E+01    0.00000E+00   768   0.611E+01 0.000E+00
CGA:   2    -0.662746042861E+03   -0.10170E+01   -0.10160E+01   768   0.325E+01-0.445E-01
CGA:   3    -0.663285379045E+03   -0.53934E+00   -0.53998E+00   768   0.196E+01 0.398E-01
CGA:   4    -0.663616453042E+03   -0.33107E+00   -0.33072E+00   768   0.754E+00-0.213E-01
CGA:   5    -0.663732947264E+03   -0.11649E+00   -0.11671E+00   768   0.282E+00 0.425E-02
CGA:   6    -0.663779379467E+03   -0.46432E-01   -0.46394E-01   768   0.125E+00-0.193E-02
CGA:   7    -0.663800942754E+03   -0.21563E-01   -0.21563E-01   768   0.590E-01 0.574E-03
CGA:   8    -0.663811674419E+03   -0.10732E-01   -0.10736E-01   768   0.287E-01-0.321E-03
CGA:   9    -0.663816395973E+03   -0.47216E-02   -0.47229E-02   768   0.111E-01 0.756E-04
CGA:  10    -0.663818250946E+03   -0.18550E-02   -0.18546E-02   768   0.407E-02-0.259E-04
CGA:  11    -0.663818904827E+03   -0.65388E-03   -0.65396E-03   768   0.157E-02 0.342E-05
CGA:  12    -0.663819172003E+03   -0.26718E-03   -0.26717E-03   768   0.687E-03-0.176E-05
CGA:  13    -0.663819298420E+03   -0.12642E-03   -0.12639E-03   768   0.382E-03 0.228E-05
CGA:  14    -0.663819371929E+03   -0.73509E-04   -0.73490E-04   768   0.243E-03 0.833E-06
  25 F= -.67037581E+03 E0= -.67036071E+03  d E =-.453245E-01  mag=     1.3265
       N       E                     dE             d eps       ncg     rms          ort
SDA:   1    -0.663106712594E+03    0.71259E+00    0.00000E+00   768   0.219E+01 0.000E+00
CGA:   2    -0.663449846381E+03   -0.34313E+00   -0.34377E+00   768   0.118E+01 0.102E-01
CGA:   3    -0.663643169505E+03   -0.19332E+00   -0.19309E+00   768   0.717E+00-0.115E-01
CGA:   4    -0.663767208927E+03   -0.12404E+00   -0.12404E+00   768   0.235E+00 0.422E-02
CGA:   5    -0.663809361788E+03   -0.42153E-01   -0.42162E-01   768   0.885E-01-0.115E-02
CGA:   6    -0.663824351705E+03   -0.14990E-01   -0.14993E-01   768   0.410E-01 0.393E-03
CGA:   7    -0.663831060900E+03   -0.67092E-02   -0.67067E-02   768   0.208E-01-0.840E-04
CGA:   8    -0.663834760223E+03   -0.36993E-02   -0.36988E-02   768   0.816E-02 0.742E-04
CGA:   9    -0.663836337990E+03   -0.15778E-02   -0.15782E-02   768   0.334E-02-0.166E-04
CGA:  10    -0.663836840734E+03   -0.50274E-03   -0.50297E-03   768   0.132E-02 0.424E-05
CGA:  11    -0.663837054752E+03   -0.21402E-03   -0.21400E-03   768   0.400E-03-0.141E-05
CGA:  12    -0.663837132501E+03   -0.77749E-04   -0.77745E-04   768   0.196E-03 0.123E-06
  26 F= -.67039497E+03 E0= -.67037998E+03  d E =-.644888E-01  mag=     1.3674
       N       E                     dE             d eps       ncg     rms          ort
SDA:   1    -0.663698487385E+03    0.13857E+00    0.00000E+00   768   0.449E+00 0.000E+00
CGA:   2    -0.663775176510E+03   -0.76689E-01   -0.76683E-01   768   0.262E+00-0.112E-02
CGA:   3    -0.663818705714E+03   -0.43529E-01   -0.43542E-01   768   0.157E+00 0.102E-02
CGA:   4    -0.663844197618E+03   -0.25492E-01   -0.25483E-01   768   0.497E-01-0.357E-03
CGA:   5    -0.663852422868E+03   -0.82253E-02   -0.82267E-02   768   0.192E-01 0.105E-03
CGA:   6    -0.663855624049E+03   -0.32012E-02   -0.32008E-02   768   0.859E-02-0.455E-04
CGA:   7    -0.663857076093E+03   -0.14520E-02   -0.14521E-02   768   0.428E-02 0.494E-05
CGA:   8    -0.663857848678E+03   -0.77258E-03   -0.77270E-03   768   0.186E-02-0.925E-05
CGA:   9    -0.663858180822E+03   -0.33214E-03   -0.33212E-03   768   0.779E-03 0.189E-05
CGA:  10    -0.663858303061E+03   -0.12224E-03   -0.12221E-03   768   0.288E-03-0.147E-05
CGA:  11    -0.663858350484E+03   -0.47424E-04   -0.47425E-04   768   0.101E-03 0.145E-06
  27 F= -.67041585E+03 E0= -.67040061E+03  d E =-.208716E-01  mag=     1.3622
       N       E                     dE             d eps       ncg     rms          ort
SDA:   1    -0.663327102650E+03    0.53120E+00    0.00000E+00   768   0.154E+01 0.000E+00
CGA:   2    -0.663590104725E+03   -0.26300E+00   -0.26299E+00   768   0.898E+00-0.660E-02
CGA:   3    -0.663737899904E+03   -0.14780E+00   -0.14787E+00   768   0.539E+00 0.617E-02
CGA:   4    -0.663824743130E+03   -0.86843E-01   -0.86782E-01   768   0.175E+00-0.257E-02
CGA:   5    -0.663852931788E+03   -0.28189E-01   -0.28202E-01   768   0.665E-01 0.601E-03
CGA:   6    -0.663863988824E+03   -0.11057E-01   -0.11055E-01   768   0.302E-01-0.264E-03
CGA:   7    -0.663869130902E+03   -0.51421E-02   -0.51420E-02   768   0.150E-01 0.673E-04
CGA:   8    -0.663871822120E+03   -0.26912E-02   -0.26919E-02   768   0.680E-02-0.449E-04
CGA:   9    -0.663873003524E+03   -0.11814E-02   -0.11813E-02   768   0.283E-02 0.117E-04
CGA:  10    -0.663873456111E+03   -0.45259E-03   -0.45250E-03   768   0.107E-02-0.503E-05
CGA:  11    -0.663873630844E+03   -0.17473E-03   -0.17474E-03   768   0.400E-03 0.494E-06
CGA:  12    -0.663873702021E+03   -0.71177E-04   -0.71185E-04   768   0.186E-03-0.909E-06
  28 F= -.67043051E+03 E0= -.67041479E+03  d E =-.355316E-01  mag=     1.3480
       N       E                     dE             d eps       ncg     rms          ort
SDA:   1    -0.663639902992E+03    0.23373E+00    0.00000E+00   768   0.686E+00 0.000E+00
CGA:   2    -0.663767871800E+03   -0.12797E+00   -0.12805E+00   768   0.467E+00-0.288E-02
CGA:   3    -0.663836878424E+03   -0.69007E-01   -0.69079E-01   768   0.225E+00 0.148E-02
CGA:   4    -0.663872289840E+03   -0.35411E-01   -0.35396E-01   768   0.702E-01-0.515E-03
CGA:   5    -0.663883987733E+03   -0.11698E-01   -0.11699E-01   768   0.271E-01 0.134E-03
CGA:   6    -0.663888440924E+03   -0.44532E-02   -0.44526E-02   768   0.129E-01-0.695E-04
CGA:   7    -0.663890571083E+03   -0.21302E-02   -0.21303E-02   768   0.634E-02 0.618E-05
CGA:   8    -0.663891740219E+03   -0.11691E-02   -0.11696E-02   768   0.296E-02-0.219E-04
CGA:   9    -0.663892268096E+03   -0.52788E-03   -0.52783E-03   768   0.131E-02 0.278E-05
CGA:  10    -0.663892471024E+03   -0.20293E-03   -0.20290E-03   768   0.527E-03-0.617E-06
CGA:  11    -0.663892560240E+03   -0.89215E-04   -0.89215E-04   768   0.193E-03 0.216E-05
  29 F= -.67044893E+03 E0= -.67043300E+03  d E =-.184265E-01  mag=     1.3306
       N       E                     dE             d eps       ncg     rms          ort
SDA:   1    -0.663694299849E+03    0.19817E+00    0.00000E+00   768   0.551E+00 0.000E+00
CGA:   2    -0.663798051763E+03   -0.10375E+00   -0.10381E+00   768   0.372E+00-0.184E-02
CGA:   3    -0.663853318568E+03   -0.55267E-01   -0.55314E-01   768   0.183E+00 0.105E-02
CGA:   4    -0.663881506825E+03   -0.28188E-01   -0.28175E-01   768   0.578E-01-0.350E-03
CGA:   5    -0.663890907452E+03   -0.94006E-02   -0.94018E-02   768   0.223E-01 0.905E-04
CGA:   6    -0.663894598502E+03   -0.36910E-02   -0.36908E-02   768   0.105E-01-0.545E-04
CGA:   7    -0.663896336735E+03   -0.17382E-02   -0.17383E-02   768   0.526E-02 0.140E-05
CGA:   8    -0.663897285642E+03   -0.94891E-03   -0.94920E-03   768   0.247E-02-0.177E-04
CGA:   9    -0.663897722902E+03   -0.43726E-03   -0.43723E-03   768   0.108E-02 0.181E-05
CGA:  10    -0.663897891929E+03   -0.16903E-03   -0.16901E-03   768   0.444E-03-0.488E-06
CGA:  11    -0.663897965464E+03   -0.73536E-04   -0.73541E-04   768   0.164E-03 0.197E-05
  30 F= -.67045393E+03 E0= -.67043786E+03  d E =-.234233E-01  mag=     1.3151
       N       E                     dE             d eps       ncg     rms          ort
SDA:   1    -0.663827330006E+03    0.70562E-01    0.00000E+00   768   0.203E+00 0.000E+00
CGA:   2    -0.663875619824E+03   -0.48290E-01   -0.48306E-01   768   0.127E+00-0.189E-03
CGA:   3    -0.663895428739E+03   -0.19809E-01   -0.19815E-01   768   0.592E-01 0.156E-03
CGA:   4    -0.663903815307E+03   -0.83866E-02   -0.83829E-02   768   0.188E-01-0.284E-04
CGA:   5    -0.663906551787E+03   -0.27365E-02   -0.27372E-02   768   0.669E-02 0.103E-04
CGA:   6    -0.663907624717E+03   -0.10729E-02   -0.10728E-02   768   0.290E-02-0.667E-05
CGA:   7    -0.663908145826E+03   -0.52111E-03   -0.52112E-03   768   0.139E-02-0.215E-05
CGA:   8    -0.663908396598E+03   -0.25077E-03   -0.25084E-03   768   0.778E-03-0.541E-05
CGA:   9    -0.663908526589E+03   -0.12999E-03   -0.12999E-03   768   0.343E-03-0.114E-05
CGA:  10    -0.663908586954E+03   -0.60364E-04   -0.60370E-04   768   0.143E-03-0.693E-06
  31 F= -.67046474E+03 E0= -.67044864E+03  d E =-.108141E-01  mag=     1.3097
       N       E                     dE             d eps       ncg     rms          ort
SDA:   1    -0.663254977595E+03    0.65355E+00    0.00000E+00   768   0.166E+01 0.000E+00
CGA:   2    -0.663648337421E+03   -0.39336E+00   -0.39374E+00   768   0.107E+01-0.432E-02
CGA:   3    -0.663809945453E+03   -0.16161E+00   -0.16182E+00   768   0.500E+00 0.410E-02
CGA:   4    -0.663880891003E+03   -0.70946E-01   -0.70858E-01   768   0.160E+00-0.758E-03
CGA:   5    -0.663904177107E+03   -0.23286E-01   -0.23302E-01   768   0.568E-01 0.191E-03
CGA:   6    -0.663913362232E+03   -0.91851E-02   -0.91833E-02   768   0.240E-01-0.126E-03
CGA:   7    -0.663917681849E+03   -0.43196E-02   -0.43188E-02   768   0.118E-01 0.359E-04
CGA:   8    -0.663919714577E+03   -0.20327E-02   -0.20328E-02   768   0.649E-02-0.315E-04
CGA:   9    -0.663920825452E+03   -0.11109E-02   -0.11108E-02   768   0.275E-02 0.461E-05
CGA:  10    -0.663921315345E+03   -0.48989E-03   -0.48994E-03   768   0.119E-02-0.429E-05
CGA:  11    -0.663921505193E+03   -0.18985E-03   -0.18988E-03   768   0.533E-03 0.286E-05
CGA:  12    -0.663921593093E+03   -0.87901E-04   -0.87901E-04   768   0.200E-03 0.279E-06
  32 F= -.67047822E+03 E0= -.67046206E+03  d E =-.242869E-01  mag=     1.2930
       N       E                     dE             d eps       ncg     rms          ort
SDA:   1    -0.663757241301E+03    0.16426E+00    0.00000E+00   768   0.430E+00 0.000E+00
CGA:   2    -0.663867824647E+03   -0.11058E+00   -0.11059E+00   768   0.250E+00-0.103E-03
CGA:   3    -0.663908022511E+03   -0.40198E-01   -0.40183E-01   768   0.125E+00-0.561E-03
CGA:   4    -0.663924269791E+03   -0.16247E-01   -0.16256E-01   768   0.338E-01-0.299E-04
CGA:   5    -0.663929364647E+03   -0.50949E-02   -0.50937E-02   768   0.119E-01-0.175E-04
CGA:   6    -0.663931283293E+03   -0.19186E-02   -0.19188E-02   768   0.511E-02 0.136E-04
CGA:   7    -0.663932170489E+03   -0.88720E-03   -0.88722E-03   768   0.241E-02-0.535E-05
CGA:   8    -0.663932591328E+03   -0.42084E-03   -0.42085E-03   768   0.136E-02-0.283E-05
CGA:   9    -0.663932835484E+03   -0.24416E-03   -0.24421E-03   768   0.613E-03-0.515E-05
CGA:  10    -0.663932943447E+03   -0.10796E-03   -0.10796E-03   768   0.290E-03 0.529E-06
CGA:  11    -0.663932991852E+03   -0.48405E-04   -0.48406E-04   768   0.132E-03 0.226E-06
  33 F= -.67049045E+03 E0= -.67047430E+03  d E =-.122299E-01  mag=     1.2841
       N       E                     dE             d eps       ncg     rms          ort
SDA:   1    -0.663671224355E+03    0.26172E+00    0.00000E+00   768   0.651E+00 0.000E+00
CGA:   2    -0.663838071769E+03   -0.16685E+00   -0.16685E+00   768   0.382E+00-0.139E-03
CGA:   3    -0.663898805541E+03   -0.60734E-01   -0.60700E-01   768   0.191E+00-0.101E-02
CGA:   4    -0.663923818577E+03   -0.25013E-01   -0.25027E-01   768   0.514E-01-0.427E-04
CGA:   5    -0.663931565050E+03   -0.77465E-02   -0.77441E-02   768   0.180E-01-0.373E-04
CGA:   6    -0.663934538110E+03   -0.29731E-02   -0.29733E-02   768   0.768E-02 0.218E-04
CGA:   7    -0.663935865468E+03   -0.13274E-02   -0.13274E-02   768   0.374E-02-0.855E-05
CGA:   8    -0.663936505528E+03   -0.64006E-03   -0.64006E-03   768   0.202E-02-0.233E-05
CGA:   9    -0.663936880835E+03   -0.37531E-03   -0.37541E-03   768   0.918E-03-0.651E-05
CGA:  10    -0.663937041844E+03   -0.16101E-03   -0.16101E-03   768   0.445E-03 0.824E-06
CGA:  11    -0.663937115083E+03   -0.73239E-04   -0.73240E-04   768   0.195E-03 0.213E-06
  34 F= -.67049557E+03 E0= -.67047944E+03  d E =-.173527E-01  mag=     1.2712
       N       E                     dE             d eps       ncg     rms          ort
SDA:   1    -0.663801590055E+03    0.13545E+00    0.00000E+00   768   0.358E+00 0.000E+00
CGA:   2    -0.663894402413E+03   -0.92812E-01   -0.92754E-01   768   0.211E+00 0.551E-03
CGA:   3    -0.663925014690E+03   -0.30612E-01   -0.30592E-01   768   0.106E+00-0.265E-03
CGA:   4    -0.663938788287E+03   -0.13774E-01   -0.13777E-01   768   0.240E-01-0.275E-04
CGA:   5    -0.663942646404E+03   -0.38581E-02   -0.38579E-02   768   0.823E-02-0.194E-05
CGA:   6    -0.663944076234E+03   -0.14298E-02   -0.14298E-02   768   0.359E-02 0.829E-05
CGA:   7    -0.663944644743E+03   -0.56851E-03   -0.56842E-03   768   0.179E-02-0.570E-05
CGA:   8    -0.663944947153E+03   -0.30241E-03   -0.30240E-03   768   0.828E-03-0.504E-05
CGA:   9    -0.663945112789E+03   -0.16564E-03   -0.16576E-03   768   0.396E-03-0.420E-05
CGA:  10    -0.663945180235E+03   -0.67446E-04   -0.67448E-04   768   0.219E-03 0.947E-06
  35 F= -.67050425E+03 E0= -.67048822E+03  d E =-.867953E-02  mag=     1.2564
       N       E                     dE             d eps       ncg     rms          ort
SDA:   1    -0.663536861160E+03    0.40825E+00    0.00000E+00   768   0.103E+01 0.000E+00
CGA:   2    -0.663800768111E+03   -0.26391E+00   -0.26361E+00   768   0.631E+00 0.284E-02
CGA:   3    -0.663889249635E+03   -0.88482E-01   -0.88402E-01   768   0.310E+00-0.955E-03
CGA:   4    -0.663931199454E+03   -0.41950E-01   -0.41966E-01   768   0.682E-01 0.669E-05
CGA:   5    -0.663942416115E+03   -0.11217E-01   -0.11216E-01   768   0.241E-01-0.362E-04
CGA:   6    -0.663946560792E+03   -0.41447E-02   -0.41447E-02   768   0.106E-01 0.281E-04
CGA:   7    -0.663948217213E+03   -0.16564E-02   -0.16562E-02   768   0.523E-02-0.115E-04
CGA:   8    -0.663949102256E+03   -0.88504E-03   -0.88504E-03   768   0.233E-02-0.549E-05
CGA:   9    -0.663949577111E+03   -0.47485E-03   -0.47511E-03   768   0.112E-02-0.735E-05
CGA:  10    -0.663949761915E+03   -0.18480E-03   -0.18482E-03   768   0.606E-03 0.170E-05
CGA:  11    -0.663949861189E+03   -0.99274E-04   -0.99285E-04   768   0.214E-03 0.118E-05
  36 F= -.67050996E+03 E0= -.67049417E+03  d E =-.143929E-01  mag=     1.2318
       N       E                     dE             d eps       ncg     rms          ort
SDA:   1    -0.663754278290E+03    0.19548E+00    0.00000E+00   768   0.519E+00 0.000E+00
CGA:   2    -0.663874520202E+03   -0.12024E+00   -0.12022E+00   768   0.374E+00 0.164E-03
CGA:   3    -0.663923045488E+03   -0.48525E-01   -0.48488E-01   768   0.169E+00-0.354E-03
CGA:   4    -0.663949118773E+03   -0.26073E-01   -0.26076E-01   768   0.368E-01 0.206E-04
CGA:   5    -0.663955408450E+03   -0.62897E-02   -0.62896E-02   768   0.129E-01 0.327E-05
CGA:   6    -0.663957631891E+03   -0.22234E-02   -0.22235E-02   768   0.617E-02 0.216E-04
CGA:   7    -0.663958575453E+03   -0.94356E-03   -0.94346E-03   768   0.307E-02-0.213E-05
CGA:   8    -0.663959120905E+03   -0.54545E-03   -0.54547E-03   768   0.139E-02-0.411E-05
CGA:   9    -0.663959414349E+03   -0.29344E-03   -0.29368E-03   768   0.677E-03-0.583E-05
CGA:  10    -0.663959521843E+03   -0.10749E-03   -0.10751E-03   768   0.366E-03 0.966E-06
CGA:  11    -0.663959583017E+03   -0.61175E-04   -0.61182E-04   768   0.124E-03 0.108E-05
  37 F= -.67052064E+03 E0= -.67050489E+03  d E =-.106810E-01  mag=     1.2101
       N       E                     dE             d eps       ncg     rms          ort
SDA:   1    -0.663543840073E+03    0.41568E+00    0.00000E+00   768   0.106E+01 0.000E+00
CGA:   2    -0.663788607722E+03   -0.24477E+00   -0.24473E+00   768   0.777E+00 0.333E-03
CGA:   3    -0.663888668756E+03   -0.10006E+00   -0.99973E-01   768   0.345E+00-0.102E-02
CGA:   4    -0.663942273544E+03   -0.53605E-01   -0.53616E-01   768   0.747E-01 0.170E-03
CGA:   5    -0.663955160988E+03   -0.12887E-01   -0.12887E-01   768   0.265E-01-0.128E-04
CGA:   6    -0.663959702531E+03   -0.45415E-02   -0.45417E-02   768   0.125E-01 0.433E-04
CGA:   7    -0.663961623840E+03   -0.19213E-02   -0.19210E-02   768   0.628E-02-0.516E-05
CGA:   8    -0.663962728216E+03   -0.11044E-02   -0.11044E-02   768   0.284E-02-0.311E-05
CGA:   9    -0.663963333559E+03   -0.60534E-03   -0.60566E-03   768   0.135E-02-0.793E-05
CGA:  10    -0.663963552264E+03   -0.21870E-03   -0.21873E-03   768   0.752E-03 0.167E-05
CGA:  11    -0.663963675123E+03   -0.12286E-03   -0.12288E-03   768   0.252E-03 0.150E-05
CGA:  12    -0.663963728058E+03   -0.52935E-04   -0.52868E-04   768   0.135E-03 0.193E-05
  38 F= -.67052614E+03 E0= -.67051056E+03  d E =-.161804E-01  mag=     1.1762
       N       E                     dE             d eps       ncg     rms          ort
SDA:   1    -0.663688340373E+03    0.27533E+00    0.00000E+00   768   0.731E+00 0.000E+00
CGA:   2    -0.663849539666E+03   -0.16120E+00   -0.16114E+00   768   0.508E+00 0.795E-03
CGA:   3    -0.663920596616E+03   -0.71057E-01   -0.71004E-01   768   0.241E+00-0.833E-03
CGA:   4    -0.663956418101E+03   -0.35821E-01   -0.35831E-01   768   0.585E-01 0.324E-04
CGA:   5    -0.663965947048E+03   -0.95289E-02   -0.95282E-02   768   0.218E-01-0.158E-04
CGA:   6    -0.663969665324E+03   -0.37183E-02   -0.37184E-02   768   0.104E-01 0.302E-04
CGA:   7    -0.663971338232E+03   -0.16729E-02   -0.16727E-02   768   0.518E-02-0.955E-05
CGA:   8    -0.663972250566E+03   -0.91233E-03   -0.91234E-03   768   0.241E-02-0.319E-05
CGA:   9    -0.663972720599E+03   -0.47003E-03   -0.47015E-03   768   0.112E-02-0.552E-05
CGA:  10    -0.663972900764E+03   -0.18017E-03   -0.18019E-03   768   0.558E-03 0.158E-05
CGA:  11    -0.663972995580E+03   -0.94816E-04   -0.94823E-04   768   0.205E-03 0.166E-05
  39 F= -.67053630E+03 E0= -.67052120E+03  d E =-.101602E-01  mag=     1.1408
       N       E                     dE             d eps       ncg     rms          ort
SDA:   1    -0.661430010862E+03    0.25429E+01    0.00000E+00   768   0.656E+01 0.000E+00
CGA:   2    -0.662874328969E+03   -0.14443E+01   -0.14426E+01   768   0.452E+01 0.221E-01
CGA:   3    -0.663515570898E+03   -0.64124E+00   -0.64055E+00   768   0.217E+01-0.218E-01
CGA:   4    -0.663831839423E+03   -0.31627E+00   -0.31657E+00   768   0.519E+00 0.206E-02
CGA:   5    -0.663918244722E+03   -0.86405E-01   -0.86394E-01   768   0.194E+00-0.647E-03
CGA:   6    -0.663951950726E+03   -0.33706E-01   -0.33706E-01   768   0.919E-01 0.469E-03
CGA:   7    -0.663966980898E+03   -0.15030E-01   -0.15026E-01   768   0.468E-01-0.187E-03
CGA:   8    -0.663975028859E+03   -0.80480E-02   -0.80480E-02   768   0.209E-01 0.644E-04
CGA:   9    -0.663979219781E+03   -0.41909E-02   -0.41905E-02   768   0.917E-02 0.869E-06
CGA:  10    -0.663980725387E+03   -0.15056E-02   -0.15058E-02   768   0.465E-02 0.120E-04
CGA:  11    -0.663981488955E+03   -0.76357E-03   -0.76364E-03   768   0.161E-02 0.513E-05
CGA:  12    -0.663981805351E+03   -0.31640E-03   -0.31630E-03   768   0.800E-03 0.465E-05
CGA:  13    -0.663981941542E+03   -0.13619E-03   -0.13621E-03   768   0.454E-03 0.171E-05
CGA:  14    -0.663982032929E+03   -0.91387E-04   -0.91357E-04   768   0.250E-03 0.151E-05
  40 F= -.67054797E+03 E0= -.67053479E+03  d E =-.218271E-01  mag=     1.0441
       N       E                     dE             d eps       ncg     rms          ort
SDA:   1    -0.663394198627E+03    0.58774E+00    0.00000E+00   768   0.162E+01 0.000E+00
CGA:   2    -0.663704419692E+03   -0.31022E+00   -0.31016E+00   768   0.100E+01 0.173E-02
CGA:   3    -0.663864992466E+03   -0.16057E+00   -0.16044E+00   768   0.535E+00-0.425E-02
CGA:   4    -0.663947754078E+03   -0.82762E-01   -0.82808E-01   768   0.155E+00 0.339E-03
CGA:   5    -0.663972491245E+03   -0.24737E-01   -0.24732E-01   768   0.607E-01-0.141E-03
CGA:   6    -0.663982676273E+03   -0.10185E-01   -0.10186E-01   768   0.285E-01 0.772E-04
CGA:   7    -0.663987630341E+03   -0.49541E-02   -0.49538E-02   768   0.140E-01-0.593E-04
CGA:   8    -0.663990146992E+03   -0.25167E-02   -0.25166E-02   768   0.663E-02 0.606E-05
CGA:   9    -0.663991350351E+03   -0.12034E-02   -0.12034E-02   768   0.285E-02-0.428E-05
CGA:  10    -0.663991812793E+03   -0.46244E-03   -0.46250E-03   768   0.118E-02 0.298E-05
CGA:  11    -0.663992017828E+03   -0.20504E-03   -0.20504E-03   768   0.472E-03 0.164E-05
CGA:  12    -0.663992102641E+03   -0.84813E-04   -0.84804E-04   768   0.237E-03 0.238E-05
  41 F= -.67055890E+03 E0= -.67054650E+03  d E =-.109267E-01  mag=     1.0044
       N       E                     dE             d eps       ncg     rms          ort
SDA:   1    -0.663356662652E+03    0.63536E+00    0.00000E+00   768   0.173E+01 0.000E+00
CGA:   2    -0.663688211200E+03   -0.33155E+00   -0.33147E+00   768   0.107E+01 0.181E-02
CGA:   3    -0.663859763743E+03   -0.17155E+00   -0.17144E+00   768   0.568E+00-0.458E-02
CGA:   4    -0.663947723643E+03   -0.87960E-01   -0.88005E-01   768   0.163E+00 0.374E-03
CGA:   5    -0.663974142771E+03   -0.26419E-01   -0.26415E-01   768   0.627E-01-0.178E-03
CGA:   6    -0.663984758902E+03   -0.10616E-01   -0.10617E-01   768   0.305E-01 0.748E-04
CGA:   7    -0.663990047634E+03   -0.52887E-02   -0.52886E-02   768   0.148E-01-0.671E-04
CGA:   8    -0.663992714851E+03   -0.26672E-02   -0.26672E-02   768   0.690E-02 0.526E-05
CGA:   9    -0.663993975154E+03   -0.12603E-02   -0.12603E-02   768   0.294E-02-0.546E-05
CGA:  10    -0.663994449632E+03   -0.47448E-03   -0.47454E-03   768   0.122E-02 0.321E-05
CGA:  11    -0.663994662027E+03   -0.21239E-03   -0.21239E-03   768   0.472E-03 0.153E-05
CGA:  12    -0.663994747222E+03   -0.85195E-04   -0.85183E-04   768   0.236E-03 0.230E-05
  42 F= -.67056239E+03 E0= -.67055054E+03  d E =-.144245E-01  mag=     0.9704
       N       E                     dE             d eps       ncg     rms          ort
SDA:   1    -0.663680242144E+03    0.31442E+00    0.00000E+00   768   0.909E+00 0.000E+00
CGA:   2    -0.663845398519E+03   -0.16516E+00   -0.16514E+00   768   0.508E+00 0.844E-03
CGA:   3    -0.663931371555E+03   -0.85973E-01   -0.85953E-01   768   0.276E+00-0.195E-02
CGA:   4    -0.663976021266E+03   -0.44650E-01   -0.44662E-01   768   0.854E-01 0.216E-03
CGA:   5    -0.663990426083E+03   -0.14405E-01   -0.14403E-01   768   0.339E-01-0.147E-03
CGA:   6    -0.663996202154E+03   -0.57761E-02   -0.57763E-02   768   0.177E-01 0.213E-04
CGA:   7    -0.663999125804E+03   -0.29236E-02   -0.29231E-02   768   0.840E-02-0.311E-04
CGA:   8    -0.664000675702E+03   -0.15499E-02   -0.15498E-02   768   0.349E-02 0.526E-05
CGA:   9    -0.664001332443E+03   -0.65674E-03   -0.65679E-03   768   0.147E-02-0.274E-05
CGA:  10    -0.664001557542E+03   -0.22510E-03   -0.22516E-03   768   0.609E-03 0.248E-05
CGA:  11    -0.664001662358E+03   -0.10482E-03   -0.10482E-03   768   0.214E-03 0.894E-06
CGA:  12    -0.664001704381E+03   -0.42023E-04   -0.41988E-04   768   0.116E-03 0.165E-05
  43 F= -.67056941E+03 E0= -.67055780E+03  d E =-.701883E-02  mag=     0.9558
       N       E                     dE             d eps       ncg     rms          ort
SDA:   1    -0.663901780701E+03    0.99882E-01    0.00000E+00   768   0.285E+00 0.000E+00
CGA:   2    -0.663953724838E+03   -0.51944E-01   -0.51941E-01   768   0.160E+00 0.140E-03
CGA:   3    -0.663980683800E+03   -0.26959E-01   -0.26956E-01   768   0.862E-01-0.342E-03
CGA:   4    -0.663994739491E+03   -0.14056E-01   -0.14057E-01   768   0.267E-01 0.293E-04
CGA:   5    -0.663999254096E+03   -0.45146E-02   -0.45144E-02   768   0.105E-01-0.235E-04
CGA:   6    -0.664001058491E+03   -0.18044E-02   -0.18044E-02   768   0.558E-02 0.307E-05
CGA:   7    -0.664001970993E+03   -0.91250E-03   -0.91238E-03   768   0.266E-02-0.640E-05
CGA:   8    -0.664002461791E+03   -0.49080E-03   -0.49078E-03   768   0.110E-02 0.811E-06
CGA:   9    -0.664002670966E+03   -0.20917E-03   -0.20919E-03   768   0.459E-03-0.801E-06
CGA:  10    -0.664002741385E+03   -0.70419E-04   -0.70447E-04   768   0.196E-03 0.131E-05
  44 F= -.67057047E+03 E0= -.67055896E+03  d E =-.808101E-02  mag=     0.9489
       N       E                     dE             d eps       ncg     rms          ort
SDA:   1    -0.663857686690E+03    0.14498E+00    0.00000E+00   768   0.429E+00 0.000E+00
CGA:   2    -0.663932102073E+03   -0.74415E-01   -0.74415E-01   768   0.233E+00 0.239E-03
CGA:   3    -0.663972519044E+03   -0.40417E-01   -0.40417E-01   768   0.138E+00-0.817E-03
CGA:   4    -0.663995410633E+03   -0.22892E-01   -0.22893E-01   768   0.441E-01 0.721E-04
CGA:   5    -0.664002628646E+03   -0.72180E-02   -0.72171E-02   768   0.175E-01-0.500E-04
CGA:   6    -0.664005540991E+03   -0.29123E-02   -0.29125E-02   768   0.872E-02 0.126E-04
CGA:   7    -0.664007028037E+03   -0.14870E-02   -0.14870E-02   768   0.422E-02-0.944E-05
CGA:   8    -0.664007795390E+03   -0.76735E-03   -0.76732E-03   768   0.177E-02 0.276E-05
CGA:   9    -0.664008121815E+03   -0.32642E-03   -0.32644E-03   768   0.774E-03-0.997E-06
CGA:  10    -0.664008239354E+03   -0.11754E-03   -0.11756E-03   768   0.297E-03 0.111E-05
CGA:  11    -0.664008291945E+03   -0.52590E-04   -0.52591E-04   768   0.114E-03 0.239E-07
  45 F= -.67057608E+03 E0= -.67056462E+03  d E =-.560120E-02  mag=     0.9343
       N       E                     dE             d eps       ncg     rms          ort
SDA:   1    -0.663665528572E+03    0.34271E+00    0.00000E+00   768   0.984E+00 0.000E+00
CGA:   2    -0.663836622375E+03   -0.17109E+00   -0.17109E+00   768   0.534E+00 0.847E-03
CGA:   3    -0.663929370094E+03   -0.92748E-01   -0.92749E-01   768   0.318E+00-0.280E-02
CGA:   4    -0.663981705277E+03   -0.52335E-01   -0.52343E-01   768   0.102E+00 0.275E-03
CGA:   5    -0.663998402905E+03   -0.16698E-01   -0.16695E-01   768   0.402E-01-0.189E-03
CGA:   6    -0.664004981555E+03   -0.65786E-02   -0.65793E-02   768   0.201E-01 0.373E-04
CGA:   7    -0.664008400817E+03   -0.34193E-02   -0.34191E-02   768   0.970E-02-0.354E-04
CGA:   8    -0.664010166283E+03   -0.17655E-02   -0.17654E-02   768   0.409E-02 0.519E-05
CGA:   9    -0.664010914950E+03   -0.74867E-03   -0.74872E-03   768   0.181E-02-0.347E-05
CGA:  10    -0.664011186255E+03   -0.27130E-03   -0.27134E-03   768   0.683E-03 0.175E-05
CGA:  11    -0.664011307048E+03   -0.12079E-03   -0.12079E-03   768   0.258E-03-0.108E-06
CGA:  12    -0.664011354881E+03   -0.47834E-04   -0.47820E-04   768   0.142E-03 0.118E-05
  46 F= -.67057920E+03 E0= -.67056773E+03  d E =-.872781E-02  mag=     0.9121
       N       E                     dE             d eps       ncg     rms          ort
SDA:   1    -0.663835882007E+03    0.17543E+00    0.00000E+00   768   0.504E+00 0.000E+00
CGA:   2    -0.663929024290E+03   -0.93142E-01   -0.93130E-01   768   0.289E+00 0.433E-03
CGA:   3    -0.663977331495E+03   -0.48307E-01   -0.48298E-01   768   0.159E+00-0.875E-03
CGA:   4    -0.664002807988E+03   -0.25476E-01   -0.25481E-01   768   0.486E-01 0.989E-04
CGA:   5    -0.664010742072E+03   -0.79341E-02   -0.79329E-02   768   0.199E-01-0.602E-04
CGA:   6    -0.664013993319E+03   -0.32512E-02   -0.32514E-02   768   0.103E-01 0.677E-05
CGA:   7    -0.664015762897E+03   -0.17696E-02   -0.17696E-02   768   0.488E-02-0.159E-04
CGA:   8    -0.664016668027E+03   -0.90513E-03   -0.90507E-03   768   0.212E-02 0.374E-05
CGA:   9    -0.664017045147E+03   -0.37712E-03   -0.37713E-03   768   0.954E-03-0.541E-06
CGA:  10    -0.664017188022E+03   -0.14287E-03   -0.14292E-03   768   0.357E-03 0.197E-05
CGA:  11    -0.664017252150E+03   -0.64128E-04   -0.64125E-04   768   0.138E-03 0.374E-06
  47 F= -.67058500E+03 E0= -.67057356E+03  d E =-.579979E-02  mag=     0.9008
       N       E                     dE             d eps       ncg     rms          ort
SDA:   1    -0.662394963169E+03    0.16222E+01    0.00000E+00   768   0.456E+01 0.000E+00
CGA:   2    -0.663229948658E+03   -0.83499E+00   -0.83465E+00   768   0.261E+01 0.119E-01
CGA:   3    -0.663665777231E+03   -0.43583E+00   -0.43558E+00   768   0.146E+01-0.249E-01
CGA:   4    -0.663895396202E+03   -0.22962E+00   -0.22976E+00   768   0.447E+00 0.239E-02
CGA:   5    -0.663967349969E+03   -0.71954E-01   -0.71921E-01   768   0.187E+00-0.162E-02
CGA:   6    -0.663997487958E+03   -0.30138E-01   -0.30144E-01   768   0.915E-01 0.262E-03
CGA:   7    -0.664013568884E+03   -0.16081E-01   -0.16084E-01   768   0.443E-01-0.431E-03
CGA:   8    -0.664021511776E+03   -0.79429E-02   -0.79421E-02   768   0.196E-01 0.561E-04
CGA:   9    -0.664024884533E+03   -0.33728E-02   -0.33728E-02   768   0.877E-02-0.333E-04
CGA:  10    -0.664026224639E+03   -0.13401E-02   -0.13403E-02   768   0.314E-02 0.779E-05
CGA:  11    -0.664026774789E+03   -0.55015E-03   -0.55016E-03   768   0.124E-02-0.117E-05
CGA:  12    -0.664026979579E+03   -0.20479E-03   -0.20479E-03   768   0.604E-03 0.210E-05
CGA:  13    -0.664027086346E+03   -0.10677E-03   -0.10676E-03   768   0.305E-03 0.464E-06
CGA:  14    -0.664027149502E+03   -0.63155E-04   -0.63107E-04   768   0.218E-03 0.169E-05
  48 F= -.67059462E+03 E0= -.67058316E+03  d E =-.154197E-01  mag=     0.8744
       N       E                     dE             d eps       ncg     rms          ort
SDA:   1    -0.663877283269E+03    0.14980E+00    0.00000E+00   768   0.419E+00 0.000E+00
CGA:   2    -0.663954654617E+03   -0.77371E-01   -0.77362E-01   768   0.242E+00 0.342E-03
CGA:   3    -0.663994543232E+03   -0.39889E-01   -0.39877E-01   768   0.133E+00-0.674E-03
CGA:   4    -0.664015680104E+03   -0.21137E-01   -0.21141E-01   768   0.424E-01 0.773E-04
CGA:   5    -0.664022245982E+03   -0.65659E-02   -0.65644E-02   768   0.182E-01-0.347E-04
CGA:   6    -0.664025095937E+03   -0.28500E-02   -0.28502E-02   768   0.857E-02 0.724E-05
CGA:   7    -0.664026638131E+03   -0.15422E-02   -0.15424E-02   768   0.419E-02-0.147E-04
CGA:   8    -0.664027398595E+03   -0.76046E-03   -0.76042E-03   768   0.200E-02 0.366E-05
CGA:   9    -0.664027725822E+03   -0.32723E-03   -0.32721E-03   768   0.902E-03-0.633E-06
CGA:  10    -0.664027867962E+03   -0.14214E-03   -0.14217E-03   768   0.320E-03 0.200E-05
CGA:  11    -0.664027925043E+03   -0.57082E-04   -0.57081E-04   768   0.146E-03 0.168E-06
  49 F= -.67059532E+03 E0= -.67058379E+03  d E =-.161215E-01  mag=     0.8654
       N       E                     dE             d eps       ncg     rms          ort
SDA:   1    -0.663779330762E+03    0.24854E+00    0.00000E+00   768   0.682E+00 0.000E+00
CGA:   2    -0.663919615806E+03   -0.14029E+00   -0.14023E+00   768   0.409E+00 0.904E-03
CGA:   3    -0.663985704331E+03   -0.66089E-01   -0.66065E-01   768   0.211E+00-0.113E-02
CGA:   4    -0.664017690970E+03   -0.31987E-01   -0.31998E-01   768   0.623E-01 0.127E-03
CGA:   5    -0.664027196646E+03   -0.95057E-02   -0.95032E-02   768   0.266E-01-0.572E-04
CGA:   6    -0.664031328979E+03   -0.41323E-02   -0.41326E-02   768   0.129E-01 0.759E-05
CGA:   7    -0.664033632434E+03   -0.23035E-02   -0.23038E-02   768   0.612E-02-0.254E-04
CGA:   8    -0.664034764691E+03   -0.11323E-02   -0.11321E-02   768   0.300E-02 0.678E-05
CGA:   9    -0.664035251551E+03   -0.48686E-03   -0.48684E-03   768   0.141E-02-0.832E-06
CGA:  10    -0.664035473250E+03   -0.22170E-03   -0.22174E-03   768   0.494E-03 0.324E-05
CGA:  11    -0.664035561651E+03   -0.88402E-04   -0.88399E-04   768   0.217E-03 0.362E-06
  50 F= -.67060277E+03 E0= -.67059104E+03  d E =-.744237E-02  mag=     0.8588
       N       E                     dE             d eps       ncg     rms          ort
SDA:   1    -0.663400408825E+03    0.63506E+00    0.00000E+00   768   0.171E+01 0.000E+00
CGA:   2    -0.663749819874E+03   -0.34941E+00   -0.34918E+00   768   0.103E+01 0.391E-02
CGA:   3    -0.663914332984E+03   -0.16451E+00   -0.16442E+00   768   0.537E+00-0.463E-02
CGA:   4    -0.663994582828E+03   -0.80250E-01   -0.80289E-01   768   0.161E+00 0.415E-03
CGA:   5    -0.664018663932E+03   -0.24081E-01   -0.24072E-01   768   0.687E-01-0.210E-03
CGA:   6    -0.664029310895E+03   -0.10647E-01   -0.10648E-01   768   0.320E-01 0.507E-04
CGA:   7    -0.664035145686E+03   -0.58348E-02   -0.58371E-02   768   0.157E-01-0.994E-04
CGA:   8    -0.664037930413E+03   -0.27847E-02   -0.27845E-02   768   0.789E-02 0.189E-04
CGA:   9    -0.664039190127E+03   -0.12597E-02   -0.12596E-02   768   0.354E-02-0.669E-05
CGA:  10    -0.664039765815E+03   -0.57569E-03   -0.57572E-03   768   0.128E-02 0.588E-05
CGA:  11    -0.664039982890E+03   -0.21707E-03   -0.21708E-03   768   0.575E-03 0.313E-07
CGA:  12    -0.664040070168E+03   -0.87278E-04   -0.87301E-04   768   0.245E-03 0.189E-05
  51 F= -.67060699E+03 E0= -.67059497E+03  d E =-.116659E-01  mag=     0.8499
       N       E                     dE             d eps       ncg     rms          ort
SDA:   1    -0.663664468598E+03    0.37551E+00    0.00000E+00   768   0.992E+00 0.000E+00
CGA:   2    -0.663873378854E+03   -0.20891E+00   -0.20880E+00   768   0.620E+00 0.149E-02
CGA:   3    -0.663972444838E+03   -0.99066E-01   -0.99021E-01   768   0.324E+00-0.223E-02
CGA:   4    -0.664019120847E+03   -0.46676E-01   -0.46686E-01   768   0.954E-01-0.661E-05
CGA:   5    -0.664033209120E+03   -0.14088E-01   -0.14084E-01   768   0.402E-01-0.886E-04
CGA:   6    -0.664039290366E+03   -0.60812E-02   -0.60821E-02   768   0.179E-01 0.256E-04
CGA:   7    -0.664042658702E+03   -0.33683E-02   -0.33698E-02   768   0.930E-02-0.444E-04
CGA:   8    -0.664044233897E+03   -0.15752E-02   -0.15752E-02   768   0.474E-02 0.715E-05
CGA:   9    -0.664044999728E+03   -0.76583E-03   -0.76578E-03   768   0.217E-02-0.308E-05
CGA:  10    -0.664045361541E+03   -0.36181E-03   -0.36182E-03   768   0.825E-03 0.374E-05
CGA:  11    -0.664045497961E+03   -0.13642E-03   -0.13642E-03   768   0.402E-03-0.456E-06
CGA:  12    -0.664045560879E+03   -0.62917E-04   -0.62927E-04   768   0.173E-03 0.123E-05
  52 F= -.67061257E+03 E0= -.67060018E+03  d E =-.557889E-02  mag=     0.8322
       N       E                     dE             d eps       ncg     rms          ort
SDA:   1    -0.664033691710E+03    0.11806E-01    0.00000E+00   768   0.316E-01 0.000E+00
CGA:   2    -0.664040270904E+03   -0.65792E-02   -0.65787E-02   768   0.201E-01 0.560E-05
CGA:   3    -0.664043359115E+03   -0.30882E-02   -0.30878E-02   768   0.107E-01-0.113E-04
CGA:   4    -0.664044881470E+03   -0.15224E-02   -0.15223E-02   768   0.327E-02-0.230E-05
CGA:   5    -0.664045353182E+03   -0.47171E-03   -0.47169E-03   768   0.125E-02 0.972E-07
CGA:   6    -0.664045549334E+03   -0.19615E-03   -0.19615E-03   768   0.594E-03 0.169E-06
CGA:   7    -0.664045662227E+03   -0.11289E-03   -0.11291E-03   768   0.346E-03-0.633E-06
CGA:   8    -0.664045718295E+03   -0.56068E-04   -0.56073E-04   768   0.181E-03 0.108E-05
  53 F= -.67061274E+03 E0= -.67060024E+03  d E =-.575196E-02  mag=     0.8271
       N       E                     dE             d eps       ncg     rms          ort
SDA:   1    -0.663669598948E+03    0.37606E+00    0.00000E+00   768   0.953E+00 0.000E+00
CGA:   2    -0.663903267581E+03   -0.23367E+00   -0.23356E+00   768   0.590E+00 0.112E-02
CGA:   3    -0.663995893647E+03   -0.92626E-01   -0.92604E-01   768   0.249E+00-0.801E-03
CGA:   4    -0.664031800261E+03   -0.35907E-01   -0.35923E-01   768   0.664E-01 0.130E-03
CGA:   5    -0.664042909610E+03   -0.11109E-01   -0.11109E-01   768   0.272E-01-0.100E-03
CGA:   6    -0.664046911618E+03   -0.40020E-02   -0.40021E-02   768   0.150E-01-0.248E-05
CGA:   7    -0.664049216731E+03   -0.23051E-02   -0.23045E-02   768   0.656E-02-0.209E-04
CGA:   8    -0.664050503060E+03   -0.12863E-02   -0.12860E-02   768   0.286E-02 0.860E-05
CGA:   9    -0.664051055799E+03   -0.55274E-03   -0.55283E-03   768   0.169E-02-0.237E-05
CGA:  10    -0.664051276157E+03   -0.22036E-03   -0.22047E-03   768   0.639E-03 0.326E-05
CGA:  11    -0.664051396246E+03   -0.12009E-03   -0.12008E-03   768   0.219E-03 0.351E-06
CGA:  12    -0.664051435023E+03   -0.38777E-04   -0.38768E-04   768   0.135E-03 0.121E-05
  54 F= -.67061863E+03 E0= -.67060619E+03  d E =-.588866E-02  mag=     0.8236
       N       E                     dE             d eps       ncg     rms          ort
SDA:   1    -0.664011785377E+03    0.39611E-01    0.00000E+00   768   0.999E-01 0.000E+00
CGA:   2    -0.664036270404E+03   -0.24485E-01   -0.24482E-01   768   0.624E-01 0.289E-04
CGA:   3    -0.664045922760E+03   -0.96524E-02   -0.96513E-02   768   0.265E-01-0.331E-04
CGA:   4    -0.664049754643E+03   -0.38319E-02   -0.38325E-02   768   0.711E-02 0.696E-05
CGA:   5    -0.664050904102E+03   -0.11495E-02   -0.11494E-02   768   0.289E-02-0.267E-05
CGA:   6    -0.664051318497E+03   -0.41440E-03   -0.41435E-03   768   0.160E-02-0.180E-05
CGA:   7    -0.664051574549E+03   -0.25605E-03   -0.25602E-03   768   0.686E-03-0.333E-05
CGA:   8    -0.664051712428E+03   -0.13788E-03   -0.13785E-03   768   0.322E-03 0.762E-06
CGA:   9    -0.664051771041E+03   -0.58613E-04   -0.58612E-04   768   0.198E-03 0.155E-06
  55 F= -.67061902E+03 E0= -.67060657E+03  d E =-.627455E-02  mag=     0.8216
       N       E                     dE             d eps       ncg     rms          ort
SDA:   1    -0.663902564903E+03    0.14915E+00    0.00000E+00   768   0.384E+00 0.000E+00
CGA:   2    -0.663997693838E+03   -0.95129E-01   -0.95126E-01   768   0.237E+00 0.170E-04
CGA:   3    -0.664034500274E+03   -0.36806E-01   -0.36808E-01   768   0.931E-01 0.782E-05
CGA:   4    -0.664048288337E+03   -0.13788E-01   -0.13787E-01   768   0.254E-01-0.190E-04
CGA:   5    -0.664052726230E+03   -0.44379E-02   -0.44378E-02   768   0.893E-02 0.990E-05
CGA:   6    -0.664054234607E+03   -0.15084E-02   -0.15083E-02   768   0.523E-02-0.112E-04
CGA:   7    -0.664054967871E+03   -0.73326E-03   -0.73318E-03   768   0.263E-02-0.196E-05
CGA:   8    -0.664055429419E+03   -0.46155E-03   -0.46159E-03   768   0.102E-02-0.460E-05
CGA:   9    -0.664055657041E+03   -0.22762E-03   -0.22752E-03   768   0.492E-03 0.164E-05
CGA:  10    -0.664055729158E+03   -0.72117E-04   -0.72107E-04   768   0.280E-03-0.295E-06
  56 F= -.67062319E+03 E0= -.67061066E+03  d E =-.417388E-02  mag=     0.8156
       N       E                     dE             d eps       ncg     rms          ort
SDA:   1    -0.663948070718E+03    0.10759E+00    0.00000E+00   768   0.272E+00 0.000E+00
CGA:   2    -0.664015625044E+03   -0.67554E-01   -0.67553E-01   768   0.167E+00 0.414E-05
CGA:   3    -0.664041794787E+03   -0.26170E-01   -0.26171E-01   768   0.650E-01 0.580E-05
CGA:   4    -0.664051498303E+03   -0.97035E-02   -0.97027E-02   768   0.180E-01-0.108E-04
CGA:   5    -0.664054537904E+03   -0.30396E-02   -0.30396E-02   768   0.650E-02 0.624E-05
CGA:   6    -0.664055617994E+03   -0.10801E-02   -0.10800E-02   768   0.380E-02-0.749E-05
CGA:   7    -0.664056148610E+03   -0.53062E-03   -0.53057E-03   768   0.189E-02-0.138E-05
CGA:   8    -0.664056486336E+03   -0.33773E-03   -0.33777E-03   768   0.729E-03-0.353E-05
CGA:   9    -0.664056648827E+03   -0.16249E-03   -0.16242E-03   768   0.373E-03 0.127E-05
CGA:  10    -0.664056701819E+03   -0.52992E-04   -0.52982E-04   768   0.206E-03-0.250E-06
  57 F= -.67062433E+03 E0= -.67061170E+03  d E =-.531266E-02  mag=     0.8095
       N       E                     dE             d eps       ncg     rms          ort
SDA:   1    -0.663922729169E+03    0.13392E+00    0.00000E+00   768   0.369E+00 0.000E+00
CGA:   2    -0.664002381051E+03   -0.79652E-01   -0.79650E-01   768   0.214E+00 0.156E-04
CGA:   3    -0.664037461412E+03   -0.35080E-01   -0.35080E-01   768   0.918E-01-0.320E-04
CGA:   4    -0.664051718286E+03   -0.14257E-01   -0.14256E-01   768   0.273E-01-0.297E-04
CGA:   5    -0.664056443206E+03   -0.47249E-02   -0.47249E-02   768   0.941E-02 0.478E-05
CGA:   6    -0.664058204988E+03   -0.17618E-02   -0.17621E-02   768   0.504E-02-0.151E-04
CGA:   7    -0.664058976305E+03   -0.77132E-03   -0.77137E-03   768   0.318E-02 0.525E-06
CGA:   8    -0.664059440900E+03   -0.46459E-03   -0.46443E-03   768   0.115E-02-0.401E-05
CGA:   9    -0.664059692120E+03   -0.25122E-03   -0.25113E-03   768   0.443E-03 0.163E-05
CGA:  10    -0.664059771943E+03   -0.79823E-04   -0.79827E-04   768   0.265E-03-0.422E-06
  58 F= -.67062763E+03 E0= -.67061493E+03  d E =-.329649E-02  mag=     0.8063
       N       E                     dE             d eps       ncg     rms          ort
SDA:   1    -0.663936117649E+03    0.12357E+00    0.00000E+00   768   0.335E+00 0.000E+00
CGA:   2    -0.664008467855E+03   -0.72350E-01   -0.72349E-01   768   0.195E+00 0.255E-05
CGA:   3    -0.664040306598E+03   -0.31839E-01   -0.31839E-01   768   0.834E-01-0.932E-05
CGA:   4    -0.664053238580E+03   -0.12932E-01   -0.12931E-01   768   0.249E-01-0.304E-04
CGA:   5    -0.664057499586E+03   -0.42610E-02   -0.42610E-02   768   0.889E-02 0.820E-05
CGA:   6    -0.664059066005E+03   -0.15664E-02   -0.15665E-02   768   0.513E-02-0.129E-04
CGA:   7    -0.664059792995E+03   -0.72699E-03   -0.72707E-03   768   0.284E-02 0.222E-06
CGA:   8    -0.664060263920E+03   -0.47093E-03   -0.47090E-03   768   0.103E-02-0.446E-05
CGA:   9    -0.664060491058E+03   -0.22714E-03   -0.22705E-03   768   0.454E-03 0.158E-05
CGA:  10    -0.664060560885E+03   -0.69827E-04   -0.69816E-04   768   0.267E-03-0.486E-06
  59 F= -.67062860E+03 E0= -.67061585E+03  d E =-.427458E-02  mag=     0.8033
       N       E                     dE             d eps       ncg     rms          ort
SDA:   1    -0.663942125667E+03    0.11837E+00    0.00000E+00   768   0.324E+00 0.000E+00
CGA:   2    -0.664015804746E+03   -0.73679E-01   -0.73679E-01   768   0.185E+00 0.294E-05
CGA:   3    -0.664044640682E+03   -0.28836E-01   -0.28842E-01   768   0.776E-01 0.146E-03
CGA:   4    -0.664056224477E+03   -0.11584E-01   -0.11581E-01   768   0.250E-01-0.329E-04
CGA:   5    -0.664059786950E+03   -0.35625E-02   -0.35633E-02   768   0.107E-01 0.834E-05
CGA:   6    -0.664061247998E+03   -0.14610E-02   -0.14608E-02   768   0.473E-02-0.602E-05
CGA:   7    -0.664062098212E+03   -0.85021E-03   -0.85017E-03   768   0.210E-02 0.488E-06
CGA:   8    -0.664062514734E+03   -0.41652E-03   -0.41671E-03   768   0.112E-02-0.553E-05
CGA:   9    -0.664062679617E+03   -0.16488E-03   -0.16491E-03   768   0.610E-03 0.101E-05
CGA:  10    -0.664062778139E+03   -0.98522E-04   -0.98518E-04   768   0.203E-03-0.466E-06
  60 F= -.67063094E+03 E0= -.67061828E+03  d E =-.233751E-02  mag=     0.8066
       N       E                     dE             d eps       ncg     rms          ort
SDA:   1    -0.664044497208E+03    0.18182E-01    0.00000E+00   768   0.498E-01 0.000E+00
CGA:   2    -0.664055720962E+03   -0.11224E-01   -0.11225E-01   768   0.289E-01-0.107E-04
CGA:   3    -0.664060093305E+03   -0.43723E-02   -0.43729E-02   768   0.127E-01 0.708E-05
CGA:   4    -0.664061898919E+03   -0.18056E-02   -0.18056E-02   768   0.435E-02 0.124E-05
CGA:   5    -0.664062467826E+03   -0.56891E-03   -0.56896E-03   768   0.173E-02 0.537E-06
CGA:   6    -0.664062735611E+03   -0.26779E-03   -0.26775E-03   768   0.704E-03-0.211E-05
CGA:   7    -0.664062870202E+03   -0.13459E-03   -0.13462E-03   768   0.368E-03-0.123E-05
CGA:   8    -0.664062931101E+03   -0.60899E-04   -0.60895E-04   768   0.212E-03-0.151E-05
  61 F= -.67063113E+03 E0= -.67061852E+03  d E =-.252854E-02  mag=     0.8082
       N       E                     dE             d eps       ncg     rms          ort
SDA:   1    -0.663970159229E+03    0.92711E-01    0.00000E+00   768   0.244E+00 0.000E+00
CGA:   2    -0.664036771116E+03   -0.66612E-01   -0.66619E-01   768   0.109E+00-0.678E-04
CGA:   3    -0.664055283115E+03   -0.18512E-01   -0.18512E-01   768   0.452E-01-0.252E-04
CGA:   4    -0.664061668720E+03   -0.63856E-02   -0.63862E-02   768   0.129E-01 0.585E-05
CGA:   5    -0.664063808368E+03   -0.21396E-02   -0.21396E-02   768   0.360E-02-0.284E-06
CGA:   6    -0.664064487357E+03   -0.67899E-03   -0.67896E-03   768   0.187E-02 0.694E-06
CGA:   7    -0.664064754469E+03   -0.26711E-03   -0.26705E-03   768   0.103E-02-0.198E-05
CGA:   8    -0.664064907273E+03   -0.15280E-03   -0.15281E-03   768   0.409E-03 0.113E-07
CGA:   9    -0.664065001287E+03   -0.94013E-04   -0.94057E-04   768   0.184E-03-0.681E-06
  62 F= -.67063345E+03 E0= -.67062080E+03  d E =-.232057E-02  mag=     0.8044
       N       E                     dE             d eps       ncg     rms          ort
SDA:   1    -0.663999860517E+03    0.65047E-01    0.00000E+00   768   0.169E+00 0.000E+00
CGA:   2    -0.664045907351E+03   -0.46047E-01   -0.46052E-01   768   0.756E-01-0.456E-04
CGA:   3    -0.664058682909E+03   -0.12776E-01   -0.12776E-01   768   0.320E-01 0.169E-05
CGA:   4    -0.664063273372E+03   -0.45905E-02   -0.45900E-02   768   0.844E-02-0.344E-06
CGA:   5    -0.664064665290E+03   -0.13919E-02   -0.13920E-02   768   0.293E-02 0.415E-05
CGA:   6    -0.664065097099E+03   -0.43181E-03   -0.43178E-03   768   0.164E-02-0.807E-06
CGA:   7    -0.664065329413E+03   -0.23231E-03   -0.23230E-03   768   0.663E-03-0.333E-06
CGA:   8    -0.664065456578E+03   -0.12717E-03   -0.12720E-03   768   0.281E-03-0.177E-05
CGA:   9    -0.664065517944E+03   -0.61365E-04   -0.61338E-04   768   0.185E-03 0.583E-06
  63 F= -.67063416E+03 E0= -.67062147E+03  d E =-.303214E-02  mag=     0.8009
       N       E                     dE             d eps       ncg     rms          ort
SDA:   1    -0.664039336556E+03    0.26120E-01    0.00000E+00   768   0.718E-01 0.000E+00
CGA:   2    -0.664059958461E+03   -0.20622E-01   -0.20624E-01   768   0.260E-01-0.180E-04
CGA:   3    -0.664064836944E+03   -0.48785E-02   -0.48785E-02   768   0.123E-01-0.368E-05
CGA:   4    -0.664066264694E+03   -0.14278E-02   -0.14274E-02   768   0.406E-02-0.507E-06
CGA:   5    -0.664066818818E+03   -0.55412E-03   -0.55418E-03   768   0.117E-02 0.126E-05
CGA:   6    -0.664066998729E+03   -0.17991E-03   -0.17992E-03   768   0.486E-03 0.479E-06
CGA:   7    -0.664067082752E+03   -0.84023E-04   -0.84022E-04   768   0.209E-03-0.681E-06
  64 F= -.67063588E+03 E0= -.67062310E+03  d E =-.171796E-02  mag=     0.7974
       N       E                     dE             d eps       ncg     rms          ort
SDA:   1    -0.664026352289E+03    0.40646E-01    0.00000E+00   768   0.106E+00 0.000E+00
CGA:   2    -0.664057036382E+03   -0.30684E-01   -0.30690E-01   768   0.378E-01-0.428E-04
CGA:   3    -0.664064518675E+03   -0.74823E-02   -0.74818E-02   768   0.149E-01 0.142E-04
CGA:   4    -0.664066509687E+03   -0.19910E-02   -0.19913E-02   768   0.633E-02 0.514E-05
CGA:   5    -0.664067257307E+03   -0.74762E-03   -0.74751E-03   768   0.165E-02 0.197E-05
CGA:   6    -0.664067535615E+03   -0.27831E-03   -0.27830E-03   768   0.688E-03-0.744E-06
CGA:   7    -0.664067659936E+03   -0.12432E-03   -0.12432E-03   768   0.298E-03-0.184E-06
CGA:   8    -0.664067705091E+03   -0.45156E-04   -0.45144E-04   768   0.193E-03-0.518E-06
  65 F= -.67063669E+03 E0= -.67062380E+03  d E =-.252283E-02  mag=     0.7940
       N       E                     dE             d eps       ncg     rms          ort
SDA:   1    -0.664048726803E+03    0.18933E-01    0.00000E+00   768   0.536E-01 0.000E+00
CGA:   2    -0.664063683148E+03   -0.14956E-01   -0.14956E-01   768   0.208E-01 0.580E-05
CGA:   3    -0.664066838823E+03   -0.31557E-02   -0.31555E-02   768   0.122E-01-0.487E-05
CGA:   4    -0.664068243308E+03   -0.14045E-02   -0.14053E-02   768   0.299E-02 0.218E-05
CGA:   5    -0.664068705345E+03   -0.46204E-03   -0.46206E-03   768   0.845E-03 0.120E-05
CGA:   6    -0.664068838093E+03   -0.13275E-03   -0.13272E-03   768   0.342E-03-0.164E-05
CGA:   7    -0.664068891787E+03   -0.53694E-04   -0.53679E-04   768   0.171E-03-0.982E-06
  66 F= -.67063796E+03 E0= -.67062508E+03  d E =-.126980E-02  mag=     0.7954
       N       E                     dE             d eps       ncg     rms          ort
SDA:   1    -0.663989888512E+03    0.78950E-01    0.00000E+00   768   0.210E+00 0.000E+00
CGA:   2    -0.664049729602E+03   -0.59841E-01   -0.59830E-01   768   0.724E-01 0.941E-04
[...]
CGA:   7    -0.664069605499E+03   -0.20292E-03   -0.20292E-03   768   0.553E-03-0.208E-05
CGA:   8    -0.664069679053E+03   -0.73554E-04   -0.73508E-04   768   0.261E-03-0.141E-05
  67 F= -.67063891E+03 E0= -.67062607E+03  d E =-.221882E-02  mag=     0.7990
       N       E                     dE             d eps       ncg     rms          ort
SDA:   1    -0.664054518043E+03    0.15087E-01    0.00000E+00   768   0.435E-01 0.000E+00
CGA:   2    -0.664066599568E+03   -0.12082E-01   -0.12082E-01   768   0.154E-01-0.707E-05
CGA:   3    -0.664069224097E+03   -0.26245E-02   -0.26245E-02   768   0.907E-02-0.400E-05
CGA:   4    -0.664070192489E+03   -0.96839E-03   -0.96920E-03   768   0.229E-02-0.184E-06
CGA:   5    -0.664070570542E+03   -0.37805E-03   -0.37806E-03   768   0.610E-03 0.146E-05
CGA:   6    -0.664070663612E+03   -0.93070E-04   -0.93064E-04   768   0.285E-03-0.333E-06
  68 F= -.67064004E+03 E0= -.67062719E+03  d E =-.113107E-02  mag=     0.7990
       N       E                     dE             d eps       ncg     rms          ort
SDA:   1    -0.663926425253E+03    0.14415E+00    0.00000E+00   768   0.389E+00 0.000E+00
CGA:   2    -0.664036001813E+03   -0.10958E+00   -0.10960E+00   768   0.130E+00-0.193E-03
CGA:   3    -0.664060137319E+03   -0.24136E-01   -0.24134E-01   768   0.695E-01 0.821E-04
CGA:   4    -0.664067840721E+03   -0.77034E-02   -0.77152E-02   768   0.210E-01-0.685E-05
CGA:   5    -0.664070762159E+03   -0.29214E-02   -0.29213E-02   768   0.540E-02 0.300E-05
CGA:   6    -0.664071603094E+03   -0.84093E-03   -0.84091E-03   768   0.215E-02-0.142E-05
CGA:   7    -0.664071968847E+03   -0.36575E-03   -0.36575E-03   768   0.921E-03-0.450E-06
CGA:   8    -0.664072090185E+03   -0.12134E-03   -0.12130E-03   768   0.437E-03-0.123E-05
CGA:   9    -0.664072178308E+03   -0.88123E-04   -0.88093E-04   768   0.209E-03 0.899E-06
  69 F= -.67064198E+03 E0= -.67062910E+03  d E =-.307838E-02  mag=     0.7980
       N       E                     dE             d eps       ncg     rms          ort
SDA:   1    -0.664051416088E+03    0.20674E-01    0.00000E+00   768   0.558E-01 0.000E+00
CGA:   2    -0.664067065137E+03   -0.15649E-01   -0.15650E-01   768   0.183E-01-0.881E-05
CGA:   3    -0.664070657950E+03   -0.35928E-02   -0.35929E-02   768   0.869E-02-0.116E-05
CGA:   4    -0.664071694974E+03   -0.10370E-02   -0.10372E-02   768   0.256E-02 0.361E-07
CGA:   5    -0.664072052775E+03   -0.35780E-03   -0.35784E-03   768   0.906E-03 0.730E-06
CGA:   6    -0.664072170698E+03   -0.11792E-03   -0.11792E-03   768   0.329E-03 0.396E-07
CGA:   7    -0.664072234266E+03   -0.63568E-04   -0.63591E-04   768   0.126E-03-0.104E-05
  70 F= -.67064220E+03 E0= -.67062928E+03  d E =-.329522E-02  mag=     0.7964
       N       E                     dE             d eps       ncg     rms          ort
SDA:   1    -0.664042946263E+03    0.29224E-01    0.00000E+00   768   0.839E-01 0.000E+00
CGA:   2    -0.664065161070E+03   -0.22215E-01   -0.22217E-01   768   0.338E-01-0.171E-04
CGA:   3    -0.664070154098E+03   -0.49930E-02   -0.49929E-02   768   0.187E-01-0.331E-05
CGA:   4    -0.664072401264E+03   -0.22472E-02   -0.22488E-02   768   0.525E-02 0.501E-05
CGA:   5    -0.664073185148E+03   -0.78388E-03   -0.78393E-03   768   0.138E-02 0.165E-05
CGA:   6    -0.664073407798E+03   -0.22265E-03   -0.22264E-03   768   0.563E-03-0.156E-05
CGA:   7    -0.664073496593E+03   -0.88794E-04   -0.88789E-04   768   0.289E-03-0.428E-06
  71 F= -.67064364E+03 E0= -.67063068E+03  d E =-.143928E-02  mag=     0.7964
       N       E                     dE             d eps       ncg     rms          ort
SDA:   1    -0.663799477940E+03    0.27393E+00    0.00000E+00   768   0.754E+00 0.000E+00
CGA:   2    -0.664000990707E+03   -0.20151E+00   -0.20155E+00   768   0.283E+00-0.346E-03
CGA:   3    -0.664048059862E+03   -0.47069E-01   -0.47073E-01   768   0.143E+00 0.302E-03
CGA:   4    -0.664065635323E+03   -0.17575E-01   -0.17590E-01   768   0.464E-01 0.577E-04
CGA:   5    -0.664071682964E+03   -0.60476E-02   -0.60472E-02   768   0.132E-01 0.382E-05
CGA:   6    -0.664073680388E+03   -0.19974E-02   -0.19973E-02   768   0.467E-02-0.670E-05
CGA:   7    -0.664074510923E+03   -0.83053E-03   -0.83054E-03   768   0.220E-02-0.328E-06
CGA:   8    -0.664074811265E+03   -0.30034E-03   -0.30031E-03   768   0.105E-02-0.165E-05
CGA:   9    -0.664075004112E+03   -0.19285E-03   -0.19281E-03   768   0.496E-03 0.178E-05
CGA:  10    -0.664075103977E+03   -0.99865E-04   -0.99880E-04   768   0.311E-03-0.442E-06
  72 F= -.67064577E+03 E0= -.67063267E+03  d E =-.356579E-02  mag=     0.7955
       N       E                     dE             d eps       ncg     rms          ort
SDA:   1    -0.664008990655E+03    0.66013E-01    0.00000E+00   768   0.186E+00 0.000E+00
CGA:   2    -0.664058453997E+03   -0.49463E-01   -0.49458E-01   768   0.768E-01 0.473E-04
CGA:   3    -0.664069112974E+03   -0.10659E-01   -0.10658E-01   768   0.428E-01-0.814E-05
CGA:   4    -0.664074480028E+03   -0.53671E-02   -0.53713E-02   768   0.108E-01 0.182E-04
CGA:   5    -0.664076025257E+03   -0.15452E-02   -0.15453E-02   768   0.306E-02 0.238E-05
CGA:   6    -0.664076519063E+03   -0.49381E-03   -0.49379E-03   768   0.113E-02-0.338E-05
CGA:   7    -0.664076692680E+03   -0.17362E-03   -0.17359E-03   768   0.608E-03-0.161E-05
CGA:   8    -0.664076776992E+03   -0.84312E-04   -0.84263E-04   768   0.213E-03-0.190E-05
  73 F= -.67064760E+03 E0= -.67063454E+03  d E =-.183055E-02  mag=     0.7991
       N       E                     dE             d eps       ncg     rms          ort
SDA:   1    -0.663977282359E+03    0.99410E-01    0.00000E+00   768   0.273E+00 0.000E+00
CGA:   2    -0.664050354570E+03   -0.73072E-01   -0.73062E-01   768   0.110E+00 0.966E-04
CGA:   3    -0.664066205889E+03   -0.15851E-01   -0.15850E-01   768   0.626E-01-0.150E-04
CGA:   4    -0.664073717541E+03   -0.75117E-02   -0.75207E-02   768   0.156E-01 0.205E-04
CGA:   5    -0.664076121948E+03   -0.24044E-02   -0.24045E-02   768   0.435E-02 0.345E-05
CGA:   6    -0.664076790253E+03   -0.66830E-03   -0.66824E-03   768   0.173E-02-0.416E-05
CGA:   7    -0.664077064440E+03   -0.27419E-03   -0.27417E-03   768   0.853E-03-0.220E-05
CGA:   8    -0.664077179959E+03   -0.11552E-03   -0.11546E-03   768   0.334E-03-0.213E-05
CGA:   9    -0.664077251718E+03   -0.71759E-04   -0.71746E-04   768   0.181E-03 0.239E-06
  74 F= -.67064826E+03 E0= -.67063529E+03  d E =-.249444E-02  mag=     0.8056
       N       E                     dE             d eps       ncg     rms          ort
SDA:   1    -0.664052547365E+03    0.24633E-01    0.00000E+00   768   0.699E-01 0.000E+00
CGA:   2    -0.664071695066E+03   -0.19148E-01   -0.19148E-01   768   0.234E-01-0.538E-05
CGA:   3    -0.664076148757E+03   -0.44537E-02   -0.44535E-02   768   0.106E-01 0.700E-05
CGA:   4    -0.664077470725E+03   -0.13220E-02   -0.13219E-02   768   0.306E-02 0.182E-05
CGA:   5    -0.664077907242E+03   -0.43652E-03   -0.43650E-03   768   0.106E-02-0.175E-06
CGA:   6    -0.664078039473E+03   -0.13223E-03   -0.13219E-03   768   0.416E-03-0.115E-05
CGA:   7    -0.664078114109E+03   -0.74637E-04   -0.74645E-04   768   0.139E-03-0.686E-06
  75 F= -.67064925E+03 E0= -.67063629E+03  d E =-.984538E-03  mag=     0.8064
       N       E                     dE             d eps       ncg     rms          ort
SDA:   1    -0.663849589913E+03    0.22845E+00    0.00000E+00   768   0.627E+00 0.000E+00
CGA:   2    -0.664021503621E+03   -0.17191E+00   -0.17193E+00   768   0.219E+00-0.177E-03
CGA:   3    -0.664059584263E+03   -0.38081E-01   -0.38081E-01   768   0.118E+00 0.876E-04
CGA:   4    -0.664072659937E+03   -0.13076E-01   -0.13110E-01   768   0.344E-01-0.242E-04
CGA:   5    -0.664077558312E+03   -0.48984E-02   -0.48982E-02   768   0.850E-02 0.122E-05
CGA:   6    -0.664078931490E+03   -0.13732E-02   -0.13731E-02   768   0.333E-02-0.457E-05
CGA:   7    -0.664079468716E+03   -0.53723E-03   -0.53721E-03   768   0.152E-02-0.181E-05
CGA:   8    -0.664079667938E+03   -0.19922E-03   -0.19918E-03   768   0.628E-03-0.194E-05
CGA:   9    -0.664079795878E+03   -0.12794E-03   -0.12791E-03   768   0.307E-03 0.919E-06
CGA:  10    -0.664079854085E+03   -0.58207E-04   -0.58215E-04   768   0.216E-03-0.412E-06
  76 F= -.67065135E+03 E0= -.67063836E+03  d E =-.308487E-02  mag=     0.8063
       N       E                     dE             d eps       ncg     rms          ort
SDA:   1    -0.663157307245E+03    0.92249E+00    0.00000E+00   768   0.252E+01 0.000E+00
CGA:   2    -0.663842547198E+03   -0.68524E+00   -0.68544E+00   768   0.927E+00-0.149E-02
CGA:   3    -0.663988638982E+03   -0.14609E+00   -0.14608E+00   768   0.544E+00-0.327E-03
CGA:   4    -0.664049727563E+03   -0.61089E-01   -0.61400E-01   768   0.137E+00-0.106E-03
CGA:   5    -0.664070051981E+03   -0.20324E-01   -0.20325E-01   768   0.355E-01 0.220E-04
CGA:   6    -0.664075761635E+03   -0.57097E-02   -0.57095E-02   768   0.133E-01-0.179E-04
CGA:   7    -0.664077875349E+03   -0.21137E-02   -0.21136E-02   768   0.654E-02-0.501E-05
CGA:   8    -0.664078710632E+03   -0.83528E-03   -0.83540E-03   768   0.233E-02-0.298E-05
CGA:   9    -0.664079212373E+03   -0.50174E-03   -0.50161E-03   768   0.117E-02 0.270E-05
CGA:  10    -0.664079423741E+03   -0.21137E-03   -0.21137E-03   768   0.847E-03-0.372E-06
CGA:  11    -0.664079548732E+03   -0.12499E-03   -0.12503E-03   768   0.336E-03 0.185E-05
CGA:  12    -0.664079622712E+03   -0.73980E-04   -0.74034E-04   768   0.171E-03-0.106E-05
  77 F= -.67065181E+03 E0= -.67063877E+03  d E =-.355015E-02  mag=     0.8057
       N       E                     dE             d eps       ncg     rms          ort
SDA:   1    -0.663921825160E+03    0.15772E+00    0.00000E+00   768   0.432E+00 0.000E+00
CGA:   2    -0.664040313987E+03   -0.11849E+00   -0.11848E+00   768   0.150E+00 0.929E-04
CGA:   3    -0.664066600366E+03   -0.26286E-01   -0.26287E-01   768   0.806E-01-0.491E-04
CGA:   4    -0.664075713374E+03   -0.91130E-02   -0.90994E-02   768   0.225E-01 0.146E-05
CGA:   5    -0.664078829556E+03   -0.31162E-02   -0.31165E-02   768   0.629E-02 0.214E-05
CGA:   6    -0.664079773470E+03   -0.94391E-03   -0.94401E-03   768   0.215E-02 0.459E-05
CGA:   7    -0.664080135842E+03   -0.36237E-03   -0.36237E-03   768   0.981E-03 0.236E-05
CGA:   8    -0.664080260740E+03   -0.12490E-03   -0.12497E-03   768   0.379E-03 0.199E-05
CGA:   9    -0.664080336824E+03   -0.76084E-04   -0.76096E-04   768   0.186E-03-0.353E-06
  78 F= -.67065224E+03 E0= -.67063923E+03  d E =-.397933E-02  mag=     0.8064
       N       E                     dE             d eps       ncg     rms          ort
SDA:   1    -0.663992512516E+03    0.87748E-01    0.00000E+00   768   0.248E+00 0.000E+00
CGA:   2    -0.664056463758E+03   -0.63951E-01   -0.63966E-01   768   0.112E+00-0.146E-03
CGA:   3    -0.664071901376E+03   -0.15438E-01   -0.15434E-01   768   0.578E-01-0.247E-04
CGA:   4    -0.664079145588E+03   -0.72442E-02   -0.72508E-02   768   0.163E-01 0.229E-04
CGA:   5    -0.664081509113E+03   -0.23635E-02   -0.23637E-02   768   0.425E-02 0.246E-05
CGA:   6    -0.664082181093E+03   -0.67198E-03   -0.67195E-03   768   0.162E-02-0.209E-05
CGA:   7    -0.664082435789E+03   -0.25470E-03   -0.25468E-03   768   0.843E-03-0.112E-05
CGA:   8    -0.664082552354E+03   -0.11656E-03   -0.11650E-03   768   0.306E-03-0.231E-05
CGA:   9    -0.664082615490E+03   -0.63136E-04   -0.63139E-04   768   0.160E-03-0.936E-07
  79 F= -.67065483E+03 E0= -.67064176E+03  d E =-.259235E-02  mag=     0.8039
       N       E                     dE             d eps       ncg     rms          ort
SDA:   1    -0.663889123910E+03    0.19343E+00    0.00000E+00   768   0.535E+00 0.000E+00
CGA:   2    -0.664028191157E+03   -0.13907E+00   -0.13911E+00   768   0.224E+00-0.432E-03
CGA:   3    -0.664062499807E+03   -0.34309E-01   -0.34314E-01   768   0.113E+00 0.108E-03
CGA:   4    -0.664076479781E+03   -0.13980E-01   -0.13991E-01   768   0.341E-01 0.388E-04
CGA:   5    -0.664081089447E+03   -0.46097E-02   -0.46095E-02   768   0.104E-01 0.874E-07
CGA:   6    -0.664082647397E+03   -0.15579E-02   -0.15578E-02   768   0.363E-02-0.496E-05
CGA:   7    -0.664083298725E+03   -0.65133E-03   -0.65135E-03   768   0.187E-02-0.171E-05
CGA:   8    -0.664083553128E+03   -0.25440E-03   -0.25431E-03   768   0.833E-03-0.321E-05
CGA:   9    -0.664083709188E+03   -0.15606E-03   -0.15606E-03   768   0.405E-03 0.702E-07
CGA:  10    -0.664083787731E+03   -0.78543E-04   -0.78576E-04   768   0.251E-03-0.115E-05
  80 F= -.67065645E+03 E0= -.67064323E+03  d E =-.421047E-02  mag=     0.7975
       N       E                     dE             d eps       ncg     rms          ort
SDA:   1    -0.663948353313E+03    0.13536E+00    0.00000E+00   768   0.373E+00 0.000E+00
CGA:   2    -0.664048550437E+03   -0.10020E+00   -0.10018E+00   768   0.179E+00 0.177E-03
CGA:   3    -0.664069798343E+03   -0.21248E-01   -0.21198E-01   768   0.891E-01-0.440E-04
CGA:   4    -0.664082142649E+03   -0.12344E-01   -0.12350E-01   768   0.197E-01 0.580E-04
CGA:   5    -0.664085292217E+03   -0.31496E-02   -0.31496E-02   768   0.556E-02 0.124E-05
CGA:   6    -0.664086155866E+03   -0.86365E-03   -0.86359E-03   768   0.232E-02-0.485E-05
CGA:   7    -0.664086482436E+03   -0.32657E-03   -0.32646E-03   768   0.112E-02-0.335E-05
CGA:   8    -0.664086648701E+03   -0.16626E-03   -0.16620E-03   768   0.363E-03-0.393E-05
CGA:   9    -0.664086730216E+03   -0.81515E-04   -0.81522E-04   768   0.242E-03-0.110E-06
  81 F= -.67065965E+03 E0= -.67064644E+03  d E =-.320255E-02  mag=     0.8006
       N       E                     dE             d eps       ncg     rms          ort
SDA:   1    -0.663870998807E+03    0.21565E+00    0.00000E+00   768   0.583E+00 0.000E+00
CGA:   2    -0.664029730210E+03   -0.15873E+00   -0.15870E+00   768   0.253E+00 0.317E-03
CGA:   3    -0.664062996762E+03   -0.33267E-01   -0.33220E-01   768   0.139E+00-0.208E-03
CGA:   4    -0.664080491158E+03   -0.17494E-01   -0.17515E-01   768   0.312E-01 0.823E-04
CGA:   5    -0.664085471167E+03   -0.49800E-02   -0.49801E-02   768   0.862E-02 0.197E-05
CGA:   6    -0.664086807799E+03   -0.13366E-02   -0.13365E-02   768   0.350E-02-0.716E-05
CGA:   7    -0.664087335408E+03   -0.52761E-03   -0.52751E-03   768   0.175E-02-0.491E-05
CGA:   8    -0.664087574084E+03   -0.23868E-03   -0.23856E-03   768   0.600E-03-0.446E-05
CGA:   9    -0.664087709835E+03   -0.13575E-03   -0.13576E-03   768   0.353E-03-0.178E-06
CGA:  10    -0.664087766059E+03   -0.56224E-04   -0.56219E-04   768   0.231E-03-0.800E-06
  82 F= -.67066100E+03 E0= -.67064779E+03  d E =-.454837E-02  mag=     0.8047
       N       E                     dE             d eps       ncg     rms          ort
SDA:   1    -0.663898462814E+03    0.18925E+00    0.00000E+00   768   0.508E+00 0.000E+00
CGA:   2    -0.664041452583E+03   -0.14299E+00   -0.14299E+00   768   0.217E+00 0.209E-04
CGA:   3    -0.664069313770E+03   -0.27861E-01   -0.27787E-01   768   0.123E+00-0.265E-03
CGA:   4    -0.664084801940E+03   -0.15488E-01   -0.15506E-01   768   0.233E-01 0.784E-04
CGA:   5    -0.664088891193E+03   -0.40893E-02   -0.40893E-02   768   0.570E-02-0.242E-05
CGA:   6    -0.664089842570E+03   -0.95138E-03   -0.95137E-03   768   0.278E-02-0.385E-05
CGA:   7    -0.664090211821E+03   -0.36925E-03   -0.36910E-03   768   0.114E-02-0.245E-05
CGA:   8    -0.664090377508E+03   -0.16569E-03   -0.16563E-03   768   0.393E-03-0.256E-05
CGA:   9    -0.664090469796E+03   -0.92288E-04   -0.92212E-04   768   0.232E-03 0.112E-05
  83 F= -.67066394E+03 E0= -.67065066E+03  d E =-.293741E-02  mag=     0.8058
       N       E                     dE             d eps       ncg     rms          ort
SDA:   1    -0.663151547668E+03    0.93883E+00    0.00000E+00   768   0.249E+01 0.000E+00
CGA:   2    -0.663854943920E+03   -0.70340E+00   -0.70347E+00   768   0.101E+01-0.111E-03
CGA:   3    -0.663993150151E+03   -0.13821E+00   -0.13765E+00   768   0.598E+00-0.361E-02
CGA:   4    -0.664063545261E+03   -0.70395E-01   -0.70650E-01   768   0.117E+00 0.351E-03
CGA:   5    -0.664084148575E+03   -0.20603E-01   -0.20604E-01   768   0.269E-01-0.288E-04
CGA:   6    -0.664088752981E+03   -0.46044E-02   -0.46044E-02   768   0.135E-01-0.147E-04
CGA:   7    -0.664090547244E+03   -0.17943E-02   -0.17933E-02   768   0.535E-02-0.827E-05
CGA:   8    -0.664091300532E+03   -0.75329E-03   -0.75322E-03   768   0.199E-02-0.422E-05
CGA:   9    -0.664091753129E+03   -0.45260E-03   -0.45243E-03   768   0.105E-02 0.298E-05
CGA:  10    -0.664091916983E+03   -0.16385E-03   -0.16386E-03   768   0.741E-03-0.137E-06
CGA:  11    -0.664092043149E+03   -0.12617E-03   -0.12616E-03   768   0.275E-03 0.149E-05
CGA:  12    -0.664092101657E+03   -0.58508E-04   -0.58581E-04   768   0.165E-03-0.169E-05
  84 F= -.67066606E+03 E0= -.67065256E+03  d E =-.506041E-02  mag=     0.8042
       N       E                     dE             d eps       ncg     rms          ort
SDA:   1    -0.663739879306E+03    0.35216E+00    0.00000E+00   768   0.940E+00 0.000E+00
CGA:   2    -0.664001758025E+03   -0.26188E+00   -0.26199E+00   768   0.414E+00-0.813E-03
CGA:   3    -0.664055532474E+03   -0.53774E-01   -0.53613E-01   768   0.227E+00-0.598E-03
CGA:   4    -0.664083321764E+03   -0.27789E-01   -0.27842E-01   768   0.476E-01 0.150E-03
CGA:   5    -0.664091474742E+03   -0.81530E-02   -0.81530E-02   768   0.113E-01-0.740E-06
CGA:   6    -0.664093316732E+03   -0.18420E-02   -0.18419E-02   768   0.546E-02-0.819E-05
CGA:   7    -0.664094064679E+03   -0.74795E-03   -0.74771E-03   768   0.229E-02-0.292E-05
CGA:   8    -0.664094388345E+03   -0.32367E-03   -0.32362E-03   768   0.790E-03-0.191E-05
CGA:   9    -0.664094566075E+03   -0.17773E-03   -0.17761E-03   768   0.450E-03 0.207E-05
CGA:  10    -0.664094633927E+03   -0.67852E-04   -0.67844E-04   768   0.289E-03-0.495E-06
  85 F= -.67066890E+03 E0= -.67065530E+03  d E =-.283932E-02  mag=     0.7981
       N       E                     dE             d eps       ncg     rms          ort
SDA:   1    -0.663970354695E+03    0.12421E+00    0.00000E+00   768   0.331E+00 0.000E+00
CGA:   2    -0.664061996091E+03   -0.91641E-01   -0.91665E-01   768   0.150E+00-0.178E-03
CGA:   3    -0.664080856661E+03   -0.18861E-01   -0.18825E-01   768   0.802E-01-0.872E-04
CGA:   4    -0.664091005459E+03   -0.10149E-01   -0.10158E-01   768   0.169E-01 0.459E-04
CGA:   5    -0.664093788916E+03   -0.27835E-02   -0.27835E-02   768   0.446E-02 0.839E-06
CGA:   6    -0.664094505311E+03   -0.71639E-03   -0.71636E-03   768   0.197E-02-0.419E-05
CGA:   7    -0.664094778365E+03   -0.27305E-03   -0.27299E-03   768   0.928E-03-0.118E-05
CGA:   8    -0.664094911312E+03   -0.13295E-03   -0.13291E-03   768   0.295E-03-0.137E-05
CGA:   9    -0.664094980194E+03   -0.68882E-04   -0.68798E-04   768   0.188E-03 0.126E-05
  86 F= -.67066942E+03 E0= -.67065576E+03  d E =-.336460E-02  mag=     0.7942
       N       E                     dE             d eps       ncg     rms          ort
SDA:   1    -0.663715198966E+03    0.37971E+00    0.00000E+00   768   0.102E+01 0.000E+00
CGA:   2    -0.663995151183E+03   -0.27995E+00   -0.27988E+00   768   0.480E+00 0.743E-03
CGA:   3    -0.664053471456E+03   -0.58320E-01   -0.58102E-01   768   0.247E+00-0.259E-03
CGA:   4    -0.664085753835E+03   -0.32282E-01   -0.32315E-01   768   0.522E-01 0.197E-03
CGA:   5    -0.664094455318E+03   -0.87015E-02   -0.87015E-02   768   0.146E-01 0.293E-05
CGA:   6    -0.664096637593E+03   -0.21823E-02   -0.21820E-02   768   0.631E-02-0.135E-04
CGA:   7    -0.664097531387E+03   -0.89379E-03   -0.89353E-03   768   0.289E-02-0.593E-05
CGA:   8    -0.664097946381E+03   -0.41499E-03   -0.41492E-03   768   0.965E-03-0.338E-05
CGA:   9    -0.664098161971E+03   -0.21559E-03   -0.21547E-03   768   0.619E-03 0.214E-05
CGA:  10    -0.664098250817E+03   -0.88846E-04   -0.88836E-04   768   0.350E-03-0.533E-06
  87 F= -.67067294E+03 E0= -.67065939E+03  d E =-.351436E-02  mag=     0.7984
