       N       E                     dE             d eps       ncg     rms          rms(c)
DAV:   1     0.278234140974E+04    0.27823E+04   -0.10885E+05  3912   0.121E+03
DAV:   2    -0.237848504778E+02   -0.28061E+04   -0.26946E+04  4632   0.327E+02
DAV:   3    -0.487915333488E+03   -0.46413E+03   -0.45993E+03  4000   0.152E+02
DAV:   4    -0.503962198410E+03   -0.16047E+02   -0.15694E+02  4080   0.403E+01
DAV:   5    -0.504568019869E+03   -0.60582E+00   -0.60012E+00  4592   0.614E+00    0.508E+01
DAV:   6    -0.463999265487E+03    0.40569E+02   -0.52667E+01  4528   0.340E+01    0.336E+01
DAV:   7    -0.450202164888E+03    0.13797E+02   -0.71511E+01  4096   0.253E+01    0.191E+01
DAV:   8    -0.448198386286E+03    0.20038E+01   -0.13297E+01  4024   0.142E+01    0.137E+01
DAV:   9    -0.448487916729E+03   -0.28953E+00   -0.10311E+01  5184   0.154E+01    0.692E+00
DAV:  10    -0.447739665972E+03    0.74825E+00   -0.65832E+00  4968   0.108E+01    0.336E+00
DAV:  11    -0.447658148807E+03    0.81517E-01   -0.11590E+00  4920   0.454E+00    0.180E+00
DAV:  12    -0.447618551323E+03    0.39597E-01   -0.55985E-01  4416   0.249E+00    0.119E+00
DAV:  13    -0.447594841841E+03    0.23709E-01   -0.24823E-01  3960   0.161E+00    0.500E-01
DAV:  14    -0.447595093255E+03   -0.25141E-03   -0.51611E-02  3848   0.770E-01    0.311E-01
DAV:  15    -0.447594598339E+03    0.49492E-03   -0.72913E-03  4880   0.377E-01    0.207E-01
DAV:  16    -0.447594600280E+03   -0.19415E-05   -0.15136E-03  4152   0.127E-01    0.118E-01
DAV:  17    -0.447594631287E+03   -0.31007E-04   -0.24799E-04  2464   0.716E-02
   1 F= -.45178882E+03 E0= -.45178882E+03  d E =0.000000E+00  mag=    -0.0000
