       N       E                     dE             d eps       ncg     rms          ort
DAV:   1     0.255835238924E+04    0.25584E+04   -0.11638E+05   768   0.110E+03
DAV:   2    -0.235634129405E+03   -0.27940E+04   -0.26690E+04   768   0.280E+02
DAV:   3    -0.702250861486E+03   -0.46662E+03   -0.46333E+03   768   0.121E+02
DAV:   4    -0.719186667986E+03   -0.16936E+02   -0.16794E+02   768   0.283E+01
DAV:   5    -0.719740107172E+03   -0.55344E+00   -0.55175E+00   768   0.428E+00
SDA:   6    -0.549417962136E+03    0.17032E+03   -0.55175E+00   768   0.501E+03 0.000E+00
CGA:   7    -0.602359198841E+03   -0.52941E+02   -0.25620E+02   768   0.338E+03 0.473E+03
CGA:   8    -0.637843197988E+03   -0.35484E+02   -0.15494E+02   768   0.164E+03 0.301E+03
CGA:   9    -0.651037962170E+03   -0.13195E+02   -0.89475E+01   768   0.370E+02 0.369E+02
CGA:  10    -0.658500223826E+03   -0.74623E+01   -0.74445E+01   768   0.233E+02-0.466E+00
CGA:  11    -0.660289223070E+03   -0.17890E+01   -0.16734E+01   768   0.589E+01 0.150E+01
CGA:  12    -0.661126735734E+03   -0.83751E+00   -0.83693E+00   768   0.646E+01-0.201E-01
CGA:  13    -0.661716972720E+03   -0.59024E+00   -0.43896E+00   768   0.226E+01 0.193E+01
CGA:  14    -0.661872188407E+03   -0.15522E+00   -0.13931E+00   768   0.108E+01 0.204E+00
CGA:  15    -0.661992515945E+03   -0.12033E+00   -0.11855E+00   768   0.194E+01 0.506E-02
CGA:  16    -0.662080419414E+03   -0.87903E-01   -0.57782E-01   768   0.145E+01 0.102E+01
CGA:  17    -0.662178797839E+03   -0.98378E-01   -0.10771E+00   768   0.346E+00-0.626E-01
CGA:  18    -0.662287388852E+03   -0.10859E+00   -0.10590E+00   768   0.217E+00 0.137E-01
CGA:  19    -0.662332869689E+03   -0.45481E-01   -0.44984E-01   768   0.203E+00 0.686E-02
CGA:  20    -0.662369431583E+03   -0.36562E-01   -0.37658E-01   768   0.111E+00-0.364E-01
CGA:  21    -0.662387423127E+03   -0.17992E-01   -0.18005E-01   768   0.520E-01-0.584E-03
CGA:  22    -0.662401232644E+03   -0.13810E-01   -0.13252E-01   768   0.312E-01 0.447E-02
CGA:  23    -0.662409935122E+03   -0.87025E-02   -0.80311E-02   768   0.126E-01 0.707E-02
CGA:  24    -0.662413786777E+03   -0.38517E-02   -0.37506E-02   768   0.144E-01 0.107E-02
CGA:  25    -0.662416952605E+03   -0.31658E-02   -0.31307E-02   768   0.105E-01 0.760E-03
CGA:  26    -0.662420900059E+03   -0.39475E-02   -0.40265E-02   768   0.620E-02-0.383E-03
CGA:  27    -0.662421918313E+03   -0.10183E-02   -0.10211E-02   768   0.371E-02 0.697E-04
CGA:  28    -0.662422811480E+03   -0.89317E-03   -0.90011E-03   768   0.159E-02-0.893E-04
CGA:  29    -0.662423229541E+03   -0.41806E-03   -0.41636E-03   768   0.136E-02 0.726E-05
CGA:  30    -0.662423481618E+03   -0.25208E-03   -0.25188E-03   768   0.676E-03-0.199E-04
CGA:  31    -0.662423685616E+03   -0.20400E-03   -0.20379E-03   768   0.450E-03-0.112E-05
CGA:  32    -0.662423776291E+03   -0.90676E-04   -0.90705E-04   768   0.307E-03-0.170E-05
   1 F= -.66895929E+03 E0= -.66894211E+03  d E =-.668959E+03  mag=     1.7900
       N       E                     dE             d eps       ncg     rms          ort
SDA:   1    -0.661449863968E+03    0.97382E+00    0.00000E+00   768   0.314E+01 0.000E+00
CGA:   2    -0.661909324278E+03   -0.45946E+00   -0.46067E+00   768   0.145E+01 0.382E-02
CGA:   3    -0.662189634846E+03   -0.28031E+00   -0.28028E+00   768   0.887E+00-0.139E-01
CGA:   4    -0.662345397747E+03   -0.15576E+00   -0.15594E+00   768   0.294E+00 0.422E-02
CGA:   5    -0.662397950590E+03   -0.52553E-01   -0.52540E-01   768   0.966E-01-0.321E-03
CGA:   6    -0.662417394461E+03   -0.19444E-01   -0.19441E-01   768   0.403E-01 0.191E-03
CGA:   7    -0.662426318521E+03   -0.89241E-02   -0.89300E-02   768   0.183E-01-0.132E-03
CGA:   8    -0.662429815179E+03   -0.34967E-02   -0.34968E-02   768   0.831E-02 0.482E-04
CGA:   9    -0.662431138536E+03   -0.13234E-02   -0.13229E-02   768   0.300E-02 0.269E-05
CGA:  10    -0.662431686940E+03   -0.54840E-03   -0.54849E-03   768   0.857E-03 0.809E-05
CGA:  11    -0.662431882594E+03   -0.19565E-03   -0.19565E-03   768   0.332E-03 0.402E-06
CGA:  12    -0.662431941374E+03   -0.58780E-04   -0.58784E-04   768   0.175E-03 0.427E-06
   2 F= -.66896737E+03 E0= -.66894976E+03  d E =-.808429E-02  mag=     1.7242
       N       E                     dE             d eps       ncg     rms          ort
SDA:   1    -0.662279618312E+03    0.15226E+00    0.00000E+00   768   0.504E+00 0.000E+00
CGA:   2    -0.662355510887E+03   -0.75893E-01   -0.75847E-01   768   0.235E+00-0.426E-03
CGA:   3    -0.662400495505E+03   -0.44985E-01   -0.44983E-01   768   0.139E+00 0.504E-03
CGA:   4    -0.662425287008E+03   -0.24792E-01   -0.24783E-01   768   0.499E-01-0.348E-03
CGA:   5    -0.662433867366E+03   -0.85804E-02   -0.85812E-02   768   0.162E-01 0.609E-05
CGA:   6    -0.662437095534E+03   -0.32282E-02   -0.32286E-02   768   0.702E-02-0.188E-04
CGA:   7    -0.662438532201E+03   -0.14367E-02   -0.14364E-02   768   0.347E-02 0.751E-05
CGA:   8    -0.662439124166E+03   -0.59196E-03   -0.59173E-03   768   0.154E-02-0.928E-05
CGA:   9    -0.662439391429E+03   -0.26726E-03   -0.26721E-03   768   0.481E-03-0.449E-05
CGA:  10    -0.662439487933E+03   -0.96503E-04   -0.96551E-04   768   0.148E-03-0.357E-05
   3 F= -.66897496E+03 E0= -.66895746E+03  d E =-.156689E-01  mag=     1.7426
       N       E                     dE             d eps       ncg     rms          ort
SDA:   1    -0.662113989222E+03    0.32540E+00    0.00000E+00   768   0.121E+01 0.000E+00
CGA:   2    -0.662269939493E+03   -0.15595E+00   -0.15635E+00   768   0.454E+00 0.276E-03
CGA:   3    -0.662360100378E+03   -0.90161E-01   -0.90236E-01   768   0.320E+00-0.402E-02
CGA:   4    -0.662421985648E+03   -0.61885E-01   -0.61859E-01   768   0.134E+00 0.176E-02
CGA:   5    -0.662446773100E+03   -0.24787E-01   -0.24786E-01   768   0.443E-01-0.226E-03
CGA:   6    -0.662454924369E+03   -0.81513E-02   -0.81517E-02   768   0.155E-01 0.775E-04
CGA:   7    -0.662458069117E+03   -0.31447E-02   -0.31454E-02   768   0.708E-02-0.190E-04
CGA:   8    -0.662459303416E+03   -0.12343E-02   -0.12345E-02   768   0.320E-02 0.153E-04
CGA:   9    -0.662459817452E+03   -0.51404E-03   -0.51407E-03   768   0.989E-03 0.431E-05
CGA:  10    -0.662460010467E+03   -0.19302E-03   -0.19299E-03   768   0.302E-03 0.335E-05
CGA:  11    -0.662460075188E+03   -0.64721E-04   -0.64740E-04   768   0.149E-03-0.689E-06
   4 F= -.66899519E+03 E0= -.66897704E+03  d E =-.202282E-01  mag=     1.6955
       N       E                     dE             d eps       ncg     rms          ort
SDA:   1    -0.659383912737E+03    0.30761E+01    0.00000E+00   768   0.113E+02 0.000E+00
CGA:   2    -0.660774583049E+03   -0.13907E+01   -0.14034E+01   768   0.419E+01-0.274E-01
CGA:   3    -0.661581232451E+03   -0.80665E+00   -0.80850E+00   768   0.304E+01-0.128E+00
CGA:   4    -0.662156086930E+03   -0.57485E+00   -0.57376E+00   768   0.116E+01 0.578E-01
CGA:   5    -0.662382858975E+03   -0.22677E+00   -0.22685E+00   768   0.395E+00-0.582E-02
CGA:   6    -0.662455163958E+03   -0.72305E-01   -0.72308E-01   768   0.139E+00 0.225E-02
CGA:   7    -0.662483699893E+03   -0.28536E-01   -0.28561E-01   768   0.661E-01-0.807E-03
CGA:   8    -0.662495111307E+03   -0.11411E-01   -0.11414E-01   768   0.297E-01 0.148E-03
CGA:   9    -0.662499923252E+03   -0.48119E-02   -0.48086E-02   768   0.985E-02-0.454E-04
CGA:  10    -0.662501825397E+03   -0.19021E-02   -0.19021E-02   768   0.318E-02 0.964E-05
CGA:  11    -0.662502526839E+03   -0.70144E-03   -0.70174E-03   768   0.178E-02-0.712E-05
CGA:  12    -0.662502828993E+03   -0.30215E-03   -0.30204E-03   768   0.998E-03-0.271E-05
CGA:  13    -0.662503079956E+03   -0.25096E-03   -0.25117E-03   768   0.629E-03-0.351E-05
CGA:  14    -0.662503255732E+03   -0.17578E-03   -0.17608E-03   768   0.660E-03-0.234E-05
CGA:  15    -0.662503384229E+03   -0.12850E-03   -0.12849E-03   768   0.410E-03 0.180E-06
CGA:  16    -0.662503499021E+03   -0.11479E-03   -0.11482E-03   768   0.248E-03 0.550E-06
CGA:  17    -0.662503550407E+03   -0.51386E-04   -0.51380E-04   768   0.176E-03 0.200E-06
   5 F= -.66903809E+03 E0= -.66901990E+03  d E =-.631376E-01  mag=     1.4909
       N       E                     dE             d eps       ncg     rms          ort
SDA:   1    -0.649937907160E+03    0.12566E+02    0.00000E+00   768   0.491E+02 0.000E+00
CGA:   2    -0.655415454922E+03   -0.54775E+01   -0.56372E+01   768   0.185E+02-0.927E+00
CGA:   3    -0.658570403968E+03   -0.31549E+01   -0.31182E+01   768   0.126E+02-0.716E+00
CGA:   4    -0.661015752819E+03   -0.24453E+01   -0.24377E+01   768   0.449E+01 0.601E+00
CGA:   5    -0.661960488590E+03   -0.94474E+00   -0.94411E+00   768   0.163E+01 0.591E-01
CGA:   6    -0.662267489385E+03   -0.30700E+00   -0.30681E+00   768   0.676E+00-0.994E-02
CGA:   7    -0.662387784566E+03   -0.12030E+00   -0.12062E+00   768   0.339E+00 0.116E-01
CGA:   8    -0.662442657724E+03   -0.54873E-01   -0.54691E-01   768   0.146E+00-0.146E-02
CGA:   9    -0.662469732505E+03   -0.27075E-01   -0.27082E-01   768   0.420E-01 0.871E-03
CGA:  10    -0.662478774639E+03   -0.90421E-02   -0.90494E-02   768   0.159E-01-0.209E-03
CGA:  11    -0.662481837984E+03   -0.30633E-02   -0.30633E-02   768   0.970E-02 0.975E-05
CGA:  12    -0.662483418077E+03   -0.15801E-02   -0.15785E-02   768   0.423E-02-0.260E-04
CGA:  13    -0.662484573490E+03   -0.11554E-02   -0.11560E-02   768   0.259E-02-0.549E-05
CGA:  14    -0.662485203570E+03   -0.63008E-03   -0.63095E-03   768   0.268E-02-0.156E-04
CGA:  15    -0.662485690042E+03   -0.48647E-03   -0.48644E-03   768   0.132E-02 0.128E-05
CGA:  16    -0.662486093310E+03   -0.40327E-03   -0.40378E-03   768   0.871E-03-0.490E-05
CGA:  17    -0.662486250108E+03   -0.15680E-03   -0.15681E-03   768   0.600E-03 0.235E-05
CGA:  18    -0.662486383206E+03   -0.13310E-03   -0.13310E-03   768   0.253E-03-0.578E-06
CGA:  19    -0.662486452781E+03   -0.69575E-04   -0.69573E-04   768   0.222E-03 0.422E-06
   6 F= -.66902371E+03 E0= -.66900834E+03  d E =-.487491E-01  mag=     1.3233
       N       E                     dE             d eps       ncg     rms          ort
SDA:   1    -0.657421960583E+03    0.50644E+01    0.00000E+00   768   0.174E+02 0.000E+00
CGA:   2    -0.659817117523E+03   -0.23952E+01   -0.23966E+01   768   0.642E+01-0.976E-01
CGA:   3    -0.661129748776E+03   -0.13126E+01   -0.13124E+01   768   0.454E+01-0.177E-01
CGA:   4    -0.661978085378E+03   -0.84834E+00   -0.84607E+00   768   0.203E+01-0.936E-01
CGA:   5    -0.662319511931E+03   -0.34143E+00   -0.34233E+00   768   0.654E+00 0.689E-02
CGA:   6    -0.662436105080E+03   -0.11659E+00   -0.11628E+00   768   0.273E+00-0.676E-02
CGA:   7    -0.662480426379E+03   -0.44321E-01   -0.44390E-01   768   0.123E+00 0.474E-03
CGA:   8    -0.662501591543E+03   -0.21165E-01   -0.21132E-01   768   0.490E-01-0.585E-03
CGA:   9    -0.662510687286E+03   -0.90957E-02   -0.90973E-02   768   0.153E-01 0.805E-04
CGA:  10    -0.662513428283E+03   -0.27410E-02   -0.27399E-02   768   0.616E-02-0.404E-04
CGA:  11    -0.662514399937E+03   -0.97165E-03   -0.97159E-03   768   0.236E-02-0.925E-06
CGA:  12    -0.662514863244E+03   -0.46331E-03   -0.46331E-03   768   0.938E-03-0.161E-05
CGA:  13    -0.662515062926E+03   -0.19968E-03   -0.19965E-03   768   0.620E-03 0.243E-05
CGA:  14    -0.662515176431E+03   -0.11350E-03   -0.11352E-03   768   0.372E-03 0.960E-06
CGA:  15    -0.662515273559E+03   -0.97128E-04   -0.97070E-04   768   0.280E-03 0.129E-05
   7 F= -.66905029E+03 E0= -.66903409E+03  d E =-.753329E-01  mag=     1.3654
       N       E                     dE             d eps       ncg     rms          ort
SDA:   1    -0.661998378569E+03    0.51680E+00    0.00000E+00   768   0.185E+01 0.000E+00
CGA:   2    -0.662241724725E+03   -0.24335E+00   -0.24407E+00   768   0.817E+00-0.130E-02
CGA:   3    -0.662390919893E+03   -0.14920E+00   -0.14905E+00   768   0.522E+00-0.671E-02
CGA:   4    -0.662486180429E+03   -0.95261E-01   -0.95325E-01   768   0.187E+00 0.346E-02
CGA:   5    -0.662519648284E+03   -0.33468E-01   -0.33457E-01   768   0.637E-01-0.213E-03
CGA:   6    -0.662530920668E+03   -0.11272E-01   -0.11280E-01   768   0.290E-01 0.253E-03
CGA:   7    -0.662535926032E+03   -0.50054E-02   -0.50036E-02   768   0.147E-01-0.223E-04
CGA:   8    -0.662538521181E+03   -0.25951E-02   -0.25960E-02   768   0.568E-02 0.385E-04
CGA:   9    -0.662539618529E+03   -0.10973E-02   -0.10974E-02   768   0.191E-02-0.428E-05
CGA:  10    -0.662539935326E+03   -0.31680E-03   -0.31692E-03   768   0.774E-03 0.414E-05
CGA:  11    -0.662540060547E+03   -0.12522E-03   -0.12522E-03   768   0.262E-03 0.764E-07
CGA:  12    -0.662540112053E+03   -0.51505E-04   -0.51498E-04   768   0.103E-03 0.864E-06
   8 F= -.66907587E+03 E0= -.66905902E+03  d E =-.255834E-01  mag=     1.3733
       N       E                     dE             d eps       ncg     rms          ort
SDA:   1    -0.657871363378E+03    0.46687E+01    0.00000E+00   768   0.167E+02 0.000E+00
CGA:   2    -0.659923755630E+03   -0.20524E+01   -0.20725E+01   768   0.738E+01-0.890E-01
CGA:   3    -0.661220547237E+03   -0.12968E+01   -0.12943E+01   768   0.475E+01-0.173E+00
CGA:   4    -0.662086820069E+03   -0.86627E+00   -0.86585E+00   768   0.155E+01 0.109E+00
CGA:   5    -0.662383124642E+03   -0.29630E+00   -0.29634E+00   768   0.542E+00-0.361E-02
CGA:   6    -0.662483682437E+03   -0.10056E+00   -0.10054E+00   768   0.241E+00 0.706E-02
CGA:   7    -0.662526069231E+03   -0.42387E-01   -0.42359E-01   768   0.138E+00-0.996E-03
CGA:   8    -0.662548378846E+03   -0.22310E-01   -0.22333E-01   768   0.526E-01 0.530E-03
CGA:   9    -0.662558805851E+03   -0.10427E-01   -0.10432E-01   768   0.161E-01-0.215E-03
CGA:  10    -0.662561783280E+03   -0.29774E-02   -0.29774E-02   768   0.716E-02 0.301E-04
CGA:  11    -0.662562842495E+03   -0.10592E-02   -0.10587E-02   768   0.286E-02-0.603E-05
CGA:  12    -0.662563397835E+03   -0.55534E-03   -0.55537E-03   768   0.103E-02-0.231E-07
CGA:  13    -0.662563629136E+03   -0.23130E-03   -0.23145E-03   768   0.755E-03-0.374E-05
CGA:  14    -0.662563747987E+03   -0.11885E-03   -0.11879E-03   768   0.394E-03-0.728E-06
CGA:  15    -0.662563856594E+03   -0.10861E-03   -0.10871E-03   768   0.267E-03-0.132E-05
CGA:  16    -0.662563912644E+03   -0.56050E-04   -0.56042E-04   768   0.233E-03 0.736E-06
   9 F= -.66910271E+03 E0= -.66908166E+03  d E =-.524190E-01  mag=     1.4634
       N       E                     dE             d eps       ncg     rms          ort
SDA:   1    -0.662156280854E+03    0.40758E+00    0.00000E+00   768   0.136E+01 0.000E+00
CGA:   2    -0.662350477015E+03   -0.19420E+00   -0.19424E+00   768   0.816E+00-0.109E-02
CGA:   3    -0.662483208535E+03   -0.13273E+00   -0.13267E+00   768   0.401E+00-0.152E-02
CGA:   4    -0.662554893449E+03   -0.71685E-01   -0.71702E-01   768   0.106E+00 0.155E-02
CGA:   5    -0.662572882907E+03   -0.17989E-01   -0.17988E-01   768   0.351E-01 0.390E-04
CGA:   6    -0.662579348912E+03   -0.64660E-02   -0.64660E-02   768   0.181E-01 0.127E-03
CGA:   7    -0.662582234065E+03   -0.28852E-02   -0.28849E-02   768   0.919E-02 0.110E-04
CGA:   8    -0.662583931933E+03   -0.16979E-02   -0.16978E-02   768   0.393E-02 0.254E-04
CGA:   9    -0.662584725886E+03   -0.79395E-03   -0.79410E-03   768   0.151E-02-0.568E-05
CGA:  10    -0.662584976594E+03   -0.25071E-03   -0.25079E-03   768   0.736E-03 0.384E-05
CGA:  11    -0.662585093173E+03   -0.11658E-03   -0.11660E-03   768   0.234E-03 0.112E-05
CGA:  12    -0.662585141048E+03   -0.47875E-04   -0.47843E-04   768   0.983E-04 0.145E-05
  10 F= -.66912542E+03 E0= -.66910312E+03  d E =-.227062E-01  mag=     1.5017
       N       E                     dE             d eps       ncg     rms          ort
SDA:   1    -0.658778124152E+03    0.38070E+01    0.00000E+00   768   0.125E+02 0.000E+00
CGA:   2    -0.660479819124E+03   -0.17017E+01   -0.17162E+01   768   0.742E+01 0.111E-01
CGA:   3    -0.661701062050E+03   -0.12212E+01   -0.12195E+01   768   0.365E+01-0.632E-01
CGA:   4    -0.662347478505E+03   -0.64642E+00   -0.64646E+00   768   0.914E+00 0.458E-01
CGA:   5    -0.662508893934E+03   -0.16142E+00   -0.16140E+00   768   0.310E+00 0.403E-03
CGA:   6    -0.662569054844E+03   -0.60161E-01   -0.60092E-01   768   0.157E+00 0.331E-02
CGA:   7    -0.662595118591E+03   -0.26064E-01   -0.26055E-01   768   0.898E-01-0.111E-03
CGA:   8    -0.662610281447E+03   -0.15163E-01   -0.15174E-01   768   0.368E-01 0.602E-03
CGA:   9    -0.662617875068E+03   -0.75936E-02   -0.75981E-02   768   0.126E-01-0.117E-03
CGA:  10    -0.662620262364E+03   -0.23873E-02   -0.23867E-02   768   0.646E-02 0.370E-04
CGA:  11    -0.662621186518E+03   -0.92415E-03   -0.92390E-03   768   0.233E-02-0.147E-05
CGA:  12    -0.662621656971E+03   -0.47045E-03   -0.47038E-03   768   0.815E-03 0.337E-05
CGA:  13    -0.662621822725E+03   -0.16575E-03   -0.16581E-03   768   0.555E-03-0.248E-05
CGA:  14    -0.662621907599E+03   -0.84873E-04   -0.84853E-04   768   0.249E-03-0.219E-06
  11 F= -.66916676E+03 E0= -.66914109E+03  d E =-.640482E-01  mag=     1.6896
       N       E                     dE             d eps       ncg     rms          ort
SDA:   1    -0.661959966299E+03    0.66186E+00    0.00000E+00   768   0.215E+01 0.000E+00
CGA:   2    -0.662258793160E+03   -0.29883E+00   -0.30068E+00   768   0.124E+01 0.500E-02
CGA:   3    -0.662464403982E+03   -0.20561E+00   -0.20544E+00   768   0.625E+00-0.514E-02
CGA:   4    -0.662578933951E+03   -0.11453E+00   -0.11452E+00   768   0.156E+00 0.313E-02
CGA:   5    -0.662605811416E+03   -0.26877E-01   -0.26874E-01   768   0.532E-01-0.721E-04
CGA:   6    -0.662615652772E+03   -0.98414E-02   -0.98398E-02   768   0.272E-01 0.258E-03
CGA:   7    -0.662620022357E+03   -0.43696E-02   -0.43690E-02   768   0.142E-01 0.903E-05
CGA:   8    -0.662622662255E+03   -0.26399E-02   -0.26394E-02   768   0.609E-02 0.556E-04
CGA:   9    -0.662623908275E+03   -0.12460E-02   -0.12464E-02   768   0.234E-02-0.116E-04
CGA:  10    -0.662624304963E+03   -0.39669E-03   -0.39676E-03   768   0.115E-02 0.460E-05
CGA:  11    -0.662624487117E+03   -0.18215E-03   -0.18216E-03   768   0.397E-03 0.710E-06
CGA:  12    -0.662624571853E+03   -0.84737E-04   -0.84694E-04   768   0.179E-03 0.128E-05
  12 F= -.66917134E+03 E0= -.66914501E+03  d E =-.686322E-01  mag=     1.8075
       N       E                     dE             d eps       ncg     rms          ort
SDA:   1    -0.662182030092E+03    0.44246E+00    0.00000E+00   768   0.126E+01 0.000E+00
CGA:   2    -0.662421429993E+03   -0.23940E+00   -0.23931E+00   768   0.919E+00 0.501E-02
CGA:   3    -0.662568945881E+03   -0.14752E+00   -0.14727E+00   768   0.453E+00-0.529E-02
CGA:   4    -0.662638791202E+03   -0.69845E-01   -0.69894E-01   768   0.101E+00 0.490E-03
CGA:   5    -0.662656720233E+03   -0.17929E-01   -0.17928E-01   768   0.375E-01-0.205E-03
CGA:   6    -0.662663331163E+03   -0.66109E-02   -0.66115E-02   768   0.175E-01 0.129E-03
CGA:   7    -0.662666245250E+03   -0.29141E-02   -0.29137E-02   768   0.940E-02-0.955E-05
CGA:   8    -0.662668049425E+03   -0.18042E-02   -0.18037E-02   768   0.404E-02 0.196E-04
CGA:   9    -0.662668852271E+03   -0.80285E-03   -0.80316E-03   768   0.167E-02-0.137E-04
CGA:  10    -0.662669133702E+03   -0.28143E-03   -0.28145E-03   768   0.772E-03 0.199E-06
CGA:  11    -0.662669259125E+03   -0.12542E-03   -0.12540E-03   768   0.239E-03-0.998E-06
CGA:  12    -0.662669308608E+03   -0.49482E-04   -0.49461E-04   768   0.109E-03 0.745E-06
  13 F= -.66921757E+03 E0= -.66919148E+03  d E =-.462271E-01  mag=     1.8485
       N       E                     dE             d eps       ncg     rms          ort
SDA:   1    -0.662266838949E+03    0.40242E+00    0.00000E+00   768   0.108E+01 0.000E+00
CGA:   2    -0.662475426085E+03   -0.20859E+00   -0.20846E+00   768   0.777E+00 0.458E-02
CGA:   3    -0.662602285851E+03   -0.12686E+00   -0.12668E+00   768   0.383E+00-0.480E-02
CGA:   4    -0.662661175812E+03   -0.58890E-01   -0.58925E-01   768   0.850E-01 0.322E-03
CGA:   5    -0.662676419541E+03   -0.15244E-01   -0.15244E-01   768   0.307E-01-0.178E-03
CGA:   6    -0.662681953269E+03   -0.55337E-02   -0.55333E-02   768   0.143E-01 0.100E-03
CGA:   7    -0.662684407967E+03   -0.24547E-02   -0.24545E-02   768   0.787E-02-0.983E-05
CGA:   8    -0.662685902055E+03   -0.14941E-02   -0.14938E-02   768   0.340E-02 0.135E-04
CGA:   9    -0.662686580123E+03   -0.67807E-03   -0.67836E-03   768   0.136E-02-0.119E-04
CGA:  10    -0.662686821494E+03   -0.24137E-03   -0.24137E-03   768   0.643E-03 0.164E-06
CGA:  11    -0.662686924353E+03   -0.10286E-03   -0.10284E-03   768   0.213E-03-0.723E-06
CGA:  12    -0.662686969825E+03   -0.45472E-04   -0.45444E-04   768   0.982E-04 0.806E-06
  14 F= -.66923655E+03 E0= -.66921095E+03  d E =-.652092E-01  mag=     1.8616
       N       E                     dE             d eps       ncg     rms          ort
SDA:   1    -0.661989542697E+03    0.69738E+00    0.00000E+00   768   0.207E+01 0.000E+00
CGA:   2    -0.662348212545E+03   -0.35867E+00   -0.35873E+00   768   0.111E+01 0.764E-03
CGA:   3    -0.662566947216E+03   -0.21873E+00   -0.21901E+00   768   0.675E+00-0.112E-01
CGA:   4    -0.662668124977E+03   -0.10118E+00   -0.10129E+00   768   0.192E+00 0.401E-03
CGA:   5    -0.662702307943E+03   -0.34183E-01   -0.34180E-01   768   0.744E-01-0.861E-03
CGA:   6    -0.662715878248E+03   -0.13570E-01   -0.13568E-01   768   0.358E-01 0.281E-03
CGA:   7    -0.662721889644E+03   -0.60114E-02   -0.60083E-02   768   0.193E-01-0.117E-03
CGA:   8    -0.662725157646E+03   -0.32680E-02   -0.32688E-02   768   0.706E-02 0.294E-04
CGA:   9    -0.662726537665E+03   -0.13800E-02   -0.13806E-02   768   0.245E-02-0.229E-04
CGA:  10    -0.662726970072E+03   -0.43241E-03   -0.43242E-03   768   0.109E-02 0.370E-05
CGA:  11    -0.662727131378E+03   -0.16131E-03   -0.16130E-03   768   0.373E-03 0.648E-06
CGA:  12    -0.662727205490E+03   -0.74112E-04   -0.74066E-04   768   0.139E-03 0.220E-05
  15 F= -.66927715E+03 E0= -.66925109E+03  d E =-.406008E-01  mag=     1.8251
       N       E                     dE             d eps       ncg     rms          ort
SDA:   1    -0.661843623293E+03    0.88351E+00    0.00000E+00   768   0.251E+01 0.000E+00
CGA:   2    -0.662280818328E+03   -0.43720E+00   -0.43725E+00   768   0.135E+01 0.122E-02
CGA:   3    -0.662546642630E+03   -0.26582E+00   -0.26624E+00   768   0.833E+00-0.161E-01
CGA:   4    -0.662670367055E+03   -0.12372E+00   -0.12390E+00   768   0.238E+00 0.787E-03
CGA:   5    -0.662711927520E+03   -0.41560E-01   -0.41551E-01   768   0.949E-01-0.129E-02
CGA:   6    -0.662728308618E+03   -0.16381E-01   -0.16385E-01   768   0.473E-01 0.383E-03
CGA:   7    -0.662736029900E+03   -0.77213E-02   -0.77158E-02   768   0.237E-01-0.160E-03
CGA:   8    -0.662740294521E+03   -0.42646E-02   -0.42643E-02   768   0.881E-02 0.501E-04
CGA:   9    -0.662741983739E+03   -0.16892E-02   -0.16898E-02   768   0.344E-02-0.310E-04
CGA:  10    -0.662742526698E+03   -0.54296E-03   -0.54309E-03   768   0.148E-02 0.369E-05
CGA:  11    -0.662742763292E+03   -0.23659E-03   -0.23658E-03   768   0.474E-03 0.339E-06
CGA:  12    -0.662742858714E+03   -0.95422E-04   -0.95359E-04   768   0.215E-03 0.255E-05
  16 F= -.66929315E+03 E0= -.66926667E+03  d E =-.565977E-01  mag=     1.7722
       N       E                     dE             d eps       ncg     rms          ort
SDA:   1    -0.662081915245E+03    0.66085E+00    0.00000E+00   768   0.200E+01 0.000E+00
CGA:   2    -0.662400217061E+03   -0.31830E+00   -0.31842E+00   768   0.940E+00-0.836E-03
CGA:   3    -0.662598700087E+03   -0.19848E+00   -0.19898E+00   768   0.698E+00-0.109E-01
CGA:   4    -0.662709375487E+03   -0.11068E+00   -0.11075E+00   768   0.218E+00 0.815E-03
CGA:   5    -0.662746840702E+03   -0.37465E-01   -0.37455E-01   768   0.793E-01-0.106E-02
CGA:   6    -0.662760467630E+03   -0.13627E-01   -0.13629E-01   768   0.388E-01 0.270E-03
CGA:   7    -0.662766635070E+03   -0.61674E-02   -0.61630E-02   768   0.202E-01-0.103E-03
CGA:   8    -0.662770133668E+03   -0.34986E-02   -0.34988E-02   768   0.730E-02 0.383E-04
CGA:   9    -0.662771553879E+03   -0.14202E-02   -0.14208E-02   768   0.257E-02-0.222E-04
CGA:  10    -0.662771964082E+03   -0.41020E-03   -0.41026E-03   768   0.114E-02 0.116E-05
CGA:  11    -0.662772136008E+03   -0.17193E-03   -0.17189E-03   768   0.380E-03-0.904E-06
CGA:  12    -0.662772217317E+03   -0.81309E-04   -0.81247E-04   768   0.181E-03 0.158E-05
  17 F= -.66932276E+03 E0= -.66929525E+03  d E =-.296164E-01  mag=     1.8338
       N       E                     dE             d eps       ncg     rms          ort
SDA:   1    -0.660358821909E+03    0.24133E+01    0.00000E+00   768   0.707E+01 0.000E+00
CGA:   2    -0.661479744092E+03   -0.11209E+01   -0.11221E+01   768   0.332E+01-0.482E-02
CGA:   3    -0.662173104366E+03   -0.69336E+00   -0.69797E+00   768   0.261E+01-0.105E+00
CGA:   4    -0.662566041830E+03   -0.39294E+00   -0.39393E+00   768   0.785E+00 0.922E-02
CGA:   5    -0.662699375981E+03   -0.13333E+00   -0.13321E+00   768   0.306E+00-0.826E-02
CGA:   6    -0.662748179433E+03   -0.48803E-01   -0.48867E-01   768   0.143E+00 0.156E-02
CGA:   7    -0.662771664144E+03   -0.23485E-01   -0.23465E-01   768   0.707E-01-0.762E-03
CGA:   8    -0.662784343405E+03   -0.12679E-01   -0.12676E-01   768   0.274E-01 0.292E-03
CGA:   9    -0.662789356764E+03   -0.50134E-02   -0.50145E-02   768   0.110E-01-0.103E-03
CGA:  10    -0.662791015198E+03   -0.16584E-02   -0.16593E-02   768   0.426E-02 0.107E-04
CGA:  11    -0.662791729247E+03   -0.71405E-03   -0.71400E-03   768   0.149E-02-0.444E-05
CGA:  12    -0.662792022418E+03   -0.29317E-03   -0.29310E-03   768   0.791E-03 0.301E-05
CGA:  13    -0.662792161247E+03   -0.13883E-03   -0.13883E-03   768   0.486E-03 0.718E-06
CGA:  14    -0.662792266167E+03   -0.10492E-03   -0.10485E-03   768   0.316E-03 0.201E-05
CGA:  15    -0.662792342037E+03   -0.75870E-04   -0.75821E-04   768   0.282E-03 0.538E-06
  18 F= -.66934322E+03 E0= -.66931450E+03  d E =-.500675E-01  mag=     1.9807
       N       E                     dE             d eps       ncg     rms          ort
SDA:   1    -0.662320215362E+03    0.47205E+00    0.00000E+00   768   0.127E+01 0.000E+00
CGA:   2    -0.662577099558E+03   -0.25688E+00   -0.25688E+00   768   0.761E+00-0.387E-03
CGA:   3    -0.662722780583E+03   -0.14568E+00   -0.14569E+00   768   0.386E+00-0.964E-03
CGA:   4    -0.662779986510E+03   -0.57206E-01   -0.57209E-01   768   0.108E+00-0.121E-03
CGA:   5    -0.662798687691E+03   -0.18701E-01   -0.18701E-01   768   0.376E-01-0.362E-04
CGA:   6    -0.662806562170E+03   -0.78745E-02   -0.78756E-02   768   0.163E-01-0.305E-04
CGA:   7    -0.662810345344E+03   -0.37832E-02   -0.37837E-02   768   0.725E-02-0.102E-04
CGA:   8    -0.662811976054E+03   -0.16307E-02   -0.16316E-02   768   0.300E-02-0.173E-04
CGA:   9    -0.662812488271E+03   -0.51222E-03   -0.51229E-03   768   0.162E-02 0.247E-05
CGA:  10    -0.662812702790E+03   -0.21452E-03   -0.21451E-03   768   0.524E-03 0.584E-06
CGA:  11    -0.662812814113E+03   -0.11132E-03   -0.11125E-03   768   0.172E-03 0.257E-05
CGA:  12    -0.662812859106E+03   -0.44993E-04   -0.44972E-04   768   0.132E-03 0.255E-06
  19 F= -.66936387E+03 E0= -.66933537E+03  d E =-.206554E-01  mag=     2.0540
       N       E                     dE             d eps       ncg     rms          ort
SDA:   1    -0.660345659184E+03    0.24672E+01    0.00000E+00   768   0.641E+01 0.000E+00
CGA:   2    -0.661641740837E+03   -0.12961E+01   -0.12958E+01   768   0.384E+01 0.228E-04
CGA:   3    -0.662379825890E+03   -0.73809E+00   -0.73827E+00   768   0.198E+01-0.261E-01
CGA:   4    -0.662666861098E+03   -0.28704E+00   -0.28745E+00   768   0.547E+00-0.703E-03
CGA:   5    -0.662761483742E+03   -0.94623E-01   -0.94568E-01   768   0.197E+00-0.246E-02
CGA:   6    -0.662799052712E+03   -0.37569E-01   -0.37560E-01   768   0.105E+00 0.622E-03
CGA:   7    -0.662815917180E+03   -0.16864E-01   -0.16837E-01   768   0.627E-01-0.431E-03
CGA:   8    -0.662825848367E+03   -0.99312E-02   -0.99412E-02   768   0.232E-01 0.128E-03
CGA:   9    -0.662830692273E+03   -0.48439E-02   -0.48461E-02   768   0.784E-02-0.608E-04
CGA:  10    -0.662832190663E+03   -0.14984E-02   -0.14982E-02   768   0.387E-02 0.156E-04
CGA:  11    -0.662832709448E+03   -0.51878E-03   -0.51877E-03   768   0.148E-02 0.871E-06
CGA:  12    -0.662832997972E+03   -0.28852E-03   -0.28847E-03   768   0.523E-03 0.400E-05
CGA:  13    -0.662833120093E+03   -0.12212E-03   -0.12210E-03   768   0.404E-03 0.164E-06
CGA:  14    -0.662833181336E+03   -0.61243E-04   -0.61275E-04   768   0.233E-03 0.110E-05
  20 F= -.66938427E+03 E0= -.66935657E+03  d E =-.410552E-01  mag=     2.1486
       N       E                     dE             d eps       ncg     rms          ort
SDA:   1    -0.662187325857E+03    0.64579E+00    0.00000E+00   768   0.180E+01 0.000E+00
CGA:   2    -0.662560709746E+03   -0.37338E+00   -0.37336E+00   768   0.101E+01 0.892E-03
CGA:   3    -0.662755100396E+03   -0.19439E+00   -0.19441E+00   768   0.535E+00-0.216E-02
CGA:   4    -0.662831354039E+03   -0.76254E-01   -0.76358E-01   768   0.136E+00 0.428E-03
CGA:   5    -0.662852832913E+03   -0.21479E-01   -0.21463E-01   768   0.495E-01-0.153E-03
CGA:   6    -0.662861498222E+03   -0.86653E-02   -0.86674E-02   768   0.291E-01 0.953E-04
CGA:   7    -0.662866027995E+03   -0.45298E-02   -0.45254E-02   768   0.139E-01-0.488E-04
CGA:   8    -0.662868708478E+03   -0.26805E-02   -0.26801E-02   768   0.585E-02 0.198E-04
CGA:   9    -0.662869896002E+03   -0.11875E-02   -0.11878E-02   768   0.267E-02-0.895E-05
CGA:  10    -0.662870295432E+03   -0.39943E-03   -0.39965E-03   768   0.123E-02 0.445E-05
CGA:  11    -0.662870500257E+03   -0.20483E-03   -0.20483E-03   768   0.383E-03 0.929E-06
CGA:  12    -0.662870576384E+03   -0.76126E-04   -0.76103E-04   768   0.184E-03 0.147E-05
  21 F= -.66942232E+03 E0= -.66939457E+03  d E =-.380515E-01  mag=     2.1153
       N       E                     dE             d eps       ncg     rms          ort
SDA:   1    -0.659030458458E+03    0.38400E+01    0.00000E+00   768   0.102E+02 0.000E+00
CGA:   2    -0.661142617322E+03   -0.21122E+01   -0.21113E+01   768   0.570E+01 0.209E-01
CGA:   3    -0.662244587320E+03   -0.11020E+01   -0.11027E+01   768   0.311E+01-0.483E-01
CGA:   4    -0.662670699804E+03   -0.42611E+00   -0.42768E+00   768   0.804E+00 0.486E-02
CGA:   5    -0.662794705490E+03   -0.12401E+00   -0.12373E+00   768   0.316E+00-0.356E-02
CGA:   6    -0.662844759342E+03   -0.50054E-01   -0.50105E-01   768   0.177E+00 0.881E-03
CGA:   7    -0.662874392747E+03   -0.29633E-01   -0.29605E-01   768   0.810E-01-0.106E-02
CGA:   8    -0.662890311583E+03   -0.15919E-01   -0.15910E-01   768   0.382E-01 0.285E-03
CGA:   9    -0.662897092928E+03   -0.67813E-02   -0.67808E-02   768   0.201E-01-0.123E-03
CGA:  10    -0.662900006464E+03   -0.29135E-02   -0.29150E-02   768   0.751E-02 0.207E-04
CGA:  11    -0.662901463141E+03   -0.14567E-02   -0.14569E-02   768   0.306E-02-0.655E-05
CGA:  12    -0.662901986014E+03   -0.52287E-03   -0.52286E-03   768   0.180E-02 0.209E-05
CGA:  13    -0.662902295853E+03   -0.30984E-03   -0.30983E-03   768   0.959E-03-0.173E-05
CGA:  14    -0.662902533376E+03   -0.23752E-03   -0.23785E-03   768   0.824E-03-0.324E-05
CGA:  15    -0.662902700424E+03   -0.16705E-03   -0.16701E-03   768   0.788E-03-0.114E-06
CGA:  16    -0.662902896511E+03   -0.19609E-03   -0.19655E-03   768   0.640E-03-0.428E-05
CGA:  17    -0.662903048714E+03   -0.15220E-03   -0.15192E-03   768   0.604E-03 0.354E-05
CGA:  18    -0.662903162241E+03   -0.11353E-03   -0.11352E-03   768   0.367E-03-0.105E-06
CGA:  19    -0.662903249904E+03   -0.87663E-04   -0.87565E-04   768   0.275E-03 0.101E-05
  22 F= -.66945616E+03 E0= -.66942912E+03  d E =-.718848E-01  mag=     1.7244
       N       E                     dE             d eps       ncg     rms          ort
SDA:   1    -0.662229594656E+03    0.67357E+00    0.00000E+00   768   0.182E+01 0.000E+00
CGA:   2    -0.662619296021E+03   -0.38970E+00   -0.38960E+00   768   0.104E+01 0.255E-02
CGA:   3    -0.662810794240E+03   -0.19150E+00   -0.19145E+00   768   0.545E+00-0.274E-02
CGA:   4    -0.662886311111E+03   -0.75517E-01   -0.75701E-01   768   0.150E+00 0.406E-03
CGA:   5    -0.662907554058E+03   -0.21243E-01   -0.21211E-01   768   0.629E-01-0.120E-03
CGA:   6    -0.662917218859E+03   -0.96648E-02   -0.96711E-02   768   0.315E-01 0.676E-04
CGA:   7    -0.662922910462E+03   -0.56916E-02   -0.56911E-02   768   0.141E-01-0.641E-04
CGA:   8    -0.662925677758E+03   -0.27673E-02   -0.27670E-02   768   0.801E-02 0.180E-04
CGA:   9    -0.662926928090E+03   -0.12503E-02   -0.12501E-02   768   0.410E-02-0.460E-05
CGA:  10    -0.662927623689E+03   -0.69560E-03   -0.69566E-03   768   0.161E-02 0.473E-05
CGA:  11    -0.662927953298E+03   -0.32961E-03   -0.32951E-03   768   0.985E-03 0.327E-05
CGA:  12    -0.662928113138E+03   -0.15984E-03   -0.15985E-03   768   0.610E-03 0.237E-05
CGA:  13    -0.662928258167E+03   -0.14503E-03   -0.14487E-03   768   0.478E-03 0.199E-05
CGA:  14    -0.662928381797E+03   -0.12363E-03   -0.12386E-03   768   0.602E-03-0.196E-05
CGA:  15    -0.662928504419E+03   -0.12262E-03   -0.12251E-03   768   0.446E-03 0.365E-05
CGA:  16    -0.662928629648E+03   -0.12523E-03   -0.12580E-03   768   0.417E-03-0.445E-05
CGA:  17    -0.662928697534E+03   -0.67886E-04   -0.68017E-04   768   0.235E-03 0.980E-06
  23 F= -.66948181E+03 E0= -.66946042E+03  d E =-.256560E-01  mag=     1.4014
       N       E                     dE             d eps       ncg     rms          ort
SDA:   1    -0.662081288514E+03    0.84734E+00    0.00000E+00   768   0.223E+01 0.000E+00
CGA:   2    -0.662561192748E+03   -0.47990E+00   -0.47977E+00   768   0.130E+01 0.398E-02
CGA:   3    -0.662794101874E+03   -0.23291E+00   -0.23278E+00   768   0.689E+00-0.344E-02
CGA:   4    -0.662889825938E+03   -0.95724E-01   -0.96041E-01   768   0.186E+00 0.554E-03
CGA:   5    -0.662916338482E+03   -0.26513E-01   -0.26481E-01   768   0.758E-01-0.114E-03
CGA:   6    -0.662928440291E+03   -0.12102E-01   -0.12110E-01   768   0.376E-01 0.109E-03
CGA:   7    -0.662935171917E+03   -0.67316E-02   -0.67303E-02   768   0.167E-01-0.680E-04
CGA:   8    -0.662938409565E+03   -0.32376E-02   -0.32373E-02   768   0.912E-02 0.326E-04
CGA:   9    -0.662939853323E+03   -0.14438E-02   -0.14436E-02   768   0.428E-02-0.470E-05
CGA:  10    -0.662940570393E+03   -0.71707E-03   -0.71725E-03   768   0.157E-02 0.682E-05
CGA:  11    -0.662940868472E+03   -0.29808E-03   -0.29807E-03   768   0.762E-03 0.207E-05
CGA:  12    -0.662940984360E+03   -0.11589E-03   -0.11596E-03   768   0.354E-03 0.250E-05
CGA:  13    -0.662941056776E+03   -0.72416E-04   -0.72411E-04   768   0.199E-03-0.378E-07
  24 F= -.66949430E+03 E0= -.66947755E+03  d E =-.381420E-01  mag=     1.2692
       N       E                     dE             d eps       ncg     rms          ort
SDA:   1    -0.662354459621E+03    0.58652E+00    0.00000E+00   768   0.164E+01 0.000E+00
CGA:   2    -0.662666539680E+03   -0.31208E+00   -0.31205E+00   768   0.101E+01 0.346E-02
CGA:   3    -0.662832597273E+03   -0.16606E+00   -0.16592E+00   768   0.577E+00-0.371E-02
CGA:   4    -0.662920230658E+03   -0.87633E-01   -0.87746E-01   768   0.176E+00 0.830E-03
CGA:   5    -0.662946909649E+03   -0.26679E-01   -0.26666E-01   768   0.629E-01-0.144E-03
CGA:   6    -0.662957573242E+03   -0.10664E-01   -0.10667E-01   768   0.301E-01 0.136E-03
CGA:   7    -0.662962989340E+03   -0.54161E-02   -0.54160E-02   768   0.162E-01-0.309E-04
CGA:   8    -0.662965867903E+03   -0.28786E-02   -0.28787E-02   768   0.780E-02 0.328E-04
CGA:   9    -0.662967284976E+03   -0.14171E-02   -0.14171E-02   768   0.328E-02-0.391E-05
CGA:  10    -0.662967832160E+03   -0.54718E-03   -0.54723E-03   768   0.138E-02 0.172E-05
CGA:  11    -0.662968068518E+03   -0.23636E-03   -0.23635E-03   768   0.582E-03-0.143E-05
CGA:  12    -0.662968176990E+03   -0.10847E-03   -0.10847E-03   768   0.305E-03 0.102E-05
CGA:  13    -0.662968240377E+03   -0.63387E-04   -0.63378E-04   768   0.227E-03 0.836E-08
  25 F= -.66952169E+03 E0= -.66950870E+03  d E =-.273888E-01  mag=     1.1840
       N       E                     dE             d eps       ncg     rms          ort
SDA:   1    -0.662490832036E+03    0.47734E+00    0.00000E+00   768   0.129E+01 0.000E+00
CGA:   2    -0.662738133353E+03   -0.24730E+00   -0.24725E+00   768   0.793E+00 0.264E-02
CGA:   3    -0.662869339344E+03   -0.13121E+00   -0.13110E+00   768   0.440E+00-0.308E-02
CGA:   4    -0.662938687106E+03   -0.69348E-01   -0.69409E-01   768   0.127E+00 0.736E-03
CGA:   5    -0.662958803639E+03   -0.20117E-01   -0.20107E-01   768   0.465E-01-0.162E-03
CGA:   6    -0.662966828496E+03   -0.80249E-02   -0.80262E-02   768   0.223E-01 0.967E-04
CGA:   7    -0.662970865631E+03   -0.40371E-02   -0.40372E-02   768   0.119E-01-0.265E-04
CGA:   8    -0.662973049727E+03   -0.21841E-02   -0.21840E-02   768   0.543E-02 0.246E-04
CGA:   9    -0.662974059448E+03   -0.10097E-02   -0.10098E-02   768   0.226E-02-0.582E-05
CGA:  10    -0.662974434106E+03   -0.37466E-03   -0.37469E-03   768   0.928E-03 0.105E-05
CGA:  11    -0.662974594779E+03   -0.16067E-03   -0.16066E-03   768   0.361E-03-0.166E-05
CGA:  12    -0.662974664147E+03   -0.69367E-04   -0.69357E-04   768   0.194E-03 0.919E-06
  26 F= -.66952820E+03 E0= -.66951701E+03  d E =-.339059E-01  mag=     1.1511
       N       E                     dE             d eps       ncg     rms          ort
SDA:   1    -0.662050998086E+03    0.92360E+00    0.00000E+00   768   0.262E+01 0.000E+00
CGA:   2    -0.662527309450E+03   -0.47631E+00   -0.47629E+00   768   0.151E+01 0.739E-02
CGA:   3    -0.662783196147E+03   -0.25589E+00   -0.25567E+00   768   0.839E+00-0.111E-01
CGA:   4    -0.662920755328E+03   -0.13756E+00   -0.13764E+00   768   0.245E+00 0.159E-02
CGA:   5    -0.662961968392E+03   -0.41213E-01   -0.41193E-01   768   0.925E-01-0.842E-03
CGA:   6    -0.662978689626E+03   -0.16721E-01   -0.16720E-01   768   0.448E-01 0.221E-03
CGA:   7    -0.662986684967E+03   -0.79953E-02   -0.79950E-02   768   0.241E-01-0.136E-03
CGA:   8    -0.662990926593E+03   -0.42416E-02   -0.42418E-02   768   0.967E-02 0.464E-04
CGA:   9    -0.662992802602E+03   -0.18760E-02   -0.18764E-02   768   0.362E-02-0.162E-04
CGA:  10    -0.662993422067E+03   -0.61947E-03   -0.61951E-03   768   0.152E-02 0.353E-05
CGA:  11    -0.662993666445E+03   -0.24438E-03   -0.24435E-03   768   0.537E-03-0.127E-05
CGA:  12    -0.662993774838E+03   -0.10839E-03   -0.10835E-03   768   0.244E-03 0.192E-05
CGA:  13    -0.662993822796E+03   -0.47958E-04   -0.47952E-04   768   0.164E-03 0.305E-06
  27 F= -.66954721E+03 E0= -.66953701E+03  d E =-.190038E-01  mag=     1.1404
       N       E                     dE             d eps       ncg     rms          ort
SDA:   1    -0.662810373991E+03    0.18340E+00    0.00000E+00   768   0.511E+00 0.000E+00
CGA:   2    -0.662905013449E+03   -0.94639E-01   -0.94634E-01   768   0.293E+00 0.528E-03
CGA:   3    -0.662954817776E+03   -0.49804E-01   -0.49785E-01   768   0.161E+00-0.915E-03
CGA:   4    -0.662981767171E+03   -0.26949E-01   -0.26955E-01   768   0.463E-01 0.918E-04
CGA:   5    -0.662989744141E+03   -0.79770E-02   -0.79759E-02   768   0.175E-01-0.666E-04
CGA:   6    -0.662992962805E+03   -0.32187E-02   -0.32185E-02   768   0.845E-02 0.217E-04
CGA:   7    -0.662994506945E+03   -0.15441E-02   -0.15442E-02   768   0.470E-02-0.799E-05
CGA:   8    -0.662995305111E+03   -0.79817E-03   -0.79827E-03   768   0.192E-02 0.619E-05
CGA:   9    -0.662995679278E+03   -0.37417E-03   -0.37421E-03   768   0.659E-03-0.205E-05
CGA:  10    -0.662995800469E+03   -0.12119E-03   -0.12119E-03   768   0.285E-03 0.719E-06
CGA:  11    -0.662995845004E+03   -0.44534E-04   -0.44525E-04   768   0.114E-03-0.359E-06
  28 F= -.66954914E+03 E0= -.66953919E+03  d E =-.209374E-01  mag=     1.1386
       N       E                     dE             d eps       ncg     rms          ort
SDA:   1    -0.662899286271E+03    0.96514E-01    0.00000E+00   768   0.293E+00 0.000E+00
CGA:   2    -0.662964725896E+03   -0.65440E-01   -0.65417E-01   768   0.164E+00 0.342E-03
CGA:   3    -0.662991463556E+03   -0.26738E-01   -0.26727E-01   768   0.765E-01-0.257E-03
CGA:   4    -0.663003266265E+03   -0.11803E-01   -0.11804E-01   768   0.213E-01-0.144E-04
CGA:   5    -0.663006998487E+03   -0.37322E-02   -0.37321E-02   768   0.750E-02-0.109E-04
CGA:   6    -0.663008376870E+03   -0.13784E-02   -0.13783E-02   768   0.295E-02 0.716E-05
CGA:   7    -0.663008904473E+03   -0.52760E-03   -0.52759E-03   768   0.167E-02-0.335E-05
CGA:   8    -0.663009208071E+03   -0.30360E-03   -0.30360E-03   768   0.838E-03-0.707E-06
CGA:   9    -0.663009371807E+03   -0.16374E-03   -0.16377E-03   768   0.310E-03-0.186E-05
CGA:  10    -0.663009436374E+03   -0.64568E-04   -0.64529E-04   768   0.150E-03 0.139E-05
  29 F= -.66956301E+03 E0= -.66955303E+03  d E =-.138692E-01  mag=     1.1381
       N       E                     dE             d eps       ncg     rms          ort
SDA:   1    -0.662893691207E+03    0.11568E+00    0.00000E+00   768   0.320E+00 0.000E+00
CGA:   2    -0.662965004106E+03   -0.71313E-01   -0.71285E-01   768   0.182E+00 0.435E-03
CGA:   3    -0.662994212267E+03   -0.29208E-01   -0.29193E-01   768   0.841E-01-0.326E-03
CGA:   4    -0.663007270245E+03   -0.13058E-01   -0.13060E-01   768   0.235E-01-0.164E-04
CGA:   5    -0.663011318234E+03   -0.40480E-02   -0.40477E-02   768   0.851E-02-0.160E-04
CGA:   6    -0.663012858714E+03   -0.15405E-02   -0.15405E-02   768   0.337E-02 0.792E-05
CGA:   7    -0.663013453991E+03   -0.59528E-03   -0.59525E-03   768   0.185E-02-0.375E-05
CGA:   8    -0.663013799276E+03   -0.34528E-03   -0.34529E-03   768   0.916E-03-0.652E-06
CGA:   9    -0.663013979849E+03   -0.18057E-03   -0.18061E-03   768   0.353E-03-0.203E-05
CGA:  10    -0.663014049935E+03   -0.70086E-04   -0.70061E-04   768   0.173E-03 0.140E-05
  30 F= -.66956787E+03 E0= -.66955786E+03  d E =-.187319E-01  mag=     1.1378
       N       E                     dE             d eps       ncg     rms          ort
SDA:   1    -0.662884026249E+03    0.12995E+00    0.00000E+00   768   0.389E+00 0.000E+00
CGA:   2    -0.662971607978E+03   -0.87582E-01   -0.87528E-01   768   0.199E+00 0.816E-03
CGA:   3    -0.663003566685E+03   -0.31959E-01   -0.31942E-01   768   0.101E+00-0.341E-03
CGA:   4    -0.663018745562E+03   -0.15179E-01   -0.15179E-01   768   0.241E-01-0.430E-04
CGA:   5    -0.663022796690E+03   -0.40511E-02   -0.40506E-02   768   0.884E-02-0.149E-04
CGA:   6    -0.663024403342E+03   -0.16067E-02   -0.16066E-02   768   0.344E-02 0.101E-04
CGA:   7    -0.663024996663E+03   -0.59332E-03   -0.59327E-03   768   0.173E-02-0.450E-05
CGA:   8    -0.663025326075E+03   -0.32941E-03   -0.32943E-03   768   0.841E-03-0.228E-05
CGA:   9    -0.663025491004E+03   -0.16493E-03   -0.16497E-03   768   0.355E-03-0.234E-05
CGA:  10    -0.663025559461E+03   -0.68456E-04   -0.68435E-04   768   0.176E-03 0.171E-05
  31 F= -.66957968E+03 E0= -.66956956E+03  d E =-.118056E-01  mag=     1.1374
       N       E                     dE             d eps       ncg     rms          ort
SDA:   1    -0.662564354547E+03    0.46114E+00    0.00000E+00   768   0.129E+01 0.000E+00
CGA:   2    -0.662854397570E+03   -0.29004E+00   -0.28974E+00   768   0.657E+00 0.448E-02
CGA:   3    -0.662960506854E+03   -0.10611E+00   -0.10602E+00   768   0.335E+00-0.196E-02
CGA:   4    -0.663010556355E+03   -0.50050E-01   -0.50057E-01   768   0.793E-01-0.152E-03
CGA:   5    -0.663024024844E+03   -0.13468E-01   -0.13465E-01   768   0.291E-01-0.148E-03
CGA:   6    -0.663029291963E+03   -0.52671E-02   -0.52670E-02   768   0.114E-01 0.343E-04
CGA:   7    -0.663031247504E+03   -0.19555E-02   -0.19553E-02   768   0.570E-02-0.169E-04
CGA:   8    -0.663032332792E+03   -0.10853E-02   -0.10853E-02   768   0.276E-02-0.466E-06
CGA:   9    -0.663032875741E+03   -0.54295E-03   -0.54309E-03   768   0.116E-02-0.644E-05
CGA:  10    -0.663033098763E+03   -0.22302E-03   -0.22298E-03   768   0.579E-03 0.353E-05
CGA:  11    -0.663033195338E+03   -0.96575E-04   -0.96584E-04   768   0.216E-03 0.708E-06
  32 F= -.66958778E+03 E0= -.66957747E+03  d E =-.199043E-01  mag=     1.1371
       N       E                     dE             d eps       ncg     rms          ort
SDA:   1    -0.662876689822E+03    0.15641E+00    0.00000E+00   768   0.428E+00 0.000E+00
CGA:   2    -0.662984970280E+03   -0.10828E+00   -0.10816E+00   768   0.243E+00 0.130E-02
CGA:   3    -0.663017471078E+03   -0.32501E-01   -0.32507E-01   768   0.108E+00-0.413E-04
CGA:   4    -0.663034661244E+03   -0.17190E-01   -0.17187E-01   768   0.205E-01-0.700E-04
CGA:   5    -0.663038732234E+03   -0.40710E-02   -0.40709E-02   768   0.687E-02 0.119E-04
CGA:   6    -0.663039939835E+03   -0.12076E-02   -0.12077E-02   768   0.248E-02 0.870E-05
CGA:   7    -0.663040376484E+03   -0.43665E-03   -0.43665E-03   768   0.133E-02 0.167E-06
CGA:   8    -0.663040616668E+03   -0.24018E-03   -0.24018E-03   768   0.656E-03 0.530E-06
CGA:   9    -0.663040749121E+03   -0.13245E-03   -0.13246E-03   768   0.291E-03-0.491E-06
CGA:  10    -0.663040815954E+03   -0.66832E-04   -0.66757E-04   768   0.162E-03 0.162E-05
  33 F= -.66959595E+03 E0= -.66958579E+03  d E =-.817145E-02  mag=     1.1343
       N       E                     dE             d eps       ncg     rms          ort
SDA:   1    -0.663011130228E+03    0.29619E-01    0.00000E+00   768   0.796E-01 0.000E+00
CGA:   2    -0.663030690616E+03   -0.19560E-01   -0.19551E-01   768   0.490E-01 0.116E-03
CGA:   3    -0.663036930476E+03   -0.62399E-02   -0.62407E-02   768   0.196E-01-0.534E-05
CGA:   4    -0.663040266587E+03   -0.33361E-02   -0.33358E-02   768   0.377E-02-0.217E-04
CGA:   5    -0.663040997486E+03   -0.73090E-03   -0.73082E-03   768   0.136E-02 0.789E-05
CGA:   6    -0.663041236810E+03   -0.23932E-03   -0.23935E-03   768   0.469E-03 0.281E-05
CGA:   7    -0.663041323938E+03   -0.87128E-04   -0.87128E-04   768   0.265E-03 0.436E-07
  34 F= -.66959668E+03 E0= -.66958661E+03  d E =-.890730E-02  mag=     1.1326
       N       E                     dE             d eps       ncg     rms          ort
SDA:   1    -0.662853302041E+03    0.18793E+00    0.00000E+00   768   0.484E+00 0.000E+00
CGA:   2    -0.662986433797E+03   -0.13313E+00   -0.13297E+00   768   0.274E+00 0.141E-02
CGA:   3    -0.663023047264E+03   -0.36613E-01   -0.36615E-01   768   0.114E+00-0.685E-04
CGA:   4    -0.663040307783E+03   -0.17261E-01   -0.17261E-01   768   0.247E-01-0.279E-04
CGA:   5    -0.663044986305E+03   -0.46785E-02   -0.46786E-02   768   0.782E-02 0.231E-05
CGA:   6    -0.663046348110E+03   -0.13618E-02   -0.13619E-02   768   0.302E-02 0.687E-05
CGA:   7    -0.663046884533E+03   -0.53642E-03   -0.53642E-03   768   0.159E-02-0.393E-06
CGA:   8    -0.663047165482E+03   -0.28095E-03   -0.28096E-03   768   0.722E-03 0.918E-06
CGA:   9    -0.663047321116E+03   -0.15563E-03   -0.15563E-03   768   0.334E-03 0.151E-06
CGA:  10    -0.663047390102E+03   -0.68986E-04   -0.68934E-04   768   0.179E-03 0.230E-05
  35 F= -.66960317E+03 E0= -.66959329E+03  d E =-.648356E-02  mag=     1.1321
       N       E                     dE             d eps       ncg     rms          ort
SDA:   1    -0.663036594984E+03    0.10726E-01    0.00000E+00   768   0.277E-01 0.000E+00
CGA:   2    -0.663043924292E+03   -0.73293E-02   -0.73272E-02   768   0.178E-01 0.200E-04
CGA:   3    -0.663046124840E+03   -0.22005E-02   -0.22009E-02   768   0.640E-02-0.502E-06
CGA:   4    -0.663047190273E+03   -0.10654E-02   -0.10653E-02   768   0.140E-02-0.795E-05
CGA:   5    -0.663047441781E+03   -0.25151E-03   -0.25152E-03   768   0.467E-03 0.247E-05
CGA:   6    -0.663047527741E+03   -0.85960E-04   -0.85960E-04   768   0.178E-03 0.567E-06
  36 F= -.66960340E+03 E0= -.66959357E+03  d E =-.671797E-02  mag=     1.1319
       N       E                     dE             d eps       ncg     rms          ort
SDA:   1    -0.662920814901E+03    0.12663E+00    0.00000E+00   768   0.326E+00 0.000E+00
CGA:   2    -0.663016149286E+03   -0.95334E-01   -0.95288E-01   768   0.171E+00 0.314E-03
CGA:   3    -0.663038291975E+03   -0.22143E-01   -0.22136E-01   768   0.692E-01-0.470E-04
CGA:   4    -0.663049120366E+03   -0.10828E-01   -0.10828E-01   768   0.159E-01-0.246E-04
CGA:   5    -0.663052033240E+03   -0.29129E-02   -0.29129E-02   768   0.457E-02 0.420E-05
CGA:   6    -0.663052854760E+03   -0.82152E-03   -0.82154E-03   768   0.194E-02 0.340E-05
CGA:   7    -0.663053198249E+03   -0.34349E-03   -0.34350E-03   768   0.949E-03 0.115E-05
CGA:   8    -0.663053368044E+03   -0.16979E-03   -0.16980E-03   768   0.482E-03 0.152E-05
CGA:   9    -0.663053472859E+03   -0.10482E-03   -0.10482E-03   768   0.219E-03-0.114E-06
CGA:  10    -0.663053518800E+03   -0.45941E-04   -0.45915E-04   768   0.118E-03 0.104E-05
  37 F= -.66960974E+03 E0= -.66959998E+03  d E =-.633485E-02  mag=     1.1272
       N       E                     dE             d eps       ncg     rms          ort
SDA:   1    -0.662849770886E+03    0.20370E+00    0.00000E+00   768   0.506E+00 0.000E+00
CGA:   2    -0.662998649860E+03   -0.14888E+00   -0.14881E+00   768   0.258E+00 0.450E-03
CGA:   3    -0.663032836869E+03   -0.34187E-01   -0.34172E-01   768   0.107E+00-0.896E-04
CGA:   4    -0.663049163558E+03   -0.16327E-01   -0.16326E-01   768   0.239E-01-0.325E-04
CGA:   5    -0.663053535515E+03   -0.43720E-02   -0.43719E-02   768   0.687E-02 0.161E-05
CGA:   6    -0.663054777202E+03   -0.12417E-02   -0.12417E-02   768   0.286E-02 0.498E-05
CGA:   7    -0.663055285505E+03   -0.50830E-03   -0.50831E-03   768   0.139E-02 0.137E-05
CGA:   8    -0.663055533139E+03   -0.24763E-03   -0.24765E-03   768   0.710E-03 0.188E-05
CGA:   9    -0.663055686753E+03   -0.15361E-03   -0.15362E-03   768   0.323E-03-0.171E-06
CGA:  10    -0.663055756136E+03   -0.69382E-04   -0.69346E-04   768   0.176E-03 0.127E-05
  38 F= -.66961239E+03 E0= -.66960269E+03  d E =-.898933E-02  mag=     1.1213
       N       E                     dE             d eps       ncg     rms          ort
SDA:   1    -0.662885095596E+03    0.17059E+00    0.00000E+00   768   0.454E+00 0.000E+00
CGA:   2    -0.663005176118E+03   -0.12008E+00   -0.12007E+00   768   0.234E+00 0.114E-03
CGA:   3    -0.663040582238E+03   -0.35406E-01   -0.35395E-01   768   0.954E-01-0.103E-03
CGA:   4    -0.663054811433E+03   -0.14229E-01   -0.14232E-01   768   0.256E-01 0.388E-05
CGA:   5    -0.663059308460E+03   -0.44970E-02   -0.44969E-02   768   0.779E-02-0.629E-05
CGA:   6    -0.663060829309E+03   -0.15208E-02   -0.15209E-02   768   0.309E-02-0.342E-05
CGA:   7    -0.663061517300E+03   -0.68799E-03   -0.68806E-03   768   0.135E-02-0.138E-05
CGA:   8    -0.663061831865E+03   -0.31457E-03   -0.31448E-03   768   0.722E-03 0.169E-05
CGA:   9    -0.663061957592E+03   -0.12573E-03   -0.12572E-03   768   0.397E-03 0.177E-07
CGA:  10    -0.663062020884E+03   -0.63292E-04   -0.63331E-04   768   0.130E-03 0.122E-05
  39 F= -.66961862E+03 E0= -.66960890E+03  d E =-.622804E-02  mag=     1.1241
       N       E                     dE             d eps       ncg     rms          ort
SDA:   1    -0.661887131976E+03    0.11748E+01    0.00000E+00   768   0.303E+01 0.000E+00
CGA:   2    -0.662690085189E+03   -0.80295E+00   -0.80277E+00   768   0.155E+01 0.157E-02
CGA:   3    -0.662926577093E+03   -0.23649E+00   -0.23636E+00   768   0.635E+00-0.116E-02
CGA:   4    -0.663020753940E+03   -0.94177E-01   -0.94207E-01   768   0.171E+00-0.312E-04
CGA:   5    -0.663051130345E+03   -0.30376E-01   -0.30375E-01   768   0.509E-01-0.102E-03
CGA:   6    -0.663061117297E+03   -0.99870E-02   -0.99873E-02   768   0.203E-01-0.379E-04
CGA:   7    -0.663065621072E+03   -0.45038E-02   -0.45036E-02   768   0.860E-02 0.314E-05
CGA:   8    -0.663067724645E+03   -0.21036E-02   -0.21042E-02   768   0.419E-02-0.730E-05
CGA:   9    -0.663068557251E+03   -0.83261E-03   -0.83256E-03   768   0.229E-02 0.619E-05
CGA:  10    -0.663068896256E+03   -0.33900E-03   -0.33894E-03   768   0.885E-03-0.266E-06
CGA:  11    -0.663069077845E+03   -0.18159E-03   -0.18156E-03   768   0.252E-03 0.207E-05
CGA:  12    -0.663069138742E+03   -0.60897E-04   -0.60900E-04   768   0.120E-03-0.660E-07
  40 F= -.66962563E+03 E0= -.66961586E+03  d E =-.132336E-01  mag=     1.1336
       N       E                     dE             d eps       ncg     rms          ort
SDA:   1    -0.662667202585E+03    0.40188E+00    0.00000E+00   768   0.113E+01 0.000E+00
CGA:   2    -0.662904828451E+03   -0.23763E+00   -0.23766E+00   768   0.650E+00-0.111E-02
CGA:   3    -0.663005328999E+03   -0.10050E+00   -0.10065E+00   768   0.291E+00 0.123E-02
CGA:   4    -0.663050747327E+03   -0.45418E-01   -0.45388E-01   768   0.832E-01-0.104E-03
CGA:   5    -0.663065923274E+03   -0.15176E-01   -0.15178E-01   768   0.299E-01 0.113E-03
CGA:   6    -0.663071421916E+03   -0.54986E-02   -0.54980E-02   768   0.138E-01-0.501E-04
CGA:   7    -0.663074062222E+03   -0.26403E-02   -0.26403E-02   768   0.749E-02 0.109E-04
CGA:   8    -0.663075370719E+03   -0.13085E-02   -0.13082E-02   768   0.334E-02-0.879E-05
CGA:   9    -0.663076026535E+03   -0.65582E-03   -0.65577E-03   768   0.121E-02 0.476E-05
CGA:  10    -0.663076260049E+03   -0.23351E-03   -0.23352E-03   768   0.495E-03-0.818E-06
CGA:  11    -0.663076340623E+03   -0.80574E-04   -0.80602E-04   768   0.204E-03 0.986E-06
  41 F= -.66963266E+03 E0= -.66962289E+03  d E =-.703647E-02  mag=     1.1365
       N       E                     dE             d eps       ncg     rms          ort
SDA:   1    -0.662867022843E+03    0.20924E+00    0.00000E+00   768   0.581E+00 0.000E+00
CGA:   2    -0.662989736872E+03   -0.12271E+00   -0.12273E+00   768   0.333E+00-0.410E-03
CGA:   3    -0.663041555822E+03   -0.51819E-01   -0.51859E-01   768   0.150E+00 0.445E-03
CGA:   4    -0.663064843018E+03   -0.23287E-01   -0.23278E-01   768   0.430E-01-0.303E-04
CGA:   5    -0.663072651156E+03   -0.78081E-02   -0.78085E-02   768   0.151E-01 0.426E-04
CGA:   6    -0.663075502203E+03   -0.28510E-02   -0.28511E-02   768   0.707E-02-0.222E-04
CGA:   7    -0.663076852032E+03   -0.13498E-02   -0.13498E-02   768   0.388E-02 0.252E-05
CGA:   8    -0.663077522699E+03   -0.67067E-03   -0.67057E-03   768   0.173E-02-0.373E-05
CGA:   9    -0.663077861907E+03   -0.33921E-03   -0.33918E-03   768   0.624E-03 0.261E-05
CGA:  10    -0.663077985080E+03   -0.12317E-03   -0.12318E-03   768   0.254E-03-0.401E-06
CGA:  11    -0.663078026649E+03   -0.41569E-04   -0.41585E-04   768   0.111E-03 0.697E-06
  42 F= -.66963423E+03 E0= -.66962445E+03  d E =-.860251E-02  mag=     1.1388
       N       E                     dE             d eps       ncg     rms          ort
SDA:   1    -0.662817182039E+03    0.26080E+00    0.00000E+00   768   0.747E+00 0.000E+00
CGA:   2    -0.662968164641E+03   -0.15098E+00   -0.15101E+00   768   0.439E+00-0.760E-03
CGA:   3    -0.663034644271E+03   -0.66480E-01   -0.66571E-01   768   0.194E+00 0.101E-02
CGA:   4    -0.663065918880E+03   -0.31275E-01   -0.31265E-01   768   0.572E-01-0.674E-04
CGA:   5    -0.663076276789E+03   -0.10358E-01   -0.10358E-01   768   0.205E-01 0.756E-04
CGA:   6    -0.663080166772E+03   -0.38900E-02   -0.38904E-02   768   0.965E-02-0.404E-04
CGA:   7    -0.663081999821E+03   -0.18330E-02   -0.18330E-02   768   0.528E-02 0.157E-05
CGA:   8    -0.663082919840E+03   -0.92002E-03   -0.91989E-03   768   0.229E-02-0.777E-05
CGA:   9    -0.663083361313E+03   -0.44147E-03   -0.44143E-03   768   0.810E-03 0.352E-05
CGA:  10    -0.663083517667E+03   -0.15635E-03   -0.15635E-03   768   0.327E-03 0.127E-06
CGA:  11    -0.663083569757E+03   -0.52090E-04   -0.52119E-04   768   0.132E-03 0.115E-05
  43 F= -.66963952E+03 E0= -.66962974E+03  d E =-.528884E-02  mag=     1.1426
       N       E                     dE             d eps       ncg     rms          ort
SDA:   1    -0.662833450284E+03    0.25007E+00    0.00000E+00   768   0.707E+00 0.000E+00
CGA:   2    -0.662976365335E+03   -0.14292E+00   -0.14294E+00   768   0.414E+00-0.722E-03
CGA:   3    -0.663039216578E+03   -0.62851E-01   -0.62930E-01   768   0.184E+00 0.963E-03
CGA:   4    -0.663068781527E+03   -0.29565E-01   -0.29557E-01   768   0.542E-01-0.629E-04
CGA:   5    -0.663078571790E+03   -0.97903E-02   -0.97904E-02   768   0.194E-01 0.708E-04
CGA:   6    -0.663082251874E+03   -0.36801E-02   -0.36806E-02   768   0.915E-02-0.384E-04
CGA:   7    -0.663083987301E+03   -0.17354E-02   -0.17354E-02   768   0.501E-02 0.116E-05
CGA:   8    -0.663084860820E+03   -0.87352E-03   -0.87342E-03   768   0.217E-02-0.735E-05
CGA:   9    -0.663085279000E+03   -0.41818E-03   -0.41813E-03   768   0.767E-03 0.338E-05
CGA:  10    -0.663085426965E+03   -0.14797E-03   -0.14797E-03   768   0.312E-03 0.115E-06
CGA:  11    -0.663085476569E+03   -0.49603E-04   -0.49630E-04   768   0.126E-03 0.111E-05
  44 F= -.66964117E+03 E0= -.66963140E+03  d E =-.694678E-02  mag=     1.1465
       N       E                     dE             d eps       ncg     rms          ort
SDA:   1    -0.662903077422E+03    0.18235E+00    0.00000E+00   768   0.521E+00 0.000E+00
CGA:   2    -0.663009586045E+03   -0.10651E+00   -0.10653E+00   768   0.303E+00-0.470E-03
CGA:   3    -0.663056050880E+03   -0.46465E-01   -0.46508E-01   768   0.135E+00 0.595E-03
CGA:   4    -0.663077692932E+03   -0.21642E-01   -0.21636E-01   768   0.405E-01-0.416E-04
CGA:   5    -0.663084965664E+03   -0.72727E-02   -0.72728E-02   768   0.141E-01 0.447E-04
CGA:   6    -0.663087627224E+03   -0.26616E-02   -0.26619E-02   768   0.670E-02-0.260E-04
CGA:   7    -0.663088900636E+03   -0.12734E-02   -0.12734E-02   768   0.363E-02-0.747E-06
CGA:   8    -0.663089529127E+03   -0.62849E-03   -0.62842E-03   768   0.157E-02-0.526E-05
CGA:   9    -0.663089835700E+03   -0.30657E-03   -0.30653E-03   768   0.566E-03 0.224E-05
CGA:  10    -0.663089944514E+03   -0.10881E-03   -0.10882E-03   768   0.232E-03-0.375E-06
CGA:  11    -0.663089981858E+03   -0.37344E-04   -0.37357E-04   768   0.950E-04 0.618E-06
  45 F= -.66964558E+03 E0= -.66963576E+03  d E =-.440109E-02  mag=     1.1468
       N       E                     dE             d eps       ncg     rms          ort
SDA:   1    -0.662651406965E+03    0.43854E+00    0.00000E+00   768   0.123E+01 0.000E+00
CGA:   2    -0.662903081377E+03   -0.25167E+00   -0.25174E+00   768   0.715E+00-0.165E-02
CGA:   3    -0.663012533135E+03   -0.10945E+00   -0.10961E+00   768   0.318E+00 0.216E-02
CGA:   4    -0.663063535208E+03   -0.51002E-01   -0.50980E-01   768   0.958E-01-0.229E-03
CGA:   5    -0.663080694845E+03   -0.17160E-01   -0.17160E-01   768   0.336E-01 0.157E-03
CGA:   6    -0.663086988947E+03   -0.62941E-02   -0.62950E-02   768   0.159E-01-0.781E-04
CGA:   7    -0.663090006325E+03   -0.30174E-02   -0.30171E-02   768   0.855E-02 0.110E-04
CGA:   8    -0.663091495955E+03   -0.14896E-02   -0.14895E-02   768   0.371E-02-0.139E-04
CGA:   9    -0.663092217115E+03   -0.72116E-03   -0.72106E-03   768   0.134E-02 0.528E-05
CGA:  10    -0.663092471760E+03   -0.25465E-03   -0.25466E-03   768   0.547E-03-0.104E-05
CGA:  11    -0.663092559760E+03   -0.87999E-04   -0.88019E-04   768   0.217E-03 0.942E-06
  46 F= -.66964798E+03 E0= -.66963811E+03  d E =-.680604E-02  mag=     1.1469
       N       E                     dE             d eps       ncg     rms          ort
SDA:   1    -0.662966484182E+03    0.12599E+00    0.00000E+00   768   0.346E+00 0.000E+00
CGA:   2    -0.663047640642E+03   -0.81156E-01   -0.81172E-01   768   0.195E+00-0.194E-03
CGA:   3    -0.663076622228E+03   -0.28982E-01   -0.29005E-01   768   0.824E-01 0.222E-03
CGA:   4    -0.663089342397E+03   -0.12720E-01   -0.12717E-01   768   0.237E-01-0.458E-05
CGA:   5    -0.663093391878E+03   -0.40495E-02   -0.40498E-02   768   0.745E-02 0.144E-04
CGA:   6    -0.663094797686E+03   -0.14058E-02   -0.14060E-02   768   0.360E-02-0.122E-04
CGA:   7    -0.663095463101E+03   -0.66542E-03   -0.66543E-03   768   0.187E-02-0.413E-05
CGA:   8    -0.663095795839E+03   -0.33274E-03   -0.33273E-03   768   0.858E-03-0.377E-05
CGA:   9    -0.663095968076E+03   -0.17224E-03   -0.17221E-03   768   0.338E-03 0.118E-05
CGA:  10    -0.663096033728E+03   -0.65651E-04   -0.65650E-04   768   0.150E-03 0.120E-06
  47 F= -.66965143E+03 E0= -.66964155E+03  d E =-.345093E-02  mag=     1.1505
       N       E                     dE             d eps       ncg     rms          ort
SDA:   1    -0.662742851361E+03    0.35312E+00    0.00000E+00   768   0.949E+00 0.000E+00
CGA:   2    -0.662964764467E+03   -0.22191E+00   -0.22199E+00   768   0.542E+00-0.891E-03
CGA:   3    -0.663044318217E+03   -0.79554E-01   -0.79679E-01   768   0.227E+00 0.112E-02
CGA:   4    -0.663079619317E+03   -0.35301E-01   -0.35288E-01   768   0.652E-01-0.648E-04
CGA:   5    -0.663090741320E+03   -0.11122E-01   -0.11124E-01   768   0.212E-01 0.701E-04
CGA:   6    -0.663094666392E+03   -0.39251E-02   -0.39254E-02   768   0.995E-02-0.373E-04
CGA:   7    -0.663096524553E+03   -0.18582E-02   -0.18581E-02   768   0.512E-02-0.151E-05
CGA:   8    -0.663097437861E+03   -0.91331E-03   -0.91327E-03   768   0.234E-02-0.895E-05
CGA:   9    -0.663097906190E+03   -0.46833E-03   -0.46825E-03   768   0.927E-03 0.308E-05
CGA:  10    -0.663098082993E+03   -0.17680E-03   -0.17681E-03   768   0.402E-03-0.105E-06
CGA:  11    -0.663098148734E+03   -0.65741E-04   -0.65763E-04   768   0.157E-03 0.116E-05
  48 F= -.66965349E+03 E0= -.66964360E+03  d E =-.551121E-02  mag=     1.1570
       N       E                     dE             d eps       ncg     rms          ort
SDA:   1    -0.662942604376E+03    0.15548E+00    0.00000E+00   768   0.413E+00 0.000E+00
CGA:   2    -0.663048927874E+03   -0.10632E+00   -0.10634E+00   768   0.201E+00-0.181E-03
CGA:   3    -0.663082029765E+03   -0.33102E-01   -0.33102E-01   768   0.878E-01-0.583E-05
CGA:   4    -0.663094773612E+03   -0.12744E-01   -0.12744E-01   768   0.240E-01 0.344E-05
CGA:   5    -0.663098895255E+03   -0.41216E-02   -0.41217E-02   768   0.687E-02 0.325E-05
CGA:   6    -0.663100297978E+03   -0.14027E-02   -0.14029E-02   768   0.298E-02-0.488E-05
CGA:   7    -0.663100935890E+03   -0.63791E-03   -0.63800E-03   768   0.130E-02-0.317E-05
CGA:   8    -0.663101208811E+03   -0.27292E-03   -0.27299E-03   768   0.776E-03-0.235E-05
CGA:   9    -0.663101330226E+03   -0.12142E-03   -0.12145E-03   768   0.348E-03 0.909E-06
CGA:  10    -0.663101396967E+03   -0.66741E-04   -0.66741E-04   768   0.114E-03 0.144E-06
  49 F= -.66965699E+03 E0= -.66964709E+03  d E =-.349374E-02  mag=     1.1571
       N       E                     dE             d eps       ncg     rms          ort
SDA:   1    -0.662872288470E+03    0.22904E+00    0.00000E+00   768   0.599E+00 0.000E+00
CGA:   2    -0.663026438914E+03   -0.15415E+00   -0.15418E+00   768   0.293E+00-0.367E-03
CGA:   3    -0.663074369597E+03   -0.47931E-01   -0.47940E-01   768   0.127E+00 0.104E-03
CGA:   4    -0.663092862628E+03   -0.18493E-01   -0.18489E-01   768   0.349E-01 0.198E-05
CGA:   5    -0.663098836495E+03   -0.59739E-02   -0.59743E-02   768   0.102E-01 0.123E-04
CGA:   6    -0.663100859488E+03   -0.20230E-02   -0.20232E-02   768   0.462E-02-0.907E-05
CGA:   7    -0.663101762038E+03   -0.90255E-03   -0.90256E-03   768   0.230E-02-0.239E-05
CGA:   8    -0.663102156540E+03   -0.39450E-03   -0.39443E-03   768   0.124E-02-0.320E-05
CGA:   9    -0.663102387510E+03   -0.23097E-03   -0.23097E-03   768   0.467E-03 0.123E-05
CGA:  10    -0.663102489748E+03   -0.10224E-03   -0.10223E-03   768   0.181E-03 0.213E-06
CGA:  11    -0.663102523717E+03   -0.33969E-04   -0.33969E-04   768   0.927E-04 0.635E-06
  50 F= -.66965840E+03 E0= -.66964849E+03  d E =-.490946E-02  mag=     1.1570
       N       E                     dE             d eps       ncg     rms          ort
SDA:   1    -0.663022135513E+03    0.80354E-01    0.00000E+00   768   0.214E+00 0.000E+00
CGA:   2    -0.663079331027E+03   -0.57196E-01   -0.57186E-01   768   0.984E-01 0.826E-04
CGA:   3    -0.663095810492E+03   -0.16479E-01   -0.16478E-01   768   0.431E-01-0.391E-04
CGA:   4    -0.663101879351E+03   -0.60689E-02   -0.60701E-02   768   0.112E-01-0.886E-06
CGA:   5    -0.663103784741E+03   -0.19054E-02   -0.19053E-02   768   0.315E-02-0.357E-06
CGA:   6    -0.663104425564E+03   -0.64082E-03   -0.64087E-03   768   0.135E-02-0.272E-05
CGA:   7    -0.663104698137E+03   -0.27257E-03   -0.27263E-03   768   0.647E-03-0.354E-05
CGA:   8    -0.663104815625E+03   -0.11749E-03   -0.11748E-03   768   0.377E-03-0.855E-06
CGA:   9    -0.663104879685E+03   -0.64060E-04   -0.64052E-04   768   0.151E-03-0.406E-06
  51 F= -.66966096E+03 E0= -.66965106E+03  d E =-.255469E-02  mag=     1.1575
       N       E                     dE             d eps       ncg     rms          ort
SDA:   1    -0.662472148874E+03    0.63267E+00    0.00000E+00   768   0.165E+01 0.000E+00
CGA:   2    -0.662911040468E+03   -0.43889E+00   -0.43870E+00   768   0.751E+00 0.180E-02
CGA:   3    -0.663038145544E+03   -0.12711E+00   -0.12710E+00   768   0.325E+00-0.232E-03
CGA:   4    -0.663084251994E+03   -0.46106E-01   -0.46123E-01   768   0.842E-01 0.268E-04
CGA:   5    -0.663098690845E+03   -0.14439E-01   -0.14438E-01   768   0.248E-01-0.310E-04
CGA:   6    -0.663103630691E+03   -0.49398E-02   -0.49399E-02   768   0.101E-01-0.830E-05
CGA:   7    -0.663105812103E+03   -0.21814E-02   -0.21818E-02   768   0.414E-02-0.122E-04
CGA:   8    -0.663106767768E+03   -0.95567E-03   -0.95557E-03   768   0.215E-02 0.845E-06
CGA:   9    -0.663107143883E+03   -0.37612E-03   -0.37609E-03   768   0.122E-02-0.619E-06
CGA:  10    -0.663107338786E+03   -0.19490E-03   -0.19498E-03   768   0.391E-03 0.246E-05
CGA:  11    -0.663107427138E+03   -0.88353E-04   -0.88348E-04   768   0.128E-03 0.160E-06
  52 F= -.66966405E+03 E0= -.66965419E+03  d E =-.564997E-02  mag=     1.1585
       N       E                     dE             d eps       ncg     rms          ort
SDA:   1    -0.662983101546E+03    0.12424E+00    0.00000E+00   768   0.334E+00 0.000E+00
CGA:   2    -0.663070059021E+03   -0.86957E-01   -0.86947E-01   768   0.159E+00 0.831E-04
CGA:   3    -0.663095506398E+03   -0.25447E-01   -0.25434E-01   768   0.709E-01-0.149E-03
CGA:   4    -0.663105662165E+03   -0.10156E-01   -0.10159E-01   768   0.183E-01-0.157E-04
CGA:   5    -0.663108769447E+03   -0.31073E-02   -0.31069E-02   768   0.532E-02-0.505E-05
CGA:   6    -0.663109755570E+03   -0.98612E-03   -0.98613E-03   768   0.251E-02 0.108E-06
CGA:   7    -0.663110202440E+03   -0.44687E-03   -0.44683E-03   768   0.117E-02-0.262E-05
CGA:   8    -0.663110415015E+03   -0.21257E-03   -0.21257E-03   768   0.574E-03-0.776E-06
CGA:   9    -0.663110532596E+03   -0.11758E-03   -0.11760E-03   768   0.245E-03-0.106E-05
CGA:  10    -0.663110581944E+03   -0.49348E-04   -0.49339E-04   768   0.118E-03 0.772E-06
  53 F= -.66966762E+03 E0= -.66965776E+03  d E =-.357018E-02  mag=     1.1584
       N       E                     dE             d eps       ncg     rms          ort
SDA:   1    -0.661965985204E+03    0.11445E+01    0.00000E+00   768   0.302E+01 0.000E+00
CGA:   2    -0.662746222578E+03   -0.78024E+00   -0.77993E+00   768   0.147E+01 0.252E-02
CGA:   3    -0.662976453427E+03   -0.23023E+00   -0.22986E+00   768   0.650E+00-0.391E-02
CGA:   4    -0.663069542577E+03   -0.93089E-01   -0.93185E-01   768   0.166E+00-0.108E-03
CGA:   5    -0.663097952547E+03   -0.28410E-01   -0.28399E-01   768   0.493E-01-0.295E-03
CGA:   6    -0.663107066414E+03   -0.91139E-02   -0.91140E-02   768   0.222E-01 0.227E-04
CGA:   7    -0.663111107689E+03   -0.40413E-02   -0.40410E-02   768   0.105E-01-0.284E-04
CGA:   8    -0.663112972474E+03   -0.18648E-02   -0.18649E-02   768   0.510E-02 0.363E-05
CGA:   9    -0.663114019236E+03   -0.10468E-02   -0.10469E-02   768   0.214E-02-0.621E-05
CGA:  10    -0.663114453578E+03   -0.43434E-03   -0.43428E-03   768   0.102E-02 0.336E-05
CGA:  11    -0.663114621057E+03   -0.16748E-03   -0.16747E-03   768   0.409E-03-0.215E-06
CGA:  12    -0.663114699534E+03   -0.78477E-04   -0.78472E-04   768   0.152E-03 0.121E-05
  54 F= -.66967298E+03 E0= -.66966312E+03  d E =-.892456E-02  mag=     1.1576
       N       E                     dE             d eps       ncg     rms          ort
SDA:   1    -0.662884628014E+03    0.22999E+00    0.00000E+00   768   0.632E+00 0.000E+00
CGA:   2    -0.663036963041E+03   -0.15234E+00   -0.15229E+00   768   0.329E+00 0.592E-03
CGA:   3    -0.663087228994E+03   -0.50266E-01   -0.50217E-01   768   0.139E+00-0.490E-03
CGA:   4    -0.663108423983E+03   -0.21195E-01   -0.21202E-01   768   0.377E-01-0.258E-04
CGA:   5    -0.663114876896E+03   -0.64529E-02   -0.64517E-02   768   0.114E-01-0.351E-04
CGA:   6    -0.663117013659E+03   -0.21368E-02   -0.21368E-02   768   0.520E-02 0.909E-06
CGA:   7    -0.663117985702E+03   -0.97204E-03   -0.97205E-03   768   0.265E-02-0.672E-05
CGA:   8    -0.663118444317E+03   -0.45862E-03   -0.45862E-03   768   0.126E-02-0.401E-06
CGA:   9    -0.663118698401E+03   -0.25408E-03   -0.25412E-03   768   0.499E-03-0.202E-05
CGA:  10    -0.663118801958E+03   -0.10356E-03   -0.10353E-03   768   0.224E-03 0.110E-05
CGA:  11    -0.663118838624E+03   -0.36666E-04   -0.36664E-04   768   0.966E-04-0.664E-07
  55 F= -.66967766E+03 E0= -.66966779E+03  d E =-.468784E-02  mag=     1.1580
       N       E                     dE             d eps       ncg     rms          ort
SDA:   1    -0.662207358640E+03    0.91144E+00    0.00000E+00   768   0.247E+01 0.000E+00
CGA:   2    -0.662802732821E+03   -0.59537E+00   -0.59502E+00   768   0.127E+01 0.418E-02
CGA:   3    -0.662999337196E+03   -0.19660E+00   -0.19630E+00   768   0.538E+00-0.354E-02
CGA:   4    -0.663080796401E+03   -0.81459E-01   -0.81515E-01   768   0.147E+00-0.320E-04
CGA:   5    -0.663105866332E+03   -0.25070E-01   -0.25062E-01   768   0.440E-01-0.290E-03
CGA:   6    -0.663114288713E+03   -0.84224E-02   -0.84220E-02   768   0.197E-01 0.184E-04
CGA:   7    -0.663118039799E+03   -0.37511E-02   -0.37514E-02   768   0.101E-01-0.381E-04
CGA:   8    -0.663119743873E+03   -0.17041E-02   -0.17043E-02   768   0.487E-02 0.399E-05
CGA:   9    -0.663120703835E+03   -0.95996E-03   -0.96009E-03   768   0.187E-02-0.742E-05
CGA:  10    -0.663121101074E+03   -0.39724E-03   -0.39714E-03   768   0.791E-03 0.306E-05
CGA:  11    -0.663121232800E+03   -0.13173E-03   -0.13172E-03   768   0.358E-03-0.246E-06
CGA:  12    -0.663121295647E+03   -0.62847E-04   -0.62860E-04   768   0.121E-03 0.128E-05
  56 F= -.66968119E+03 E0= -.66967128E+03  d E =-.821265E-02  mag=     1.1592
       N       E                     dE             d eps       ncg     rms          ort
SDA:   1    -0.662919493939E+03    0.20174E+00    0.00000E+00   768   0.560E+00 0.000E+00
CGA:   2    -0.663049902135E+03   -0.13041E+00   -0.13039E+00   768   0.294E+00 0.259E-03
CGA:   3    -0.663094974270E+03   -0.45072E-01   -0.45030E-01   768   0.125E+00-0.468E-03
CGA:   4    -0.663114179961E+03   -0.19206E-01   -0.19211E-01   768   0.348E-01-0.252E-04
CGA:   5    -0.663120158762E+03   -0.59788E-02   -0.59779E-02   768   0.105E-01-0.327E-04
CGA:   6    -0.663122102357E+03   -0.19436E-02   -0.19436E-02   768   0.484E-02 0.325E-05
CGA:   7    -0.663123013193E+03   -0.91084E-03   -0.91086E-03   768   0.246E-02-0.493E-05
CGA:   8    -0.663123438944E+03   -0.42575E-03   -0.42576E-03   768   0.116E-02 0.121E-06
CGA:   9    -0.663123675290E+03   -0.23635E-03   -0.23639E-03   768   0.462E-03-0.198E-05
CGA:  10    -0.663123769570E+03   -0.94280E-04   -0.94265E-04   768   0.212E-03 0.765E-06
  57 F= -.66968424E+03 E0= -.66967430E+03  d E =-.305094E-02  mag=     1.1578
       N       E                     dE             d eps       ncg     rms          ort
SDA:   1    -0.662907213244E+03    0.21646E+00    0.00000E+00   768   0.596E+00 0.000E+00
CGA:   2    -0.663045719062E+03   -0.13851E+00   -0.13848E+00   768   0.313E+00 0.293E-03
CGA:   3    -0.663093645898E+03   -0.47927E-01   -0.47882E-01   768   0.132E+00-0.526E-03
CGA:   4    -0.663114073511E+03   -0.20428E-01   -0.20433E-01   768   0.371E-01-0.254E-04
CGA:   5    -0.663120348860E+03   -0.62753E-02   -0.62742E-02   768   0.114E-01-0.362E-04
CGA:   6    -0.663122485487E+03   -0.21366E-02   -0.21366E-02   768   0.515E-02 0.367E-05
CGA:   7    -0.663123466322E+03   -0.98083E-03   -0.98089E-03   768   0.266E-02-0.565E-05
CGA:   8    -0.663123921441E+03   -0.45512E-03   -0.45513E-03   768   0.124E-02 0.155E-06
CGA:   9    -0.663124174067E+03   -0.25263E-03   -0.25268E-03   768   0.497E-03-0.201E-05
CGA:  10    -0.663124276005E+03   -0.10194E-03   -0.10192E-03   768   0.225E-03 0.833E-06
CGA:  11    -0.663124313079E+03   -0.37074E-04   -0.37068E-04   768   0.960E-04-0.269E-06
  58 F= -.66968537E+03 E0= -.66967541E+03  d E =-.418439E-02  mag=     1.1563
       N       E                     dE             d eps       ncg     rms          ort
SDA:   1    -0.662854237054E+03    0.27004E+00    0.00000E+00   768   0.740E+00 0.000E+00
CGA:   2    -0.663038052110E+03   -0.18382E+00   -0.18376E+00   768   0.356E+00 0.559E-03
CGA:   3    -0.663094213470E+03   -0.56161E-01   -0.56131E-01   768   0.151E+00-0.435E-03
CGA:   4    -0.663116762065E+03   -0.22549E-01   -0.22556E-01   768   0.405E-01-0.850E-05
CGA:   5    -0.663123548673E+03   -0.67866E-02   -0.67855E-02   768   0.116E-01-0.290E-04
CGA:   6    -0.663125783604E+03   -0.22349E-02   -0.22349E-02   768   0.502E-02 0.491E-06
CGA:   7    -0.663126743534E+03   -0.95993E-03   -0.96000E-03   768   0.253E-02-0.727E-05
CGA:   8    -0.663127171453E+03   -0.42792E-03   -0.42792E-03   768   0.127E-02-0.106E-05
CGA:   9    -0.663127418240E+03   -0.24679E-03   -0.24682E-03   768   0.504E-03-0.205E-05
CGA:  10    -0.663127528678E+03   -0.11044E-03   -0.11039E-03   768   0.210E-03 0.116E-05
CGA:  11    -0.663127565132E+03   -0.36454E-04   -0.36452E-04   768   0.103E-03-0.111E-06
  59 F= -.66968920E+03 E0= -.66967925E+03  d E =-.383127E-02  mag=     1.1563
       N       E                     dE             d eps       ncg     rms          ort
SDA:   1    -0.662629774520E+03    0.49775E+00    0.00000E+00   768   0.135E+01 0.000E+00
CGA:   2    -0.662965128516E+03   -0.33535E+00   -0.33523E+00   768   0.651E+00 0.140E-02
CGA:   3    -0.663067759483E+03   -0.10263E+00   -0.10256E+00   768   0.275E+00-0.105E-02
CGA:   4    -0.663108881724E+03   -0.41122E-01   -0.41141E-01   768   0.740E-01-0.182E-05
CGA:   5    -0.663121303103E+03   -0.12421E-01   -0.12419E-01   768   0.212E-01-0.794E-04
CGA:   6    -0.663125372877E+03   -0.40698E-02   -0.40697E-02   768   0.919E-02 0.426E-05
CGA:   7    -0.663127122061E+03   -0.17492E-02   -0.17493E-02   768   0.460E-02-0.137E-04
CGA:   8    -0.663127901069E+03   -0.77901E-03   -0.77903E-03   768   0.229E-02-0.456E-06
CGA:   9    -0.663128349825E+03   -0.44876E-03   -0.44881E-03   768   0.909E-03-0.337E-05
CGA:  10    -0.663128548410E+03   -0.19858E-03   -0.19852E-03   768   0.382E-03 0.174E-05
CGA:  11    -0.663128613871E+03   -0.65461E-04   -0.65458E-04   768   0.184E-03-0.191E-06
  60 F= -.66969102E+03 E0= -.66968107E+03  d E =-.564822E-02  mag=     1.1564
       N       E                     dE             d eps       ncg     rms          ort
SDA:   1    -0.662921730109E+03    0.20682E+00    0.00000E+00   768   0.562E+00 0.000E+00
CGA:   2    -0.663072603397E+03   -0.15087E+00   -0.15087E+00   768   0.220E+00 0.172E-04
CGA:   3    -0.663112188167E+03   -0.39585E-01   -0.39584E-01   768   0.940E-01-0.698E-04
CGA:   4    -0.663125442946E+03   -0.13255E-01   -0.13259E-01   768   0.249E-01 0.769E-05
CGA:   5    -0.663129465699E+03   -0.40228E-02   -0.40224E-02   768   0.638E-02-0.206E-05
CGA:   6    -0.663130733077E+03   -0.12674E-02   -0.12674E-02   768   0.260E-02-0.143E-05
CGA:   7    -0.663131216774E+03   -0.48370E-03   -0.48370E-03   768   0.117E-02-0.442E-05
CGA:   8    -0.663131418008E+03   -0.20123E-03   -0.20122E-03   768   0.641E-03-0.137E-05
CGA:   9    -0.663131539406E+03   -0.12140E-03   -0.12140E-03   768   0.270E-03-0.922E-06
CGA:  10    -0.663131601489E+03   -0.62083E-04   -0.62044E-04   768   0.114E-03 0.866E-06
  61 F= -.66969457E+03 E0= -.66968461E+03  d E =-.354510E-02  mag=     1.1566
       N       E                     dE             d eps       ncg     rms          ort
SDA:   1    -0.662516082577E+03    0.61546E+00    0.00000E+00   768   0.165E+01 0.000E+00
CGA:   2    -0.662959145129E+03   -0.44306E+00   -0.44303E+00   768   0.650E+00 0.161E-03
CGA:   3    -0.663075339018E+03   -0.11619E+00   -0.11618E+00   768   0.279E+00-0.468E-03
CGA:   4    -0.663114587678E+03   -0.39249E-01   -0.39282E-01   768   0.741E-01 0.420E-04
CGA:   5    -0.663126479336E+03   -0.11892E-01   -0.11888E-01   768   0.200E-01-0.466E-04
CGA:   6    -0.663130171472E+03   -0.36921E-02   -0.36922E-02   768   0.858E-02 0.144E-05
CGA:   7    -0.663131651555E+03   -0.14801E-02   -0.14799E-02   768   0.379E-02-0.846E-05
CGA:   8    -0.663132310247E+03   -0.65869E-03   -0.65868E-03   768   0.179E-02-0.186E-05
CGA:   9    -0.663132690622E+03   -0.38038E-03   -0.38044E-03   768   0.811E-03-0.197E-05
CGA:  10    -0.663132861874E+03   -0.17125E-03   -0.17121E-03   768   0.412E-03 0.161E-05
CGA:  11    -0.663132930559E+03   -0.68685E-04   -0.68678E-04   768   0.181E-03-0.346E-06
  62 F= -.66969683E+03 E0= -.66968686E+03  d E =-.580807E-02  mag=     1.1565
       N       E                     dE             d eps       ncg     rms          ort
SDA:   1    -0.662879148169E+03    0.25371E+00    0.00000E+00   768   0.686E+00 0.000E+00
CGA:   2    -0.663066509124E+03   -0.18736E+00   -0.18735E+00   768   0.261E+00 0.750E-04
CGA:   3    -0.663113017284E+03   -0.46508E-01   -0.46515E-01   768   0.112E+00 0.232E-03
CGA:   4    -0.663128521704E+03   -0.15504E-01   -0.15495E-01   768   0.304E-01 0.809E-05
CGA:   5    -0.663133224342E+03   -0.47026E-02   -0.47034E-02   768   0.784E-02 0.985E-05
CGA:   6    -0.663134641624E+03   -0.14173E-02   -0.14172E-02   768   0.351E-02-0.524E-05
CGA:   7    -0.663135217445E+03   -0.57582E-03   -0.57572E-03   768   0.139E-02-0.473E-05
CGA:   8    -0.663135473792E+03   -0.25635E-03   -0.25634E-03   768   0.655E-03-0.325E-05
CGA:   9    -0.663135613973E+03   -0.14018E-03   -0.14017E-03   768   0.326E-03 0.419E-06
CGA:  10    -0.663135677908E+03   -0.63935E-04   -0.63937E-04   768   0.171E-03-0.155E-06
  63 F= -.66970006E+03 E0= -.66969009E+03  d E =-.323453E-02  mag=     1.1585
       N       E                     dE             d eps       ncg     rms          ort
SDA:   1    -0.662758421527E+03    0.37719E+00    0.00000E+00   768   0.101E+01 0.000E+00
CGA:   2    -0.663034601969E+03   -0.27618E+00   -0.27617E+00   768   0.383E+00 0.138E-03
CGA:   3    -0.663103241043E+03   -0.68639E-01   -0.68651E-01   768   0.162E+00 0.447E-03
CGA:   4    -0.663126061491E+03   -0.22820E-01   -0.22805E-01   768   0.440E-01 0.501E-05
CGA:   5    -0.663132790829E+03   -0.67293E-02   -0.67306E-02   768   0.120E-01 0.161E-04
CGA:   6    -0.663134900248E+03   -0.21094E-02   -0.21093E-02   768   0.518E-02-0.695E-05
CGA:   7    -0.663135775135E+03   -0.87489E-03   -0.87480E-03   768   0.206E-02-0.541E-05
CGA:   8    -0.663136153269E+03   -0.37813E-03   -0.37813E-03   768   0.971E-03-0.393E-05
CGA:   9    -0.663136359953E+03   -0.20668E-03   -0.20666E-03   768   0.491E-03 0.636E-06
CGA:  10    -0.663136454296E+03   -0.94342E-04   -0.94344E-04   768   0.251E-03-0.200E-06
  64 F= -.66970142E+03 E0= -.66969144E+03  d E =-.459293E-02  mag=     1.1608
       N       E                     dE             d eps       ncg     rms          ort
SDA:   1    -0.662905135376E+03    0.23122E+00    0.00000E+00   768   0.628E+00 0.000E+00
CGA:   2    -0.663075530247E+03   -0.17039E+00   -0.17045E+00   768   0.246E+00-0.488E-03
CGA:   3    -0.663117390570E+03   -0.41860E-01   -0.41873E-01   768   0.107E+00 0.268E-03
[...]
CGA:   4    -0.663137457089E+03   -0.26356E-01   -0.26347E-01   768   0.483E-01 0.463E-04
CGA:   5    -0.663145090435E+03   -0.76333E-02   -0.76344E-02   768   0.131E-01 0.197E-04
CGA:   6    -0.663147377619E+03   -0.22872E-02   -0.22870E-02   768   0.558E-02-0.116E-04
CGA:   7    -0.663148361197E+03   -0.98358E-03   -0.98356E-03   768   0.231E-02-0.306E-05
CGA:   8    -0.663148771145E+03   -0.40995E-03   -0.40994E-03   768   0.111E-02-0.194E-05
CGA:   9    -0.663149003167E+03   -0.23202E-03   -0.23197E-03   768   0.537E-03 0.182E-05
CGA:  10    -0.663149107607E+03   -0.10444E-03   -0.10445E-03   768   0.266E-03-0.510E-06
CGA:  11    -0.663149155061E+03   -0.47454E-04   -0.47455E-04   768   0.113E-03 0.318E-06
  70 F= -.66971644E+03 E0= -.66970642E+03  d E =-.399002E-02  mag=     1.1679
       N       E                     dE             d eps       ncg     rms          ort
SDA:   1    -0.659930344487E+03    0.32188E+01    0.00000E+00   768   0.881E+01 0.000E+00
CGA:   2    -0.662234059970E+03   -0.23037E+01   -0.23051E+01   768   0.380E+01-0.123E-01
CGA:   3    -0.662815794812E+03   -0.58173E+00   -0.58347E+00   768   0.160E+01 0.174E-01
CGA:   4    -0.663048121410E+03   -0.23233E+00   -0.23206E+00   768   0.440E+00 0.828E-03
CGA:   5    -0.663117941258E+03   -0.69820E-01   -0.69852E-01   768   0.118E+00 0.646E-03
CGA:   6    -0.663138417398E+03   -0.20476E-01   -0.20473E-01   768   0.515E-01-0.175E-03
CGA:   7    -0.663147456110E+03   -0.90387E-02   -0.90390E-02   768   0.206E-01 0.252E-04
CGA:   8    -0.663151148625E+03   -0.36925E-02   -0.36924E-02   768   0.987E-02-0.214E-04
CGA:   9    -0.663153201392E+03   -0.20528E-02   -0.20522E-02   768   0.482E-02 0.183E-04
CGA:  10    -0.663154121915E+03   -0.92052E-03   -0.92056E-03   768   0.234E-02-0.349E-05
CGA:  11    -0.663154549751E+03   -0.42784E-03   -0.42784E-03   768   0.100E-02 0.227E-05
CGA:  12    -0.663154738637E+03   -0.18889E-03   -0.18889E-03   768   0.402E-03-0.183E-05
CGA:  13    -0.663154813027E+03   -0.74390E-04   -0.74389E-04   768   0.185E-03 0.885E-06
  71 F= -.66972323E+03 E0= -.66971326E+03  d E =-.107795E-01  mag=     1.1696
       N       E                     dE             d eps       ncg     rms          ort
SDA:   1    -0.662459407207E+03    0.69533E+00    0.00000E+00   768   0.189E+01 0.000E+00
CGA:   2    -0.662956451755E+03   -0.49704E+00   -0.49720E+00   768   0.816E+00-0.138E-02
CGA:   3    -0.663081907027E+03   -0.12546E+00   -0.12561E+00   768   0.351E+00 0.161E-02
CGA:   4    -0.663132369642E+03   -0.50463E-01   -0.50432E-01   768   0.932E-01 0.701E-04
CGA:   5    -0.663147171913E+03   -0.14802E-01   -0.14805E-01   768   0.252E-01 0.557E-04
CGA:   6    -0.663151468153E+03   -0.42962E-02   -0.42957E-02   768   0.109E-01-0.224E-04
CGA:   7    -0.663153377424E+03   -0.19093E-02   -0.19093E-02   768   0.436E-02-0.240E-05
CGA:   8    -0.663154163217E+03   -0.78579E-03   -0.78579E-03   768   0.211E-02-0.347E-05
CGA:   9    -0.663154605218E+03   -0.44200E-03   -0.44190E-03   768   0.105E-02 0.329E-05
CGA:  10    -0.663154805225E+03   -0.20001E-03   -0.20002E-03   768   0.518E-03-0.857E-06
CGA:  11    -0.663154899920E+03   -0.94695E-04   -0.94695E-04   768   0.222E-03 0.491E-06
  72 F= -.66972383E+03 E0= -.66971388E+03  d E =-.113823E-01  mag=     1.1704
       N       E                     dE             d eps       ncg     rms          ort
SDA:   1    -0.662283811145E+03    0.87099E+00    0.00000E+00   768   0.238E+01 0.000E+00
CGA:   2    -0.662915408963E+03   -0.63160E+00   -0.63171E+00   768   0.101E+01-0.834E-03
CGA:   3    -0.663069749867E+03   -0.15434E+00   -0.15456E+00   768   0.441E+00 0.219E-02
CGA:   4    -0.663132340073E+03   -0.62590E-01   -0.62554E-01   768   0.115E+00 0.142E-03
CGA:   5    -0.663150511503E+03   -0.18171E-01   -0.18175E-01   768   0.300E-01 0.678E-04
CGA:   6    -0.663155790443E+03   -0.52789E-02   -0.52786E-02   768   0.129E-01-0.297E-04
CGA:   7    -0.663158009709E+03   -0.22193E-02   -0.22192E-02   768   0.513E-02-0.327E-05
CGA:   8    -0.663158921652E+03   -0.91194E-03   -0.91192E-03   768   0.247E-02-0.363E-05
CGA:   9    -0.663159437443E+03   -0.51579E-03   -0.51568E-03   768   0.121E-02 0.400E-05
CGA:  10    -0.663159674401E+03   -0.23696E-03   -0.23697E-03   768   0.612E-03-0.748E-06
CGA:  11    -0.663159783974E+03   -0.10957E-03   -0.10958E-03   768   0.265E-03 0.636E-06
CGA:  12    -0.663159834821E+03   -0.50847E-04   -0.50855E-04   768   0.106E-03-0.969E-06
  73 F= -.66972925E+03 E0= -.66971929E+03  d E =-.542387E-02  mag=     1.1722
       N       E                     dE             d eps       ncg     rms          ort
SDA:   1    -0.658705197240E+03    0.44546E+01    0.00000E+00   768   0.122E+02 0.000E+00
CGA:   2    -0.661912797797E+03   -0.32076E+01   -0.32091E+01   768   0.526E+01-0.101E-01
CGA:   3    -0.662698273860E+03   -0.78548E+00   -0.78854E+00   768   0.224E+01 0.268E-01
CGA:   4    -0.663020097469E+03   -0.32182E+00   -0.32156E+00   768   0.597E+00 0.230E-02
CGA:   5    -0.663115208181E+03   -0.95111E-01   -0.95149E-01   768   0.158E+00 0.876E-03
CGA:   6    -0.663142621442E+03   -0.27413E-01   -0.27409E-01   768   0.673E-01-0.263E-03
CGA:   7    -0.663154416249E+03   -0.11795E-01   -0.11795E-01   768   0.264E-01 0.368E-04
CGA:   8    -0.663159084847E+03   -0.46686E-02   -0.46684E-02   768   0.128E-01-0.242E-04
CGA:   9    -0.663161722953E+03   -0.26381E-02   -0.26374E-02   768   0.616E-02 0.256E-04
CGA:  10    -0.663162931899E+03   -0.12089E-02   -0.12090E-02   768   0.307E-02-0.417E-05
CGA:  11    -0.663163488269E+03   -0.55637E-03   -0.55638E-03   768   0.136E-02 0.315E-05
CGA:  12    -0.663163743225E+03   -0.25496E-03   -0.25497E-03   768   0.534E-03-0.210E-05
CGA:  13    -0.663163843529E+03   -0.10030E-03   -0.10030E-03   768   0.249E-03 0.107E-05
CGA:  14    -0.663163888764E+03   -0.45235E-04   -0.45234E-04   768   0.112E-03-0.485E-06
  74 F= -.66973439E+03 E0= -.66972441E+03  d E =-.105583E-01  mag=     1.1762
       N       E                     dE             d eps       ncg     rms          ort
SDA:   1    -0.662138043416E+03    0.10258E+01    0.00000E+00   768   0.277E+01 0.000E+00
CGA:   2    -0.662905013550E+03   -0.76697E+00   -0.76743E+00   768   0.103E+01-0.390E-02
CGA:   3    -0.663080674536E+03   -0.17566E+00   -0.17574E+00   768   0.470E+00 0.189E-02
CGA:   4    -0.663140983226E+03   -0.60309E-01   -0.60305E-01   768   0.120E+00 0.259E-03
CGA:   5    -0.663160142558E+03   -0.19159E-01   -0.19158E-01   768   0.281E-01 0.850E-05
CGA:   6    -0.663165268060E+03   -0.51255E-02   -0.51254E-02   768   0.117E-01-0.176E-04
CGA:   7    -0.663167202471E+03   -0.19344E-02   -0.19343E-02   768   0.419E-02-0.372E-05
CGA:   8    -0.663167925508E+03   -0.72304E-03   -0.72303E-03   768   0.207E-02-0.476E-06
CGA:   9    -0.663168349621E+03   -0.42411E-03   -0.42403E-03   768   0.945E-03 0.397E-05
CGA:  10    -0.663168549321E+03   -0.19970E-03   -0.19969E-03   768   0.550E-03 0.174E-06
CGA:  11    -0.663168647414E+03   -0.98093E-04   -0.98098E-04   768   0.255E-03 0.744E-06
  75 F= -.66973983E+03 E0= -.66972984E+03  d E =-.543858E-02  mag=     1.1765
       N       E                     dE             d eps       ncg     rms          ort
SDA:   1    -0.662966018246E+03    0.20253E+00    0.00000E+00   768   0.542E+00 0.000E+00
CGA:   2    -0.663117518645E+03   -0.15150E+00   -0.15154E+00   768   0.195E+00-0.361E-03
CGA:   3    -0.663152473399E+03   -0.34955E-01   -0.34958E-01   768   0.860E-01 0.170E-03
CGA:   4    -0.663163472726E+03   -0.10999E-01   -0.10997E-01   768   0.233E-01 0.312E-04
CGA:   5    -0.663167052418E+03   -0.35797E-02   -0.35795E-02   768   0.529E-02-0.487E-06
CGA:   6    -0.663168051913E+03   -0.99949E-03   -0.99951E-03   768   0.230E-02-0.424E-05
CGA:   7    -0.663168419223E+03   -0.36731E-03   -0.36726E-03   768   0.822E-03-0.193E-05
CGA:   8    -0.663168567739E+03   -0.14852E-03   -0.14852E-03   768   0.414E-03-0.127E-06
CGA:   9    -0.663168651040E+03   -0.83301E-04   -0.83275E-04   768   0.199E-03 0.150E-05
  76 F= -.66974013E+03 E0= -.66973013E+03  d E =-.573866E-02  mag=     1.1767
       N       E                     dE             d eps       ncg     rms          ort
SDA:   1    -0.662560011800E+03    0.60856E+00    0.00000E+00   768   0.163E+01 0.000E+00
CGA:   2    -0.663022752145E+03   -0.46274E+00   -0.46265E+00   768   0.564E+00 0.956E-03
CGA:   3    -0.663124921992E+03   -0.10217E+00   -0.10217E+00   768   0.268E+00 0.987E-04
CGA:   4    -0.663156923889E+03   -0.32002E-01   -0.32051E-01   768   0.648E-01-0.102E-04
CGA:   5    -0.663167695056E+03   -0.10771E-01   -0.10770E-01   768   0.132E-01-0.202E-04
CGA:   6    -0.663170445456E+03   -0.27504E-02   -0.27506E-02   768   0.551E-02-0.901E-05
CGA:   7    -0.663171259504E+03   -0.81405E-03   -0.81381E-03   768   0.202E-02-0.478E-05
CGA:   8    -0.663171621085E+03   -0.36158E-03   -0.36158E-03   768   0.967E-03-0.523E-06
CGA:   9    -0.663171817336E+03   -0.19625E-03   -0.19620E-03   768   0.441E-03 0.294E-05
CGA:  10    -0.663171916467E+03   -0.99131E-04   -0.99117E-04   768   0.279E-03 0.318E-06
  77 F= -.66974392E+03 E0= -.66973397E+03  d E =-.378895E-02  mag=     1.1783
       N       E                     dE             d eps       ncg     rms          ort
SDA:   1    -0.662806011856E+03    0.36581E+00    0.00000E+00   768   0.977E+00 0.000E+00
CGA:   2    -0.663082224487E+03   -0.27621E+00   -0.27617E+00   768   0.351E+00 0.446E-03
CGA:   3    -0.663141733170E+03   -0.59509E-01   -0.59504E-01   768   0.178E+00-0.857E-04
CGA:   4    -0.663163357097E+03   -0.21624E-01   -0.21652E-01   768   0.382E-01 0.102E-04
CGA:   5    -0.663169974435E+03   -0.66173E-02   -0.66170E-02   768   0.783E-02-0.905E-05
CGA:   6    -0.663171636128E+03   -0.16617E-02   -0.16619E-02   768   0.327E-02-0.613E-05
CGA:   7    -0.663172108505E+03   -0.47238E-03   -0.47219E-03   768   0.125E-02-0.376E-05
CGA:   8    -0.663172331916E+03   -0.22341E-03   -0.22341E-03   768   0.564E-03-0.679E-06
CGA:   9    -0.663172451135E+03   -0.11922E-03   -0.11916E-03   768   0.268E-03 0.236E-05
CGA:  10    -0.663172510222E+03   -0.59087E-04   -0.59082E-04   768   0.171E-03 0.124E-06
  78 F= -.66974491E+03 E0= -.66973500E+03  d E =-.478264E-02  mag=     1.1796
       N       E                     dE             d eps       ncg     rms          ort
SDA:   1    -0.663148993559E+03    0.23458E-01    0.00000E+00   768   0.669E-01 0.000E+00
CGA:   2    -0.663167975388E+03   -0.18982E-01   -0.18979E-01   768   0.263E-01 0.265E-04
CGA:   3    -0.663172679857E+03   -0.47045E-02   -0.47045E-02   768   0.115E-01-0.210E-05
CGA:   4    -0.663174227211E+03   -0.15474E-02   -0.15471E-02   768   0.297E-02 0.149E-05
CGA:   5    -0.663174712122E+03   -0.48491E-03   -0.48495E-03   768   0.824E-03 0.107E-05
CGA:   6    -0.663174859718E+03   -0.14760E-03   -0.14759E-03   768   0.362E-03-0.269E-06
CGA:   7    -0.663174921073E+03   -0.61356E-04   -0.61334E-04   768   0.157E-03-0.128E-05
  79 F= -.66974746E+03 E0= -.66973759E+03  d E =-.255337E-02  mag=     1.1795
       N       E                     dE             d eps       ncg     rms          ort
SDA:   1    -0.663132967431E+03    0.41892E-01    0.00000E+00   768   0.111E+00 0.000E+00
CGA:   2    -0.663164265514E+03   -0.31298E-01   -0.31290E-01   768   0.435E-01 0.675E-04
CGA:   3    -0.663172252557E+03   -0.79870E-02   -0.79869E-02   768   0.179E-01-0.154E-04
CGA:   4    -0.663174661787E+03   -0.24092E-02   -0.24094E-02   768   0.532E-02-0.316E-05
CGA:   5    -0.663175530482E+03   -0.86870E-03   -0.86871E-03   768   0.131E-02 0.150E-05
CGA:   6    -0.663175790214E+03   -0.25973E-03   -0.25974E-03   768   0.562E-03-0.901E-06
CGA:   7    -0.663175888291E+03   -0.98077E-04   -0.98058E-04   768   0.270E-03-0.155E-05
  80 F= -.66974861E+03 E0= -.66973877E+03  d E =-.369624E-02  mag=     1.1793
       N       E                     dE             d eps       ncg     rms          ort
SDA:   1    -0.663148923754E+03    0.26866E-01    0.00000E+00   768   0.741E-01 0.000E+00
CGA:   2    -0.663169947432E+03   -0.21024E-01   -0.21026E-01   768   0.291E-01-0.199E-04
CGA:   3    -0.663175160754E+03   -0.52133E-02   -0.52131E-02   768   0.126E-01-0.935E-05
CGA:   4    -0.663176811308E+03   -0.16506E-02   -0.16504E-02   768   0.339E-02-0.375E-05
CGA:   5    -0.663177364075E+03   -0.55277E-03   -0.55286E-03   768   0.969E-03 0.403E-05
CGA:   6    -0.663177528746E+03   -0.16467E-03   -0.16469E-03   768   0.387E-03 0.124E-05
CGA:   7    -0.663177598356E+03   -0.69610E-04   -0.69614E-04   768   0.153E-03 0.747E-06
  81 F= -.66975045E+03 E0= -.66974062E+03  d E =-.184689E-02  mag=     1.1778
       N       E                     dE             d eps       ncg     rms          ort
SDA:   1    -0.663163107301E+03    0.14421E-01    0.00000E+00   768   0.382E-01 0.000E+00
CGA:   2    -0.663173993484E+03   -0.10886E-01   -0.10887E-01   768   0.145E-01-0.766E-05
CGA:   3    -0.663176776693E+03   -0.27832E-02   -0.27832E-02   768   0.581E-02-0.285E-05
CGA:   4    -0.663177514594E+03   -0.73790E-03   -0.73763E-03   768   0.192E-02-0.279E-05
CGA:   5    -0.663177817082E+03   -0.30249E-03   -0.30258E-03   768   0.425E-03 0.314E-05
CGA:   6    -0.663177910417E+03   -0.93335E-04   -0.93289E-04   768   0.175E-03 0.136E-05
  82 F= -.66975086E+03 E0= -.66974103E+03  d E =-.225453E-02  mag=     1.1768
       N       E                     dE             d eps       ncg     rms          ort
SDA:   1    -0.663149691043E+03    0.28126E-01    0.00000E+00   768   0.764E-01 0.000E+00
CGA:   2    -0.663171784713E+03   -0.22094E-01   -0.22091E-01   768   0.320E-01 0.229E-04
CGA:   3    -0.663176825594E+03   -0.50409E-02   -0.50407E-02   768   0.157E-01-0.277E-05
CGA:   4    -0.663178853494E+03   -0.20279E-02   -0.20272E-02   768   0.343E-02-0.802E-05
CGA:   5    -0.663179491103E+03   -0.63761E-03   -0.63761E-03   768   0.908E-03 0.352E-05
CGA:   6    -0.663179665906E+03   -0.17480E-03   -0.17480E-03   768   0.393E-03 0.635E-06
CGA:   7    -0.663179731840E+03   -0.65934E-04   -0.65931E-04   768   0.179E-03-0.166E-06
  83 F= -.66975281E+03 E0= -.66974297E+03  d E =-.194721E-02  mag=     1.1764
       N       E                     dE             d eps       ncg     rms          ort
SDA:   1    -0.663081356194E+03    0.98310E-01    0.00000E+00   768   0.253E+00 0.000E+00
CGA:   2    -0.663155342736E+03   -0.73987E-01   -0.73970E-01   768   0.951E-01 0.121E-03
CGA:   3    -0.663173272043E+03   -0.17929E-01   -0.17929E-01   768   0.399E-01-0.493E-04
CGA:   4    -0.663178197237E+03   -0.49252E-02   -0.49251E-02   768   0.116E-01-0.128E-04
CGA:   5    -0.663180117422E+03   -0.19202E-02   -0.19203E-02   768   0.293E-02 0.623E-05
CGA:   6    -0.663180689987E+03   -0.57257E-03   -0.57255E-03   768   0.123E-02 0.215E-05
CGA:   7    -0.663180897263E+03   -0.20728E-03   -0.20727E-03   768   0.555E-03-0.515E-06
CGA:   8    -0.663181001983E+03   -0.10472E-03   -0.10472E-03   768   0.289E-03 0.189E-06
CGA:   9    -0.663181060003E+03   -0.58020E-04   -0.58012E-04   768   0.138E-03 0.551E-06
  84 F= -.66975435E+03 E0= -.66974451E+03  d E =-.349452E-02  mag=     1.1756
       N       E                     dE             d eps       ncg     rms          ort
SDA:   1    -0.663149635564E+03    0.31366E-01    0.00000E+00   768   0.825E-01 0.000E+00
CGA:   2    -0.663174678000E+03   -0.25042E-01   -0.25037E-01   768   0.305E-01 0.389E-04
CGA:   3    -0.663180069377E+03   -0.53914E-02   -0.53912E-02   768   0.144E-01-0.565E-05
CGA:   4    -0.663181824236E+03   -0.17549E-02   -0.17540E-02   768   0.346E-02-0.714E-05
CGA:   5    -0.663182433899E+03   -0.60966E-03   -0.60969E-03   768   0.947E-03 0.214E-05
CGA:   6    -0.663182608281E+03   -0.17438E-03   -0.17439E-03   768   0.389E-03 0.796E-06
CGA:   7    -0.663182676247E+03   -0.67966E-04   -0.67973E-04   768   0.171E-03 0.508E-06
  85 F= -.66975605E+03 E0= -.66974621E+03  d E =-.169113E-02  mag=     1.1755
       N       E                     dE             d eps       ncg     rms          ort
SDA:   1    -0.663143027665E+03    0.39581E-01    0.00000E+00   768   0.100E+00 0.000E+00
CGA:   2    -0.663173364470E+03   -0.30337E-01   -0.30330E-01   768   0.374E-01 0.543E-04
CGA:   3    -0.663180058493E+03   -0.66940E-02   -0.66939E-02   768   0.167E-01-0.461E-05
CGA:   4    -0.663182085042E+03   -0.20265E-02   -0.20253E-02   768   0.472E-02-0.756E-05
CGA:   5    -0.663182907457E+03   -0.82242E-03   -0.82246E-03   768   0.103E-02 0.269E-05
CGA:   6    -0.663183140615E+03   -0.23316E-03   -0.23311E-03   768   0.419E-03 0.132E-05
CGA:   7    -0.663183210565E+03   -0.69950E-04   -0.69966E-04   768   0.234E-03 0.652E-06
  86 F= -.66975666E+03 E0= -.66974684E+03  d E =-.230385E-02  mag=     1.1752
       N       E                     dE             d eps       ncg     rms          ort
SDA:   1    -0.663161711733E+03    0.21429E-01    0.00000E+00   768   0.563E-01 0.000E+00
CGA:   2    -0.663178911744E+03   -0.17200E-01   -0.17201E-01   768   0.205E-01-0.117E-04
CGA:   3    -0.663182534232E+03   -0.36225E-02   -0.36225E-02   768   0.897E-02 0.191E-05
CGA:   4    -0.663183618078E+03   -0.10838E-02   -0.10831E-02   768   0.257E-02-0.491E-05
CGA:   5    -0.663184070222E+03   -0.45214E-03   -0.45218E-03   768   0.526E-03 0.267E-05
CGA:   6    -0.663184194715E+03   -0.12449E-03   -0.12438E-03   768   0.216E-03 0.236E-05
CGA:   7    -0.663184229188E+03   -0.34473E-04   -0.34506E-04   768   0.122E-03 0.989E-06
  87 F= -.66975775E+03 E0= -.66974792E+03  d E =-.109138E-02  mag=     1.1741
       N       E                     dE             d eps       ncg     rms          ort
SDA:   1    -0.663162382993E+03    0.21812E-01    0.00000E+00   768   0.554E-01 0.000E+00
CGA:   2    -0.663179232020E+03   -0.16849E-01   -0.16851E-01   768   0.207E-01-0.127E-04
CGA:   3    -0.663182749542E+03   -0.35175E-02   -0.35176E-02   768   0.949E-02 0.191E-05
CGA:   4    -0.663183909876E+03   -0.11603E-02   -0.11596E-02   768   0.244E-02-0.462E-05
CGA:   5    -0.663184351748E+03   -0.44187E-03   -0.44189E-03   768   0.541E-03 0.248E-05
CGA:   6    -0.663184466846E+03   -0.11510E-03   -0.11506E-03   768   0.244E-03 0.161E-05
CGA:   7    -0.663184505818E+03   -0.38972E-04   -0.39011E-04   768   0.110E-03 0.123E-05
  88 F= -.66975810E+03 E0= -.66974826E+03  d E =-.143877E-02  mag=     1.1730
       N       E                     dE             d eps       ncg     rms          ort
SDA:   1    -0.663166500723E+03    0.17966E-01    0.00000E+00   768   0.475E-01 0.000E+00
CGA:   2    -0.663181199657E+03   -0.14699E-01   -0.14699E-01   768   0.166E-01 0.378E-05
CGA:   3    -0.663184246539E+03   -0.30469E-02   -0.30469E-02   768   0.641E-02 0.239E-05
CGA:   4    -0.663185118356E+03   -0.87182E-03   -0.87185E-03   768   0.214E-02 0.212E-05
CGA:   5    -0.663185445641E+03   -0.32729E-03   -0.32725E-03   768   0.525E-03-0.975E-06
CGA:   6    -0.663185545217E+03   -0.99576E-04   -0.99576E-04   768   0.236E-03 0.262E-06
  89 F= -.66975919E+03 E0= -.66974935E+03  d E =-.109427E-02  mag=     1.1726
       N       E                     dE             d eps       ncg     rms          ort
SDA:   1    -0.663074684619E+03    0.11076E+00    0.00000E+00   768   0.278E+00 0.000E+00
CGA:   2    -0.663160909507E+03   -0.86225E-01   -0.86221E-01   768   0.952E-01 0.404E-04
CGA:   3    -0.663178722298E+03   -0.17813E-01   -0.17813E-01   768   0.356E-01 0.242E-04
CGA:   4    -0.663183882014E+03   -0.51597E-02   -0.51583E-02   768   0.115E-01 0.177E-05
CGA:   5    -0.663185551632E+03   -0.16696E-02   -0.16696E-02   768   0.314E-02-0.187E-05
CGA:   6    -0.663186108158E+03   -0.55653E-03   -0.55653E-03   768   0.134E-02 0.474E-06
CGA:   7    -0.663186335386E+03   -0.22723E-03   -0.22725E-03   768   0.529E-03 0.883E-06
CGA:   8    -0.663186444782E+03   -0.10940E-03   -0.10938E-03   768   0.305E-03 0.877E-06
CGA:   9    -0.663186504433E+03   -0.59651E-04   -0.59644E-04   768   0.156E-03 0.124E-05
  90 F= -.66976028E+03 E0= -.66975043E+03  d E =-.218020E-02  mag=     1.1722
