 vasp.5.4.4.18Apr17-6-g9f103f2a35 (build Jan 14 2022 15:04:31) complex          
  
 executed on             LinuxIFC date 2023.04.05  11:31:18
 running on   48 total cores
 distrk:  each k-point on   48 cores,    1 groups
 distr:  one band on NCORES_PER_BAND=  12 cores,    4 groups


--------------------------------------------------------------------------------------------------------


 INCAR:
 POTCAR:    PAW_PBE C 08Apr2002                   
 POTCAR:    PAW_PBE N 08Apr2002                   
 POTCAR:    PAW_PBE Ge_d 03Jul2007                
 POTCAR:    PAW_PBE C 08Apr2002                   
   SHA256 =  253f7b50bb8d59471dbedb8285d89021f4a42ed1a2c5d38a03a736e69125dd95 C/
   COPYR  = (c) Copyright 08Apr2002 Georg Kresse                                
   COPYR  = This file is part of the software VASP. Any use, copying, and all ot
   COPYR  = If you do not have a valid VASP license, you may not use, copy or di
   VRHFIN =C: s2p2                                                              
   LEXCH  = PE                                                                  
   EATOM  =   147.1560 eV,   10.8157 Ry                                         
                                                                                
   TITEL  = PAW_PBE C 08Apr2002                                                 
   LULTRA =        F    use ultrasoft PP ?                                      
   IUNSCR =        1    unscreen: 0-lin 1-nonlin 2-no                           
   RPACOR =    1.200    partial core radius                                     
   POMASS =   12.011; ZVAL   =    4.000    mass and valenz                      
   RCORE  =    1.500    outmost cutoff radius                                   
   RWIGS  =    1.630; RWIGS  =    0.863    wigner-seitz radius (au A)           
   ENMAX  =  400.000; ENMIN  =  300.000 eV                                      
   ICORE  =        2    local potential                                         
   LCOR   =        T    correct aug charges                                     
   LPAW   =        T    paw PP                                                  
   EAUG   =  644.873                                                            
   DEXC   =    0.000                                                            
   RMAX   =    1.529    core radius for proj-oper                               
   RAUG   =    1.300    factor for augmentation sphere                          
   RDEP   =    1.501    radius for radial grids                                 
   RDEPT  =    1.300    core radius for aug-charge                              
                                                                                
   Atomic configuration                                                         
    4 entries                                                                   
     n  l   j            E        occ.                                          
     1  0  0.50      -273.3789   2.0000                                         
     2  0  0.50       -13.7508   2.0000                                         
     2  1  0.50        -5.2854   2.0000                                         
     3  2  1.50        -5.4423   0.0000                                         
   Description                                                                  
     l       E           TYP  RCUT    TYP  RCUT                                 
     0    -13.7508458     23  1.200                                             
     0     -8.2022199     23  1.200                                             
     1     -5.2854383     23  1.500                                             
     1     34.0145650     23  1.500                                             
     2     -5.4423304      7  1.500                                             
  local pseudopotential read in
  partial core-charges read in
  partial kinetic energy density read in
  atomic valenz-charges read in
  non local Contribution for L=           0  read in
    real space projection operators read in
  non local Contribution for L=           0  read in
    real space projection operators read in
  non local Contribution for L=           1  read in
    real space projection operators read in
  non local Contribution for L=           1  read in
    real space projection operators read in
    PAW grid and wavefunctions read in
 
   number of l-projection  operators is LMAX  =           4
   number of lm-projection operators is LMMAX =           8
 
 POTCAR:    PAW_PBE N 08Apr2002                   
   SHA256 =  e053789ff3a61a86a1b75d8a110fcc91f86041011e7b0817c7c99e4e8a6349d7 N/
   COPYR  = (c) Copyright 08Apr2002 Georg Kresse                                
   COPYR  = This file is part of the software VASP. Any use, copying, and all ot
   COPYR  = If you do not have a valid VASP license, you may not use, copy or di
   VRHFIN =N: s2p3                                                              
   LEXCH  = PE                                                                  
   EATOM  =   264.5486 eV,   19.4438 Ry                                         
                                                                                
   TITEL  = PAW_PBE N 08Apr2002                                                 
   LULTRA =        F    use ultrasoft PP ?                                      
   IUNSCR =        1    unscreen: 0-lin 1-nonlin 2-no                           
   RPACOR =    1.200    partial core radius                                     
   POMASS =   14.001; ZVAL   =    5.000    mass and valenz                      
   RCORE  =    1.500    outmost cutoff radius                                   
   RWIGS  =    1.400; RWIGS  =    0.741    wigner-seitz radius (au A)           
   ENMAX  =  400.000; ENMIN  =  300.000 eV                                      
   ICORE  =        2    local potential                                         
   LCOR   =        T    correct aug charges                                     
   LPAW   =        T    paw PP                                                  
   EAUG   =  627.112                                                            
   DEXC   =    0.000                                                            
   RMAX   =    1.529    core radius for proj-oper                               
   RAUG   =    1.300    factor for augmentation sphere                          
   RDEP   =    1.514    radius for radial grids                                 
   RDEPT  =    1.338    core radius for aug-charge                              
                                                                                
   Atomic configuration                                                         
    4 entries                                                                   
     n  l   j            E        occ.                                          
     1  0  0.50      -384.7179   2.0000                                         
     2  0  0.50       -18.5828   2.0000                                         
     2  1  0.50        -7.0898   3.0000                                         
     3  2  1.50        -6.8029   0.0000                                         
   Description                                                                  
     l       E           TYP  RCUT    TYP  RCUT                                 
     0    -18.5828119     23  1.200                                             
     0    -13.5018863     23  1.200                                             
     1     -7.0897853     23  1.500                                             
     1      9.5240782     23  1.500                                             
     2     -6.8029130      7  1.500                                             
  local pseudopotential read in
  partial core-charges read in
  partial kinetic energy density read in
  atomic valenz-charges read in
  non local Contribution for L=           0  read in
    real space projection operators read in
  non local Contribution for L=           0  read in
    real space projection operators read in
  non local Contribution for L=           1  read in
    real space projection operators read in
  non local Contribution for L=           1  read in
    real space projection operators read in
    PAW grid and wavefunctions read in
 
   number of l-projection  operators is LMAX  =           4
   number of lm-projection operators is LMMAX =           8
 
 POTCAR:    PAW_PBE Ge_d 03Jul2007                
   SHA256 =  944b26c40d2d7c4f4eb1ff3a2e8dbfdd7129146276cd341854bfd5c0e57780ed Ge
   COPYR  = (c) Copyright 03Jul2007 Georg Kresse                                
   COPYR  = This file is part of the software VASP. Any use, copying, and all ot
   COPYR  = If you do not have a valid VASP license, you may not use, copy or di
   VRHFIN =Ge: 3d4s4p                                                           
   LEXCH  = PE                                                                  
   EATOM  =  2596.2402 eV,  190.8183 Ry                                         
                                                                                
   TITEL  = PAW_PBE Ge_d 03Jul2007                                              
   LULTRA =        F    use ultrasoft PP ?                                      
   IUNSCR =        1    unscreen: 0-lin 1-nonlin 2-no                           
   RPACOR =    2.000    partial core radius                                     
   POMASS =   72.610; ZVAL   =   14.000    mass and valenz                      
   RCORE  =    2.300    outmost cutoff radius                                   
   RWIGS  =    2.300; RWIGS  =    1.217    wigner-seitz radius (au A)           
   ENMAX  =  310.294; ENMIN  =  232.720 eV                                      
   ICORE  =        3    local potential                                         
   LCOR   =        T    correct aug charges                                     
   LPAW   =        T    paw PP                                                  
   EAUG   =  531.356                                                            
   DEXC   =    0.000                                                            
   RMAX   =    2.342    core radius for proj-oper                               
   RAUG   =    1.300    factor for augmentation sphere                          
   RDEP   =    2.318    radius for radial grids                                 
   RDEPT  =    1.783    core radius for aug-charge                              
                                                                                
   Atomic configuration                                                         
    9 entries                                                                   
     n  l   j            E        occ.                                          
     1  0  0.50    -10959.8463   2.0000                                         
     2  0  0.50     -1371.6056   2.0000                                         
     2  1  1.50     -1198.4791   6.0000                                         
     3  0  0.50      -168.4733   2.0000                                         
     3  1  1.50      -115.6019   6.0000                                         
     3  2  2.50       -29.3106  10.0000                                         
     4  0  0.50       -11.7309   2.0000                                         
     4  1  0.50        -3.8952   2.0000                                         
     4  3  2.50        -4.0817   0.0000                                         
   Description                                                                  
     l       E           TYP  RCUT    TYP  RCUT                                 
     2    -29.3105938     23  2.200                                             
     2    -13.6058260     23  2.200                                             
     0    -11.7309493     23  2.300                                             
     0     -7.4578696     23  2.300                                             
     1     -3.8952261     23  2.300                                             
     1      6.1178114     23  2.300                                             
     3     -1.3605826     23  2.300                                             
  local pseudopotential read in
  partial core-charges read in
  partial kinetic energy density read in
  atomic valenz-charges read in
  non local Contribution for L=           2  read in
    real space projection operators read in
  non local Contribution for L=           2  read in
    real space projection operators read in
  non local Contribution for L=           0  read in
    real space projection operators read in
  non local Contribution for L=           0  read in
    real space projection operators read in
  non local Contribution for L=           1  read in
    real space projection operators read in
  non local Contribution for L=           1  read in
    real space projection operators read in
    PAW grid and wavefunctions read in
 
   number of l-projection  operators is LMAX  =           6
   number of lm-projection operators is LMMAX =          18
 

 ----------------------------------------------------------------------------- 
|                                                                             |
|  ADVICE TO THIS USER RUNNING 'VASP/VAMP'   (HEAR YOUR MASTER'S VOICE ...):  |
|                                                                             |
|      You have a (more or less) 'large supercell' and for larger cells       |
|      it might be more efficient to use real space projection opertators     |
|      So try LREAL= Auto  in the INCAR   file.                               |
|      Mind:          For very  accurate calculation you might also keep the  |
|      reciprocal projection scheme          (i.e. LREAL=.FALSE.)             |
|                                                                             |
 ----------------------------------------------------------------------------- 

  PAW_PBE C 08Apr2002                   :
 energy of atom  1       EATOM= -147.1560
 kinetic energy error for atom=    0.0132 (will be added to EATOM!!)
  PAW_PBE N 08Apr2002                   :
 energy of atom  2       EATOM= -264.5486
 kinetic energy error for atom=    0.0298 (will be added to EATOM!!)
  PAW_PBE Ge_d 03Jul2007                :
 energy of atom  3       EATOM=-2596.2402
 kinetic energy error for atom=    0.0090 (will be added to EATOM!!)
 
 
 POSCAR: POSCAR-c3n4                             
  positions in cartesian coordinates
  No initial velocities read in
 exchange correlation table for  LEXCH =        8
   RHO(1)=    0.500       N(1)  =     2000
   RHO(2)=  100.500       N(2)  =     4000

 VTST: version 3.2, (02/03/18)

 CHAIN: initializing optimizer
 
 OPT: Using VASP Dynamics algorithm
 CHAIN: Read ICHAIN            0
 
 POSCAR: POSCAR-c3n4                             
  positions in cartesian coordinates
  No initial velocities read in
 


--------------------------------------------------------------------------------------------------------


 ion  position               nearest neighbor table
   1  0.106  0.214  0.426-  26 1.42  46 1.42  25 1.50
   2  0.288  0.399  0.433-  29 1.40  35 1.47  25 1.52
   3  0.104  0.392  0.427-  44 1.40  39 1.46  25 1.51
   4  0.447  0.064  0.506-  30 1.40  27 1.42  48 1.49
   5  0.453  0.401  0.413-  28 1.41  29 1.42  56 1.51
   6  0.112  0.053  0.449-  26 1.40  31 1.41  32 1.48
   7  0.096  0.712  0.484-  54 1.41  34 1.44  33 1.49
   8  0.284  0.890  0.501-  27 1.42  37 1.43  33 1.50
   9  0.109  0.895  0.498-  31 1.40  52 1.43  33 1.52
  10  0.448  0.548  0.502-  38 1.40  56 1.44  35 1.44
  11  0.445  0.885  0.489-  37 1.42  36 1.42  48 1.47
  12  0.087  0.542  0.481-  34 1.40  40 1.43  39 1.44
  13  0.616  0.223  0.473-  42 1.43  30 1.43  41 1.49
  14  0.780  0.390  0.400-  45 1.43  51 1.44  41 1.49
  15  0.610  0.394  0.435-  28 1.42  55 1.42  41 1.54
  16  0.940  0.052  0.461-  46 1.40  43 1.41  32 1.48
  17  0.941  0.387  0.394-  45 1.40  44 1.42  40 1.51
  18  0.623  0.066  0.512-  42 1.41  47 1.42  48 1.49
  19  0.613  0.711  0.531-  50 1.41  38 1.45  49 1.49
  20  0.790  0.897  0.523-  43 1.41  53 1.42  49 1.53
  21  0.609  0.892  0.521-  47 1.42  36 1.43  49 1.52
  22  0.938  0.563  0.421-  51 1.39  54 1.43  40 1.51
  23  0.954  0.902  0.535-  52 1.42  53 1.42  32 1.48
  24  0.621  0.555  0.490-  55 1.40  50 1.41  56 1.50
  25  0.167  0.335  0.425-   1 1.50   3 1.51   2 1.52
  26  0.165  0.161  0.421-   6 1.40   1 1.42
  27  0.336  0.002  0.522-   8 1.42   4 1.42
  28  0.512  0.352  0.392-   5 1.41  15 1.42
  29  0.345  0.361  0.390-   2 1.40   5 1.42
  30  0.506  0.177  0.493-   4 1.40  13 1.43
  31  0.159  0.988  0.447-   9 1.40   6 1.41
  32  0.002  0.002  0.483-  16 1.48  23 1.48   6 1.48
  33  0.165  0.831  0.500-   7 1.49   8 1.50   9 1.52
  34  0.134  0.645  0.518-  12 1.40   7 1.44
  35  0.334  0.491  0.492-  10 1.44   2 1.47  57 2.19
  36  0.503  0.831  0.490-  11 1.42  21 1.43
  37  0.333  0.829  0.479-  11 1.42   8 1.43
  38  0.499  0.648  0.545-  10 1.40  19 1.45
  39  0.142  0.484  0.485-  12 1.44   3 1.46  57 2.20
  40  0.988  0.496  0.436-  12 1.43  22 1.51  17 1.51
  41  0.667  0.330  0.429-  13 1.49  14 1.49  15 1.54
  42  0.680  0.178  0.495-  18 1.41  13 1.43
  43  0.827  0.986  0.468-  20 1.41  16 1.41
  44  0.011  0.348  0.379-   3 1.40  17 1.42
  45  0.830  0.330  0.380-  17 1.40  14 1.43
  46  0.993  0.161  0.435-  16 1.40   1 1.42
  47  0.669  0.005  0.539-  21 1.42  18 1.42
  48  0.505  0.004  0.498-  11 1.47  18 1.49   4 1.49
  49  0.668  0.832  0.534-  19 1.49  21 1.52  20 1.53
  50  0.675  0.666  0.512-  19 1.41  24 1.41
  51  0.832  0.507  0.396-  22 1.39  14 1.44
  52  0.016  0.853  0.549-  23 1.42   9 1.43
  53  0.849  0.860  0.566-  20 1.42  23 1.42
  54  0.004  0.677  0.435-   7 1.41  22 1.43
  55  0.668  0.491  0.484-  24 1.40  15 1.42
  56  0.506  0.502  0.467-  10 1.44  24 1.50   5 1.51
  57  0.287  0.593  0.558-  35 2.19  39 2.20
 

IMPORTANT INFORMATION: All symmetrisations will be switched off!
NOSYMM: (Re-)initialisation of all symmetry stuff for point group C_1.

 
 
 KPOINTS: K-Points                                

Automatic generation of k-mesh.
Space group operators:
 irot       det(A)        alpha          n_x          n_y          n_z        tau_x        tau_y        tau_z
    1     1.000000     0.000001     1.000000     0.000000     0.000000     0.000000     0.000000     0.000000
 
 Subroutine IBZKPT returns following result:
 ===========================================
 
 Found      5 irreducible k-points:
 
 Following reciprocal coordinates:
            Coordinates               Weight
  0.000000  0.000000  0.000000      1.000000
  0.333333  0.000000  0.000000      2.000000
  0.000000  0.333333  0.000000      2.000000
  0.333333  0.333333  0.000000      2.000000
 -0.333333  0.333333  0.000000      2.000000
 
 Following cartesian coordinates:
            Coordinates               Weight
  0.000000  0.000000  0.000000      1.000000
  0.024277  0.014368  0.000000      2.000000
  0.000396  0.028736  0.000000      2.000000
  0.024673  0.043104  0.000000      2.000000
 -0.023881  0.014368  0.000000      2.000000
 
 TETIRR: Found     24 inequivalent tetrahedra from       54


--------------------------------------------------------------------------------------------------------




 Dimension of arrays:
   k-points           NKPTS =      5   k-points in BZ     NKDIM =      5   number of bands    NBANDS=    168
   number of dos      NEDOS =   4000   number of ions     NIONS =     57
   non local maximal  LDIM  =      6   non local SUM 2l+1 LMDIM =     18
   total plane-waves  NPLWV = 537600
   max r-space proj   IRMAX =      1   max aug-charges    IRDMAX=   6501
   dimension x,y,z NGX =    80 NGY =   80 NGZ =   84
   dimension x,y,z NGXF=   160 NGYF=  160 NGZF=  168
   support grid    NGXF=   160 NGYF=  160 NGZF=  168
   ions per type =              24  32   1
   NGX,Y,Z   is equivalent  to a cutoff of   9.06,  9.23,  8.78 a.u.
   NGXF,Y,Z  is equivalent  to a cutoff of  18.13, 18.46, 17.57 a.u.

 SYSTEM =  unknown system                          
 POSCAR =  POSCAR-c3n4                             

 Startparameter for this run:
   NWRITE =      2    write-flag & timer
   PREC   = normal    normal or accurate (medium, high low for compatibility)
   ISTART =      0    job   : 0-new  1-cont  2-samecut
   ICHARG =      2    charge: 1-file 2-atom 10-const
   ISPIN  =      2    spin polarized calculation?
   LNONCOLLINEAR =      F non collinear calculations
   LSORBIT =      F    spin-orbit coupling
   INIWAV =      1    electr: 0-lowe 1-rand  2-diag
   LASPH  =      F    aspherical Exc in radial PAW
   METAGGA=      F    non-selfconsistent MetaGGA calc.

 Electronic Relaxation 1
   ENCUT  =  440.0 eV  32.34 Ry    5.69 a.u.  25.10 24.64 27.19*2*pi/ulx,y,z
   ENINI  =  440.0     initial cutoff
   ENAUG  =  644.9 eV  augmentation charge cutoff
   NELM   =    100;   NELMIN=  2; NELMDL= -5     # of ELM steps 
   EDIFF  = 0.1E-03   stopping-criterion for ELM
   LREAL  =      F    real-space projection
   NLSPLINE    = F    spline interpolate recip. space projectors
   LCOMPAT=      F    compatible to vasp.4.4
   GGA_COMPAT  = T    GGA compatible to vasp.4.4-vasp.4.6
   LMAXPAW     = -100 max onsite density
   LMAXMIX     =    2 max onsite mixed and CHGCAR
   VOSKOWN=      0    Vosko Wilk Nusair interpolation
   ROPT   =    0.00000   0.00000   0.00000
 Ionic relaxation
   EDIFFG = -.1E-01   stopping-criterion for IOM
   NSW    =      0    number of steps for IOM
   NBLOCK =      1;   KBLOCK =      1    inner block; outer block 
   IBRION =     -1    ionic relax: 0-MD 1-quasi-New 2-CG
   NFREE  =      0    steps in history (QN), initial steepest desc. (CG)
   ISIF   =      2    stress and relaxation
   IWAVPR =     10    prediction:  0-non 1-charg 2-wave 3-comb
   ISYM   =      0    0-nonsym 1-usesym 2-fastsym
   LCORR  =      T    Harris-Foulkes like correction to forces

   POTIM  = 0.5000    time-step for ionic-motion
   TEIN   =    0.0    initial temperature
   TEBEG  =    0.0;   TEEND  =   0.0 temperature during run
   SMASS  =  -3.00    Nose mass-parameter (am)
   estimated Nose-frequenzy (Omega)   =  0.10E-29 period in steps =****** mass=  -0.492E-26a.u.
   SCALEE = 1.0000    scale energy and forces
   NPACO  =    256;   APACO  = 16.0  distance and # of slots for P.C.
   PSTRESS=    0.0 pullay stress

  Mass of Ions in am
   POMASS =  12.01 14.00 72.61
  Ionic Valenz
   ZVAL   =   4.00  5.00 14.00
  Atomic Wigner-Seitz radii
   RWIGS  =  -1.00 -1.00 -1.00
  virtual crystal weights 
   VCA    =   1.00  1.00  1.00
   NELECT =     270.0000    total number of electrons
   NUPDOWN=      -1.0000    fix difference up-down

 DOS related values:
   EMIN   = -14.00;   EMAX   =  6.00  energy-range for DOS
   EFERMI =   0.00
   ISMEAR =    -5;   SIGMA  =   0.20  broadening in eV -4-tet -1-fermi 0-gaus

 Electronic relaxation 2 (details)
   IALGO  =     38    algorithm
   LDIAG  =      T    sub-space diagonalisation (order eigenvalues)
   LSUBROT=      F    optimize rotation matrix (better conditioning)
   TURBO    =      0    0=normal 1=particle mesh
   IRESTART =      0    0=no restart 2=restart with 2 vectors
   NREBOOT  =      0    no. of reboots
   NMIN     =      0    reboot dimension
   EREF     =   0.00    reference energy to select bands
   IMIX   =      4    mixing-type and parameters
     AMIX     =   0.25;   BMIX     =  0.00
     AMIX_MAG =   1.00;   BMIX_MAG =  0.00
     AMIN     =   0.10
     WC   =   100.;   INIMIX=   1;  MIXPRE=   1;  MAXMIX= -45

 Intra band minimization:
   WEIMIN = 0.0000     energy-eigenvalue tresh-hold
   EBREAK =  0.15E-06  absolut break condition
   DEPER  =   0.30     relativ break condition  

   TIME   =   0.40     timestep for ELM

  volume/ion in A,a.u.               =      50.33       339.65
  Fermi-wavevector in a.u.,A,eV,Ry     =   0.744666  1.407215  7.544804  0.554527
  Thomas-Fermi vector in A             =   1.840071
 
 Write flags
   LWAVE        =      F    write WAVECAR
   LDOWNSAMPLE  =      F    k-point downsampling of WAVECAR
   LCHARG       =      F    write CHGCAR
   LVTOT        =      F    write LOCPOT, total local potential
   LVHAR        =      F    write LOCPOT, Hartree potential only
   LELF         =      F    write electronic localiz. function (ELF)
   LORBIT       =     11    0 simple, 1 ext, 2 COOP (PROOUT), +10 PAW based schemes


 Dipole corrections
   LMONO  =      F    monopole corrections only (constant potential shift)
   LDIPOL =      F    correct potential (dipole corrections)
   IDIPOL =      0    1-x, 2-y, 3-z, 4-all directions 
   EPSILON=  1.0000000 bulk dielectric constant

 Exchange correlation treatment:
   GGA     =    --    GGA type
   LEXCH   =     8    internal setting for exchange type
   VOSKOWN=      0    Vosko Wilk Nusair interpolation
   LHFCALC =     F    Hartree Fock is set to
   LHFONE  =     F    Hartree Fock one center treatment
   AEXX    =    0.0000 exact exchange contribution

 Linear response parameters
   LEPSILON=     F    determine dielectric tensor
   LRPA    =     F    only Hartree local field effects (RPA)
   LNABLA  =     F    use nabla operator in PAW spheres
   LVEL    =     F    velocity operator in full k-point grid
   LINTERFAST=   F  fast interpolation
   KINTER  =     0    interpolate to denser k-point grid
   CSHIFT  =0.1000    complex shift for real part using Kramers Kronig
   OMEGAMAX=  -1.0    maximum frequency
   DEG_THRESHOLD= 0.2000000E-02 threshold for treating states as degnerate
   RTIME   =   -0.100 relaxation time in fs
  (WPLASMAI=    0.000 imaginary part of plasma frequency in eV, 0.658/RTIME)
   DFIELD  = 0.0000000 0.0000000 0.0000000 field for delta impulse in time
 
 Orbital magnetization related:
   ORBITALMAG=     F  switch on orbital magnetization
   LCHIMAG   =     F  perturbation theory with respect to B field
   DQ        =  0.001000  dq finite difference perturbation B field
   LLRAUG    =     F  two centre corrections for induced B field



--------------------------------------------------------------------------------------------------------


 Static calculation
 charge density and potential will be updated during run
 spin polarized calculation
 Variant of blocked Davidson
 Davidson routine will perform the subspace rotation
 perform sub-space diagonalisation
    after iterative eigenvector-optimisation
 modified Broyden-mixing scheme, WC =      100.0
 initial mixing is a Kerker type mixing with AMIX =  0.2500 and BMIX =      0.0001
 Hartree-type preconditioning will be used
 using additional bands           33
 reciprocal scheme for non local part
 use partial core corrections
 calculate Harris-corrections to forces 
   (improved forces if not selfconsistent)
 use gradient corrections 
 use of overlap-Matrix (Vanderbilt PP)
 Fermi weights with tetrahedron method with Bloechl corrections


--------------------------------------------------------------------------------------------------------


  energy-cutoff  :      440.00
  volume of cell :     2868.82
      direct lattice vectors                 reciprocal lattice vectors
    14.674029689 -0.202184902  0.000000000     0.068707896  0.040664259  0.000000000
    -7.337014844 12.396902454  0.000000000     0.001120578  0.081328518  0.000000000
     0.000000000  0.000000000 15.900000000     0.000000000  0.000000000  0.062893082

  length of vectors
    14.675422517 14.405380150 15.900000000     0.079839569  0.081336237  0.062893082


 
 k-points in units of 2pi/SCALE and weight: K-Points                                
   0.00000000  0.00000000  0.00000000       0.111
   0.02427679  0.01436804  0.00000000       0.222
   0.00039594  0.02873608  0.00000000       0.222
   0.02467273  0.04310411  0.00000000       0.222
  -0.02388085  0.01436804  0.00000000       0.222
 
 k-points in reciprocal lattice and weights: K-Points                                
   0.00000000  0.00000000  0.00000000       0.111
   0.33333333  0.00000000  0.00000000       0.222
   0.00000000  0.33333333  0.00000000       0.222
   0.33333333  0.33333333  0.00000000       0.222
  -0.33333333  0.33333333  0.00000000       0.222
 
 position of ions in fractional coordinates (direct lattice) 
   0.10567936  0.21351909  0.42646415
   0.28750403  0.39866334  0.43315811
   0.10379301  0.39177313  0.42728737
   0.44732828  0.06383887  0.50569377
   0.45258916  0.40124889  0.41252546
   0.11203481  0.05273921  0.44868132
   0.09638015  0.71191070  0.48390127
   0.28433946  0.89006364  0.50120122
   0.10941441  0.89537413  0.49812536
   0.44792521  0.54827090  0.50190381
   0.44544784  0.88520183  0.48897001
   0.08690842  0.54210436  0.48067119
   0.61614813  0.22292684  0.47270451
   0.78023735  0.38968276  0.39988272
   0.61037743  0.39432339  0.43546161
   0.93951642  0.05229783  0.46070020
   0.94071854  0.38652888  0.39388003
   0.62278394  0.06558106  0.51203168
   0.61322902  0.71118454  0.53124878
   0.78984871  0.89727295  0.52288011
   0.60944297  0.89248269  0.52132702
   0.93832005  0.56283419  0.42050954
   0.95436023  0.90171878  0.53466451
   0.62130548  0.55465507  0.48986027
   0.16668926  0.33545237  0.42502835
   0.16473950  0.16097029  0.42095206
   0.33626584  0.00180669  0.52215766
   0.51175722  0.35246859  0.39238613
   0.34471728  0.36074551  0.38975287
   0.50565751  0.17673507  0.49315170
   0.15873210  0.98821904  0.44665654
   0.00214731  0.00186372  0.48284181
   0.16462634  0.83083069  0.50025956
   0.13400723  0.64526801  0.51778798
   0.33371346  0.49116238  0.49155062
   0.50288345  0.83078126  0.48972341
   0.33307237  0.82932770  0.47937372
   0.49902190  0.64803204  0.54483375
   0.14173676  0.48364631  0.48511610
   0.98839512  0.49595573  0.43598798
   0.66736443  0.33015381  0.42931770
   0.67970142  0.17802103  0.49523771
   0.82720183  0.98622484  0.46784919
   0.01097216  0.34809993  0.37880244
   0.83047981  0.33016544  0.37952861
   0.99296173  0.16101876  0.43513088
   0.66886761  0.00524437  0.53948092
   0.50484899  0.00388347  0.49830916
   0.66830364  0.83227641  0.53419919
   0.67536455  0.66551462  0.51246466
   0.83211404  0.50666912  0.39574663
   0.01584380  0.85299492  0.54867721
   0.84924332  0.85956436  0.56604968
   0.00424175  0.67726383  0.43455477
   0.66753141  0.49127771  0.48382075
   0.50565566  0.50179634  0.46716125
   0.28676550  0.59288202  0.55779478
 
 position of ions in cartesian coordinates  (Angst):
  -0.01585061  2.62560850  6.78078001
   1.29384379  4.88406155  6.88721400
  -1.35138364  4.83578791  6.79386920
   6.09572175  0.70096118  8.04053088
   3.69733762  4.88273669  6.55915482
   1.25705377  0.63115114  7.13403301
  -3.80901422  8.80600091  7.69403022
  -2.35800449 10.97654296  7.96909944
  -4.96382306 11.07774382  7.92019320
   2.55019615  6.70629716  7.98027054
   0.04177590 10.88369793  7.77462308
  -2.70213108  6.70284336  7.64267187
   7.40575841  2.63902646  7.51600166
   8.59011779  4.67310699  6.35813524
   6.06353989  4.76497954  6.92383964
  13.40278195  0.45837503  7.32513321
  10.96816369  4.60156177  6.26269251
   8.65758081  0.68708443  8.14130367
   3.78056937  8.69249975  8.44685556
   5.00695843 10.96370979  8.31379367
   2.39482546 10.94080063  8.28909965
   9.63941345  6.78768645  6.68610169
   7.38838621 10.98556255  8.50116577
   5.04754262  6.75038625  7.78877824
  -0.01521587  4.12486828  6.75795073
   1.23635096  1.96222510  6.69313773
   4.92111916 -0.04559055  8.30230674
   4.92347343  4.26604911  6.23893954
   2.41159641  4.40243028  6.19707069
   6.12332542  2.08873117  7.84111200
  -4.92133830 12.21876182  7.10183903
   0.01783557  0.02267020  7.67718483
  -3.68008521 10.26644202  7.95412705
  -2.76791489  7.97223031  8.23282883
   1.29325561  6.02142025  7.81565485
   1.28387227 10.19743874  7.78660230
  -1.19727582 10.21375238  7.62204219
   2.56804149  7.93269530  8.66285666
  -1.46867074  5.96705904  7.71334602
  10.86490481  5.94847627  6.93220883
   7.37058206  3.95795360  6.82615146
   8.66781593  2.06948396  7.87427958
   4.90243798 12.05888540  7.43880208
  -2.39300856  4.31314241  6.02295880
   9.76405662  3.92511827  6.03450491
  13.38935281  1.79537198  6.91858092
   9.77650524 -0.07022104  8.57774657
   7.37967602 -0.05392985  7.92311564
   3.70028316 10.18252853  8.49376718
   5.02742876  8.11377133  8.14818807
   8.49302721  6.11288679  6.29237141
  -6.02594405 10.57129146  8.72396768
   6.15518521 10.48423140  9.00018990
  -4.90685126  8.39511605  6.90942085
   6.19086380  5.95535709  7.69274988
   3.73831894  6.11848439  7.42786383
  -0.14197875  7.29192097  8.86893705
 


--------------------------------------------------------------------------------------------------------


 k-point  1 :   0.0000 0.0000 0.0000  plane waves:   60121
 k-point  2 :   0.3333 0.0000 0.0000  plane waves:   60156
 k-point  3 :   0.0000 0.3333 0.0000  plane waves:   60050
 k-point  4 :   0.3333 0.3333 0.0000  plane waves:   60101
 k-point  5 :  -0.3333 0.3333 0.0000  plane waves:   60131

 maximum and minimum number of plane-waves per node :      5037     4979

 maximum number of plane-waves:     60156
 maximum index in each direction: 
   IXMAX=   25   IYMAX=   24   IZMAX=   27
   IXMIN=  -25   IYMIN=  -24   IZMIN=  -27


 parallel 3D FFT for wavefunctions:
    minimum data exchange during FFTs selected (reduces bandwidth)
 parallel 3D FFT for charge:
    minimum data exchange during FFTs selected (reduces bandwidth)


 total amount of memory used by VASP MPI-rank0    98010. kBytes
=======================================================================

   base      :      30000. kBytes
   nonl-proj :      15446. kBytes
   fftplans  :       4937. kBytes
   grid      :      13335. kBytes
   one-center:        155. kBytes
   wavefun   :      34137. kBytes
 
     INWAV:  cpu time    0.0000: real time    0.0000
 Broyden mixing: mesh for mixing (old mesh)
   NGX = 51   NGY = 49   NGZ = 55
  (NGX  =160   NGY  =160   NGZ  =168)
  gives a total of 137445 points

 initial charge density was supplied:
 charge density of overlapping atoms calculated
 number of electron     270.0000000 magnetization       1.0000000
 keeping initial charge density in first step


--------------------------------------------------------------------------------------------------------


 Maximum index for augmentation-charges          349 (set IRDMAX)


--------------------------------------------------------------------------------------------------------


 First call to EWALD:  gamma=   0.125
 Maximum number of real-space cells 3x 3x 3
 Maximum number of reciprocal cells 3x 3x 3

    FEWALD:  cpu time    0.0038: real time    0.0040


--------------------------------------- Iteration      1(   1)  ---------------------------------------


    POTLOK:  cpu time    0.1881: real time    0.2124
    SETDIJ:  cpu time    0.0087: real time    0.0096
     EDDAV:  cpu time    8.5899: real time    8.6807
 BZINTS: Fermi energy:  8.139826;270.000000 electrons
         Band energy:***********;  BLOECHL correction: -0.004254
       DOS:  cpu time    0.1014: real time    0.1018
    --------------------------------------------
      LOOP:  cpu time    8.8881: real time    9.0045

 eigenvalue-minimisations  :  3824
 total energy-change (2. order) : 0.2476348E+04  (-0.9500278E+04)
 number of electron     270.0000000 magnetization       1.0000000
 augmentation part      270.0000000 magnetization       1.0000000

 Free energy of the ion-electron system (eV)
  ---------------------------------------------------
  alpha Z        PSCENC =       121.13487447
  Ewald energy   TEWEN  =     25833.33450354
  -Hartree energ DENC   =    -37417.54275692
  -exchange      EXHF   =         0.00000000
  -V(xc)+E(xc)   XCENC  =      1006.77609645
  PAW double counting   =     10998.91041168   -11485.61342155
  entropy T*S    EENTRO =         0.00000000
  eigenvalues    EBANDS =     -1172.91227539
  atomic energy  EATOM  =     14592.26033195
  Solvation  Ediel_sol  =         0.00000000
  ---------------------------------------------------
  free energy    TOTEN  =      2476.34776422 eV

  energy without entropy =     2476.34776422  energy(sigma->0) =     2476.34776422


--------------------------------------------------------------------------------------------------------




--------------------------------------- Iteration      1(   2)  ---------------------------------------


     EDDAV:  cpu time   11.3731: real time   11.5956
 BZINTS: Fermi energy: -0.495999;270.000000 electrons
         Band energy:***********;  BLOECHL correction:  0.000000
       DOS:  cpu time    0.0041: real time    0.0041
    --------------------------------------------
      LOOP:  cpu time   11.3773: real time   11.5998

 eigenvalue-minimisations  :  4800
 total energy-change (2. order) :-0.2398361E+04  (-0.2291951E+04)
 number of electron     270.0000000 magnetization       1.0000000
 augmentation part      270.0000000 magnetization       1.0000000

 Free energy of the ion-electron system (eV)
  ---------------------------------------------------
  alpha Z        PSCENC =       121.13487447
  Ewald energy   TEWEN  =     25833.33450354
  -Hartree energ DENC   =    -37417.54275692
  -exchange      EXHF   =         0.00000000
  -V(xc)+E(xc)   XCENC  =      1006.77609645
  PAW double counting   =     10998.91041168   -11485.61342155
  entropy T*S    EENTRO =         0.00000000
  eigenvalues    EBANDS =     -3571.27303153
  atomic energy  EATOM  =     14592.26033195
  Solvation  Ediel_sol  =         0.00000000
  ---------------------------------------------------
  free energy    TOTEN  =        77.98700808 eV

  energy without entropy =       77.98700808  energy(sigma->0) =       77.98700808


--------------------------------------------------------------------------------------------------------




--------------------------------------- Iteration      1(   3)  ---------------------------------------


     EDDAV:  cpu time   10.2206: real time   10.4845
 BZINTS: Fermi energy: -3.603278;270.000000 electrons
         Band energy:***********;  BLOECHL correction: -0.015052
       DOS:  cpu time    0.0093: real time    0.0093
    --------------------------------------------
      LOOP:  cpu time   10.2299: real time   10.4939

 eigenvalue-minimisations  :  4216
 total energy-change (2. order) :-0.5451373E+03  (-0.5405246E+03)
 number of electron     270.0000000 magnetization       1.0000000
 augmentation part      270.0000000 magnetization       1.0000000

 Free energy of the ion-electron system (eV)
  ---------------------------------------------------
  alpha Z        PSCENC =       121.13487447
  Ewald energy   TEWEN  =     25833.33450354
  -Hartree energ DENC   =    -37417.54275692
  -exchange      EXHF   =         0.00000000
  -V(xc)+E(xc)   XCENC  =      1006.77609645
  PAW double counting   =     10998.91041168   -11485.61342155
  entropy T*S    EENTRO =         0.00000000
  eigenvalues    EBANDS =     -4116.41028433
  atomic energy  EATOM  =     14592.26033195
  Solvation  Ediel_sol  =         0.00000000
  ---------------------------------------------------
  free energy    TOTEN  =      -467.15024472 eV

  energy without entropy =     -467.15024472  energy(sigma->0) =     -467.15024472


--------------------------------------------------------------------------------------------------------




--------------------------------------- Iteration      1(   4)  ---------------------------------------


     EDDAV:  cpu time    9.9744: real time   10.1143
 BZINTS: Fermi energy: -4.016254;270.000000 electrons
         Band energy:***********;  BLOECHL correction:  0.000000
       DOS:  cpu time    0.0039: real time    0.0039
    --------------------------------------------
      LOOP:  cpu time    9.9783: real time   10.1182

 eigenvalue-minimisations  :  4112
 total energy-change (2. order) :-0.2369217E+02  (-0.2305923E+02)
 number of electron     270.0000000 magnetization       1.0000000
 augmentation part      270.0000000 magnetization       1.0000000

 Free energy of the ion-electron system (eV)
  ---------------------------------------------------
  alpha Z        PSCENC =       121.13487447
  Ewald energy   TEWEN  =     25833.33450354
  -Hartree energ DENC   =    -37417.54275692
  -exchange      EXHF   =         0.00000000
  -V(xc)+E(xc)   XCENC  =      1006.77609645
  PAW double counting   =     10998.91041168   -11485.61342155
  entropy T*S    EENTRO =         0.00000000
  eigenvalues    EBANDS =     -4140.10245884
  atomic energy  EATOM  =     14592.26033195
  Solvation  Ediel_sol  =         0.00000000
  ---------------------------------------------------
  free energy    TOTEN  =      -490.84241923 eV

  energy without entropy =     -490.84241923  energy(sigma->0) =     -490.84241923


--------------------------------------------------------------------------------------------------------




--------------------------------------- Iteration      1(   5)  ---------------------------------------


     EDDAV:  cpu time   11.5566: real time   11.7656
 BZINTS: Fermi energy: -4.046262;270.000000 electrons
         Band energy:***********;  BLOECHL correction:  0.000000
       DOS:  cpu time    0.0037: real time    0.0037
    CHARGE:  cpu time    0.1568: real time    0.1642
    MIXING:  cpu time    0.0035: real time    0.0049
    --------------------------------------------
      LOOP:  cpu time   11.7206: real time   11.9385

 eigenvalue-minimisations  :  5000
 total energy-change (2. order) :-0.1163436E+01  (-0.1151323E+01)
 number of electron     269.9999961 magnetization       0.0000001
 augmentation part       18.3055644 magnetization       0.0029991

 Broyden mixing:
  rms(total) = 0.35800E+01    rms(broyden)= 0.35772E+01
  rms(prec ) = 0.39663E+01
  weight for this iteration     100.00

 Free energy of the ion-electron system (eV)
  ---------------------------------------------------
  alpha Z        PSCENC =       121.13487447
  Ewald energy   TEWEN  =     25833.33450354
  -Hartree energ DENC   =    -37417.54275692
  -exchange      EXHF   =         0.00000000
  -V(xc)+E(xc)   XCENC  =      1006.77609645
  PAW double counting   =     10998.91041168   -11485.61342155
  entropy T*S    EENTRO =         0.00000000
  eigenvalues    EBANDS =     -4141.26589508
  atomic energy  EATOM  =     14592.26033195
  Solvation  Ediel_sol  =         0.00000000
  ---------------------------------------------------
  free energy    TOTEN  =      -492.00585547 eV

  energy without entropy =     -492.00585547  energy(sigma->0) =     -492.00585547


--------------------------------------------------------------------------------------------------------




--------------------------------------- Iteration      1(   6)  ---------------------------------------


    POTLOK:  cpu time    0.1499: real time    0.1534
    SETDIJ:  cpu time    0.0088: real time    0.0089
     EDDAV:  cpu time    9.4775: real time    9.5927
 BZINTS: Fermi energy: -4.035009;270.000000 electrons
         Band energy:***********;  BLOECHL correction:  0.000000
       DOS:  cpu time    0.0035: real time    0.0035
    CHARGE:  cpu time    0.1753: real time    0.1811
    MIXING:  cpu time    0.0037: real time    0.0042
    --------------------------------------------
      LOOP:  cpu time    9.8189: real time    9.9439

 eigenvalue-minimisations  :  4088
 total energy-change (2. order) : 0.2102328E+02  (-0.5591061E+01)
 number of electron     269.9999962 magnetization      -0.0000000
 augmentation part       17.1822103 magnetization       0.0000398

 Broyden mixing:
  rms(total) = 0.21265E+01    rms(broyden)= 0.21260E+01
  rms(prec ) = 0.22723E+01
  weight for this iteration     100.00

 eigenvalues of (default mixing * dielectric matrix)
  average eigenvalue GAMMA=   1.2721
  1.2721

 Free energy of the ion-electron system (eV)
  ---------------------------------------------------
  alpha Z        PSCENC =       121.13487447
  Ewald energy   TEWEN  =     25833.33450354
  -Hartree energ DENC   =    -37627.24390061
  -exchange      EXHF   =         0.00000000
  -V(xc)+E(xc)   XCENC  =      1018.74074788
  PAW double counting   =     13663.68433988   -14151.28343787
  entropy T*S    EENTRO =         0.00000000
  eigenvalues    EBANDS =     -3921.61003355
  atomic energy  EATOM  =     14592.26033195
  Solvation  Ediel_sol  =         0.00000000
  ---------------------------------------------------
  free energy    TOTEN  =      -470.98257432 eV

  energy without entropy =     -470.98257432  energy(sigma->0) =     -470.98257432


--------------------------------------------------------------------------------------------------------




--------------------------------------- Iteration      1(   7)  ---------------------------------------


    POTLOK:  cpu time    0.1460: real time    0.1503
    SETDIJ:  cpu time    0.0093: real time    0.0094
     EDDAV:  cpu time    9.9192: real time   10.0320
 BZINTS: Fermi energy: -3.751188;270.000000 electrons
         Band energy:***********;  BLOECHL correction:  0.000000
       DOS:  cpu time    0.0037: real time    0.0037
    CHARGE:  cpu time    0.1569: real time    0.1618
    MIXING:  cpu time    0.0032: real time    0.0036
    --------------------------------------------
      LOOP:  cpu time   10.2382: real time   10.3608

 eigenvalue-minimisations  :  4344
 total energy-change (2. order) : 0.1876640E+01  (-0.2429944E+01)
 number of electron     269.9999963 magnetization      -0.0000000
 augmentation part       16.9167277 magnetization      -0.0018764

 Broyden mixing:
  rms(total) = 0.14732E+01    rms(broyden)= 0.14728E+01
  rms(prec ) = 0.15962E+01
  weight for this iteration     100.00

 eigenvalues of (default mixing * dielectric matrix)
  average eigenvalue GAMMA=   1.3410
  0.9016  1.7805

 Free energy of the ion-electron system (eV)
  ---------------------------------------------------
  alpha Z        PSCENC =       121.13487447
  Ewald energy   TEWEN  =     25833.33450354
  -Hartree energ DENC   =    -37787.10539479
  -exchange      EXHF   =         0.00000000
  -V(xc)+E(xc)   XCENC  =      1025.65653435
  PAW double counting   =     16539.37086271   -17028.35977532
  entropy T*S    EENTRO =         0.00000000
  eigenvalues    EBANDS =     -3765.39787139
  atomic energy  EATOM  =     14592.26033195
  Solvation  Ediel_sol  =         0.00000000
  ---------------------------------------------------
  free energy    TOTEN  =      -469.10593450 eV

  energy without entropy =     -469.10593450  energy(sigma->0) =     -469.10593450


--------------------------------------------------------------------------------------------------------




--------------------------------------- Iteration      1(   8)  ---------------------------------------


    POTLOK:  cpu time    0.1420: real time    0.1480
    SETDIJ:  cpu time    0.0089: real time    0.0090
     EDDAV:  cpu time    9.3110: real time    9.4045
 BZINTS: Fermi energy: -3.391098;270.000000 electrons
         Band energy:***********;  BLOECHL correction:  0.000000
       DOS:  cpu time    0.0036: real time    0.0036
    CHARGE:  cpu time    0.1852: real time    0.1873
    MIXING:  cpu time    0.0034: real time    0.0035
    --------------------------------------------
      LOOP:  cpu time    9.6541: real time    9.7558

 eigenvalue-minimisations  :  4024
 total energy-change (2. order) : 0.1417323E+01  (-0.8792312E+00)
 number of electron     269.9999963 magnetization       0.0000000
 augmentation part       16.7112298 magnetization      -0.0009258

 Broyden mixing:
  rms(total) = 0.10502E+01    rms(broyden)= 0.10500E+01
  rms(prec ) = 0.11343E+01
  weight for this iteration     100.00

 eigenvalues of (default mixing * dielectric matrix)
  average eigenvalue GAMMA=   1.5580
  2.8711  1.1833  0.6196

 Free energy of the ion-electron system (eV)
  ---------------------------------------------------
  alpha Z        PSCENC =       121.13487447
  Ewald energy   TEWEN  =     25833.33450354
  -Hartree energ DENC   =    -37858.70684008
  -exchange      EXHF   =         0.00000000
  -V(xc)+E(xc)   XCENC  =      1028.88494505
  PAW double counting   =     18670.79839524   -19161.41719881
  entropy T*S    EENTRO =         0.00000000
  eigenvalues    EBANDS =     -3693.97762302
  atomic energy  EATOM  =     14592.26033195
  Solvation  Ediel_sol  =         0.00000000
  ---------------------------------------------------
  free energy    TOTEN  =      -467.68861166 eV

  energy without entropy =     -467.68861166  energy(sigma->0) =     -467.68861166


--------------------------------------------------------------------------------------------------------




--------------------------------------- Iteration      1(   9)  ---------------------------------------


    POTLOK:  cpu time    0.1418: real time    0.1443
    SETDIJ:  cpu time    0.0089: real time    0.0089
     EDDAV:  cpu time   10.0956: real time   10.2257
 BZINTS: Fermi energy: -3.241060;270.000000 electrons
         Band energy:***********;  BLOECHL correction:  0.000000
       DOS:  cpu time    0.0037: real time    0.0037
    CHARGE:  cpu time    0.1557: real time    0.1575
    MIXING:  cpu time    0.0038: real time    0.0038
    --------------------------------------------
      LOOP:  cpu time   10.4094: real time   10.5439

 eigenvalue-minimisations  :  4560
 total energy-change (2. order) :-0.2493122E+00  (-0.1600385E+01)
 number of electron     269.9999963 magnetization       0.0000000
 augmentation part       16.8365242 magnetization      -0.0001308

 Broyden mixing:
  rms(total) = 0.64077E+00    rms(broyden)= 0.64044E+00
  rms(prec ) = 0.81480E+00
  weight for this iteration     100.00

 eigenvalues of (default mixing * dielectric matrix)
  average eigenvalue GAMMA=   1.4987
  3.5260  1.2237  0.6225  0.6225

 Free energy of the ion-electron system (eV)
  ---------------------------------------------------
  alpha Z        PSCENC =       121.13487447
  Ewald energy   TEWEN  =     25833.33450354
  -Hartree energ DENC   =    -37916.37477356
  -exchange      EXHF   =         0.00000000
  -V(xc)+E(xc)   XCENC  =      1031.17314334
  PAW double counting   =     21473.87338471   -21968.70450389
  entropy T*S    EENTRO =         0.00000000
  eigenvalues    EBANDS =     -3634.63488441
  atomic energy  EATOM  =     14592.26033195
  Solvation  Ediel_sol  =         0.00000000
  ---------------------------------------------------
  free energy    TOTEN  =      -467.93792387 eV

  energy without entropy =     -467.93792387  energy(sigma->0) =     -467.93792387


--------------------------------------------------------------------------------------------------------




--------------------------------------- Iteration      1(  10)  ---------------------------------------


    POTLOK:  cpu time    0.1432: real time    0.1453
    SETDIJ:  cpu time    0.0104: real time    0.0105
     EDDAV:  cpu time    9.7016: real time    9.7846
 BZINTS: Fermi energy: -2.870968;270.000000 electrons
         Band energy:***********;  BLOECHL correction:  0.000000
       DOS:  cpu time    0.0036: real time    0.0036
    CHARGE:  cpu time    0.1895: real time    0.1902
    MIXING:  cpu time    0.0039: real time    0.0040
    --------------------------------------------
      LOOP:  cpu time   10.0523: real time   10.1382

 eigenvalue-minimisations  :  4240
 total energy-change (2. order) : 0.7672537E+00  (-0.6780974E+00)
 number of electron     269.9999963 magnetization       0.0000000
 augmentation part       16.8291804 magnetization      -0.0003436

 Broyden mixing:
  rms(total) = 0.32277E+00    rms(broyden)= 0.32192E+00
  rms(prec ) = 0.42430E+00
  weight for this iteration     100.00

 eigenvalues of (default mixing * dielectric matrix)
  average eigenvalue GAMMA=   1.3997
  3.7789  1.2587  0.9217  0.5197  0.5197

 Free energy of the ion-electron system (eV)
  ---------------------------------------------------
  alpha Z        PSCENC =       121.13487447
  Ewald energy   TEWEN  =     25833.33450354
  -Hartree energ DENC   =    -37946.29285825
  -exchange      EXHF   =         0.00000000
  -V(xc)+E(xc)   XCENC  =      1032.78813014
  PAW double counting   =     23208.30130639   -23703.43338181
  entropy T*S    EENTRO =         0.00000000
  eigenvalues    EBANDS =     -3605.26357659
  atomic energy  EATOM  =     14592.26033195
  Solvation  Ediel_sol  =         0.00000000
  ---------------------------------------------------
  free energy    TOTEN  =      -467.17067016 eV

  energy without entropy =     -467.17067016  energy(sigma->0) =     -467.17067016


--------------------------------------------------------------------------------------------------------




--------------------------------------- Iteration      1(  11)  ---------------------------------------


    POTLOK:  cpu time    0.1528: real time    0.1554
    SETDIJ:  cpu time    0.0088: real time    0.0089
     EDDAV:  cpu time    9.9535: real time   10.0306
 BZINTS: Fermi energy: -2.914729;270.000000 electrons
         Band energy:***********;  BLOECHL correction:  0.000000
       DOS:  cpu time    0.0034: real time    0.0035
    CHARGE:  cpu time    0.1549: real time    0.1593
    MIXING:  cpu time    0.0035: real time    0.0037
    --------------------------------------------
      LOOP:  cpu time   10.2771: real time   10.3613

 eigenvalue-minimisations  :  4416
 total energy-change (2. order) : 0.8753517E-01  (-0.2234206E+00)
 number of electron     269.9999963 magnetization       0.0000000
 augmentation part       16.8134433 magnetization      -0.0001751

 Broyden mixing:
  rms(total) = 0.24851E+00    rms(broyden)= 0.24806E+00
  rms(prec ) = 0.33980E+00
  weight for this iteration     100.00

 eigenvalues of (default mixing * dielectric matrix)
  average eigenvalue GAMMA=   1.3193
  3.7850  1.2184  0.9838  0.9838  0.4724  0.4724

 Free energy of the ion-electron system (eV)
  ---------------------------------------------------
  alpha Z        PSCENC =       121.13487447
  Ewald energy   TEWEN  =     25833.33450354
  -Hartree energ DENC   =    -37946.03602999
  -exchange      EXHF   =         0.00000000
  -V(xc)+E(xc)   XCENC  =      1032.94594724
  PAW double counting   =     23818.36730117   -24313.09955877
  entropy T*S    EENTRO =         0.00000000
  eigenvalues    EBANDS =     -3605.99050459
  atomic energy  EATOM  =     14592.26033195
  Solvation  Ediel_sol  =         0.00000000
  ---------------------------------------------------
  free energy    TOTEN  =      -467.08313499 eV

  energy without entropy =     -467.08313499  energy(sigma->0) =     -467.08313499


--------------------------------------------------------------------------------------------------------




--------------------------------------- Iteration      1(  12)  ---------------------------------------


    POTLOK:  cpu time    0.1721: real time    0.1754
    SETDIJ:  cpu time    0.0087: real time    0.0088
     EDDAV:  cpu time   10.3388: real time   10.4683
 BZINTS: Fermi energy: -2.919730;270.000000 electrons
         Band energy:***********;  BLOECHL correction:  0.000000
       DOS:  cpu time    0.0034: real time    0.0034
    CHARGE:  cpu time    0.1552: real time    0.1568
    MIXING:  cpu time    0.0041: real time    0.0043
    --------------------------------------------
      LOOP:  cpu time   10.6824: real time   10.8169

 eigenvalue-minimisations  :  4624
 total energy-change (2. order) : 0.1091199E+00  (-0.1483615E+00)
 number of electron     269.9999963 magnetization      -0.0000000
 augmentation part       16.7640625 magnetization      -0.0001971

 Broyden mixing:
  rms(total) = 0.13924E+00    rms(broyden)= 0.13887E+00
  rms(prec ) = 0.17277E+00
  weight for this iteration     100.00

 eigenvalues of (default mixing * dielectric matrix)
  average eigenvalue GAMMA=   1.3076
  3.7322  1.7144  1.1954  0.7790  0.7790  0.4768  0.4768

 Free energy of the ion-electron system (eV)
  ---------------------------------------------------
  alpha Z        PSCENC =       121.13487447
  Ewald energy   TEWEN  =     25833.33450354
  -Hartree energ DENC   =    -37936.65063761
  -exchange      EXHF   =         0.00000000
  -V(xc)+E(xc)   XCENC  =      1032.67107952
  PAW double counting   =     23969.02945604   -24463.05055033
  entropy T*S    EENTRO =         0.00000000
  eigenvalues    EBANDS =     -3615.70307263
  atomic energy  EATOM  =     14592.26033195
  Solvation  Ediel_sol  =         0.00000000
  ---------------------------------------------------
  free energy    TOTEN  =      -466.97401505 eV

  energy without entropy =     -466.97401505  energy(sigma->0) =     -466.97401505


--------------------------------------------------------------------------------------------------------




--------------------------------------- Iteration      1(  13)  ---------------------------------------


    POTLOK:  cpu time    0.1665: real time    0.1718
    SETDIJ:  cpu time    0.0107: real time    0.0107
     EDDAV:  cpu time    9.1455: real time    9.2348
 BZINTS: Fermi energy: -2.945986;270.000000 electrons
         Band energy:***********;  BLOECHL correction:  0.000000
       DOS:  cpu time    0.0040: real time    0.0040
    CHARGE:  cpu time    0.1899: real time    0.1923
    MIXING:  cpu time    0.0044: real time    0.0044
    --------------------------------------------
      LOOP:  cpu time    9.5210: real time    9.6181

 eigenvalue-minimisations  :  3848
 total energy-change (2. order) : 0.3365548E-01  (-0.1391952E-01)
 number of electron     269.9999963 magnetization      -0.0000000
 augmentation part       16.7789215 magnetization      -0.0001319

 Broyden mixing:
  rms(total) = 0.80247E-01    rms(broyden)= 0.80217E-01
  rms(prec ) = 0.95941E-01
  weight for this iteration     100.00

 eigenvalues of (default mixing * dielectric matrix)
  average eigenvalue GAMMA=   1.3226
  3.7086  2.3671  1.1733  0.8177  0.8177  0.7378  0.4792  0.4792

 Free energy of the ion-electron system (eV)
  ---------------------------------------------------
  alpha Z        PSCENC =       121.13487447
  Ewald energy   TEWEN  =     25833.33450354
  -Hartree energ DENC   =    -37921.60605285
  -exchange      EXHF   =         0.00000000
  -V(xc)+E(xc)   XCENC  =      1032.11336572
  PAW double counting   =     24043.85709785   -24537.73699163
  entropy T*S    EENTRO =         0.00000000
  eigenvalues    EBANDS =     -3630.29748861
  atomic energy  EATOM  =     14592.26033195
  Solvation  Ediel_sol  =         0.00000000
  ---------------------------------------------------
  free energy    TOTEN  =      -466.94035958 eV

  energy without entropy =     -466.94035958  energy(sigma->0) =     -466.94035958


--------------------------------------------------------------------------------------------------------




--------------------------------------- Iteration      1(  14)  ---------------------------------------


    POTLOK:  cpu time    0.1583: real time    0.1604
    SETDIJ:  cpu time    0.0096: real time    0.0096
     EDDAV:  cpu time    9.2759: real time    9.3661
 BZINTS: Fermi energy: -2.989747;270.000000 electrons
         Band energy:***********;  BLOECHL correction:  0.000000
       DOS:  cpu time    0.0034: real time    0.0034
    CHARGE:  cpu time    0.1577: real time    0.1593
    MIXING:  cpu time    0.0039: real time    0.0040
    --------------------------------------------
      LOOP:  cpu time    9.6089: real time    9.7028

 eigenvalue-minimisations  :  4056
 total energy-change (2. order) : 0.6109552E-02  (-0.1076364E-01)
 number of electron     269.9999963 magnetization      -0.0000000
 augmentation part       16.7887265 magnetization      -0.0000117

 Broyden mixing:
  rms(total) = 0.46928E-01    rms(broyden)= 0.46785E-01
  rms(prec ) = 0.60554E-01
  weight for this iteration     100.00

 eigenvalues of (default mixing * dielectric matrix)
  average eigenvalue GAMMA=   1.3201
  3.7526  2.5505  1.1093  0.8633  0.8633  0.8951  0.8951  0.4757  0.4757

 Free energy of the ion-electron system (eV)
  ---------------------------------------------------
  alpha Z        PSCENC =       121.13487447
  Ewald energy   TEWEN  =     25833.33450354
  -Hartree energ DENC   =    -37912.69547478
  -exchange      EXHF   =         0.00000000
  -V(xc)+E(xc)   XCENC  =      1031.77475234
  PAW double counting   =     24122.53913535   -24616.34207321
  entropy T*S    EENTRO =         0.00000000
  eigenvalues    EBANDS =     -3638.94029969
  atomic energy  EATOM  =     14592.26033195
  Solvation  Ediel_sol  =         0.00000000
  ---------------------------------------------------
  free energy    TOTEN  =      -466.93425002 eV

  energy without entropy =     -466.93425002  energy(sigma->0) =     -466.93425002


--------------------------------------------------------------------------------------------------------




--------------------------------------- Iteration      1(  15)  ---------------------------------------


    POTLOK:  cpu time    0.1462: real time    0.1500
    SETDIJ:  cpu time    0.0087: real time    0.0087
     EDDAV:  cpu time    9.4903: real time    9.6185
 BZINTS: Fermi energy: -2.984746;270.000000 electrons
         Band energy:***********;  BLOECHL correction:  0.000000
       DOS:  cpu time    0.0037: real time    0.0037
    CHARGE:  cpu time    0.1875: real time    0.1898
    MIXING:  cpu time    0.0043: real time    0.0043
    --------------------------------------------
      LOOP:  cpu time    9.8407: real time    9.9751

 eigenvalue-minimisations  :  4056
 total energy-change (2. order) :-0.1287124E-02  (-0.9678815E-02)
 number of electron     269.9999963 magnetization      -0.0000000
 augmentation part       16.7880965 magnetization      -0.0000629

 Broyden mixing:
  rms(total) = 0.47952E-01    rms(broyden)= 0.47852E-01
  rms(prec ) = 0.66029E-01
  weight for this iteration     100.00

 eigenvalues of (default mixing * dielectric matrix)
  average eigenvalue GAMMA=   1.3115
  3.7166  2.7378  1.2275  1.1559  1.1559  0.7632  0.7632  0.6489  0.4729  0.4729

 Free energy of the ion-electron system (eV)
  ---------------------------------------------------
  alpha Z        PSCENC =       121.13487447
  Ewald energy   TEWEN  =     25833.33450354
  -Hartree energ DENC   =    -37912.17332318
  -exchange      EXHF   =         0.00000000
  -V(xc)+E(xc)   XCENC  =      1031.74167445
  PAW double counting   =     24165.03178613   -24658.84204046
  entropy T*S    EENTRO =         0.00000000
  eigenvalues    EBANDS =     -3639.42334404
  atomic energy  EATOM  =     14592.26033195
  Solvation  Ediel_sol  =         0.00000000
  ---------------------------------------------------
  free energy    TOTEN  =      -466.93553715 eV

  energy without entropy =     -466.93553715  energy(sigma->0) =     -466.93553715


--------------------------------------------------------------------------------------------------------




--------------------------------------- Iteration      1(  16)  ---------------------------------------


    POTLOK:  cpu time    0.1460: real time    0.1481
    SETDIJ:  cpu time    0.0087: real time    0.0087
     EDDAV:  cpu time    9.3462: real time    9.4341
 BZINTS: Fermi energy: -2.989747;270.000000 electrons
         Band energy:***********;  BLOECHL correction:  0.000000
       DOS:  cpu time    0.0035: real time    0.0036
    CHARGE:  cpu time    0.1556: real time    0.1575
    MIXING:  cpu time    0.0045: real time    0.0054
    --------------------------------------------
      LOOP:  cpu time    9.6644: real time    9.7575

 eigenvalue-minimisations  :  4080
 total energy-change (2. order) : 0.2999356E-02  (-0.5582797E-02)
 number of electron     269.9999963 magnetization      -0.0000000
 augmentation part       16.7886085 magnetization      -0.0000352

 Broyden mixing:
  rms(total) = 0.23533E-01    rms(broyden)= 0.23401E-01
  rms(prec ) = 0.31112E-01
  weight for this iteration     100.00

 eigenvalues of (default mixing * dielectric matrix)
  average eigenvalue GAMMA=   1.2994
  3.6726  2.9479  1.4693  1.1557  1.1557  0.7771  0.7771  0.7891  0.6126  0.4680
  0.4680

 Free energy of the ion-electron system (eV)
  ---------------------------------------------------
  alpha Z        PSCENC =       121.13487447
  Ewald energy   TEWEN  =     25833.33450354
  -Hartree energ DENC   =    -37911.39196706
  -exchange      EXHF   =         0.00000000
  -V(xc)+E(xc)   XCENC  =      1031.70869255
  PAW double counting   =     24172.76101733   -24666.60295364
  entropy T*S    EENTRO =         0.00000000
  eigenvalues    EBANDS =     -3640.13703692
  atomic energy  EATOM  =     14592.26033195
  Solvation  Ediel_sol  =         0.00000000
  ---------------------------------------------------
  free energy    TOTEN  =      -466.93253779 eV

  energy without entropy =     -466.93253779  energy(sigma->0) =     -466.93253779


--------------------------------------------------------------------------------------------------------




--------------------------------------- Iteration      1(  17)  ---------------------------------------


    POTLOK:  cpu time    0.1558: real time    0.1580
    SETDIJ:  cpu time    0.0087: real time    0.0088
     EDDAV:  cpu time    8.9166: real time    9.0307
 BZINTS: Fermi energy: -2.985996;270.000000 electrons
         Band energy:***********;  BLOECHL correction:  0.000000
       DOS:  cpu time    0.0042: real time    0.0044
    CHARGE:  cpu time    0.1553: real time    0.1570
    MIXING:  cpu time    0.0048: real time    0.0048
    --------------------------------------------
      LOOP:  cpu time    9.2453: real time    9.3636

 eigenvalue-minimisations  :  3880
 total energy-change (2. order) : 0.1285670E-03  (-0.9325640E-03)
 number of electron     269.9999963 magnetization      -0.0000000
 augmentation part       16.7890716 magnetization      -0.0000652

 Broyden mixing:
  rms(total) = 0.11456E-01    rms(broyden)= 0.11439E-01
  rms(prec ) = 0.12249E-01
  weight for this iteration     100.00

 eigenvalues of (default mixing * dielectric matrix)
  average eigenvalue GAMMA=   1.3332
  3.6516  2.8684  1.6230  1.6230  1.1199  1.0146  1.0146  0.7795  0.7795  0.4681
  0.4681  0.5877

 Free energy of the ion-electron system (eV)
  ---------------------------------------------------
  alpha Z        PSCENC =       121.13487447
  Ewald energy   TEWEN  =     25833.33450354
  -Hartree energ DENC   =    -37911.23941105
  -exchange      EXHF   =         0.00000000
  -V(xc)+E(xc)   XCENC  =      1031.70125660
  PAW double counting   =     24176.22333689   -24670.07936943
  entropy T*S    EENTRO =         0.00000000
  eigenvalues    EBANDS =     -3640.26793219
  atomic energy  EATOM  =     14592.26033195
  Solvation  Ediel_sol  =         0.00000000
  ---------------------------------------------------
  free energy    TOTEN  =      -466.93240923 eV

  energy without entropy =     -466.93240923  energy(sigma->0) =     -466.93240923


--------------------------------------------------------------------------------------------------------




--------------------------------------- Iteration      1(  18)  ---------------------------------------


    POTLOK:  cpu time    0.1471: real time    0.1490
    SETDIJ:  cpu time    0.0088: real time    0.0089
     EDDAV:  cpu time    9.0852: real time    9.1875
 BZINTS: Fermi energy: -2.985996;270.000000 electrons
         Band energy:***********;  BLOECHL correction:  0.000000
       DOS:  cpu time    0.0039: real time    0.0039
    CHARGE:  cpu time    0.1552: real time    0.1565
    MIXING:  cpu time    0.0053: real time    0.0053
    --------------------------------------------
      LOOP:  cpu time    9.4054: real time    9.5112

 eigenvalue-minimisations  :  3904
 total energy-change (2. order) :-0.1723007E-03  (-0.2597150E-03)
 number of electron     269.9999963 magnetization      -0.0000000
 augmentation part       16.7891203 magnetization      -0.0000913

 Broyden mixing:
  rms(total) = 0.11403E-01    rms(broyden)= 0.11391E-01
  rms(prec ) = 0.14898E-01
  weight for this iteration     100.00

 eigenvalues of (default mixing * dielectric matrix)
  average eigenvalue GAMMA=   1.3847
  3.5984  2.9256  2.9256  1.4505  1.1771  1.1771  0.7906  0.7906  0.8283  0.8283
  0.4671  0.4671  0.5750

 Free energy of the ion-electron system (eV)
  ---------------------------------------------------
  alpha Z        PSCENC =       121.13487447
  Ewald energy   TEWEN  =     25833.33450354
  -Hartree energ DENC   =    -37911.57286977
  -exchange      EXHF   =         0.00000000
  -V(xc)+E(xc)   XCENC  =      1031.71762812
  PAW double counting   =     24175.13538835   -24668.99847515
  entropy T*S    EENTRO =         0.00000000
  eigenvalues    EBANDS =     -3639.94396302
  atomic energy  EATOM  =     14592.26033195
  Solvation  Ediel_sol  =         0.00000000
  ---------------------------------------------------
  free energy    TOTEN  =      -466.93258153 eV

  energy without entropy =     -466.93258153  energy(sigma->0) =     -466.93258153


--------------------------------------------------------------------------------------------------------




--------------------------------------- Iteration      1(  19)  ---------------------------------------


    POTLOK:  cpu time    0.1653: real time    0.1681
    SETDIJ:  cpu time    0.0090: real time    0.0090
     EDDAV:  cpu time    7.0211: real time    7.0990
 BZINTS: Fermi energy: -2.981620;270.000000 electrons
         Band energy:***********;  BLOECHL correction:  0.000000
       DOS:  cpu time    0.0046: real time    0.0048
    CHARGE:  cpu time    0.1868: real time    0.1880
    MIXING:  cpu time    0.0053: real time    0.0054
    --------------------------------------------
      LOOP:  cpu time    7.3922: real time    7.4744

 eigenvalue-minimisations  :  2656
 total energy-change (2. order) : 0.9207529E-04  (-0.2066397E-03)
 number of electron     269.9999963 magnetization      -0.0000000
 augmentation part       16.7886794 magnetization      -0.0002476

 Broyden mixing:
  rms(total) = 0.50612E-02    rms(broyden)= 0.50323E-02
  rms(prec ) = 0.52837E-02
  weight for this iteration     100.00

 eigenvalues of (default mixing * dielectric matrix)
  average eigenvalue GAMMA=   1.3050
  3.5911  2.9559  2.9559  1.4504  1.1857  1.1857  0.7916  0.7916  0.8328  0.8328
  0.4671  0.4671  0.5754  0.1874

 Free energy of the ion-electron system (eV)
  ---------------------------------------------------
  alpha Z        PSCENC =       121.13487447
  Ewald energy   TEWEN  =     25833.33450354
  -Hartree energ DENC   =    -37912.13254601
  -exchange      EXHF   =         0.00000000
  -V(xc)+E(xc)   XCENC  =      1031.74009818
  PAW double counting   =     24174.77773888   -24668.64413880
  entropy T*S    EENTRO =         0.00000000
  eigenvalues    EBANDS =     -3639.40335165
  atomic energy  EATOM  =     14592.26033195
  Solvation  Ediel_sol  =         0.00000000
  ---------------------------------------------------
  free energy    TOTEN  =      -466.93248945 eV

  energy without entropy =     -466.93248945  energy(sigma->0) =     -466.93248945


--------------------------------------------------------------------------------------------------------




--------------------------------------- Iteration      1(  20)  ---------------------------------------


    POTLOK:  cpu time    0.1577: real time    0.1599
    SETDIJ:  cpu time    0.0081: real time    0.0088
     EDDAV:  cpu time    6.5925: real time    6.6763
 BZINTS: Fermi energy: -2.981620;270.000000 electrons
         Band energy:***********;  BLOECHL correction:  0.000000
       DOS:  cpu time    0.0039: real time    0.0040
    CHARGE:  cpu time    0.1556: real time    0.1572
    MIXING:  cpu time    0.0053: real time    0.0054
    --------------------------------------------
      LOOP:  cpu time    6.9231: real time    7.0116

 eigenvalue-minimisations  :  2376
 total energy-change (2. order) :-0.1077686E-03  (-0.4451593E-04)
 number of electron     269.9999963 magnetization      -0.0000000
 augmentation part       16.7887941 magnetization      -0.0003419

 Broyden mixing:
  rms(total) = 0.67217E-02    rms(broyden)= 0.67139E-02
  rms(prec ) = 0.67748E-02
  weight for this iteration     100.00

 eigenvalues of (default mixing * dielectric matrix)
  average eigenvalue GAMMA=   1.4115
  3.8436  3.4171  3.0869  1.2568  1.2499  1.2499  1.3641  0.7962  0.7962  0.9639
  0.8188  0.8188  0.4671  0.4671  0.5766

 Free energy of the ion-electron system (eV)
  ---------------------------------------------------
  alpha Z        PSCENC =       121.13487447
  Ewald energy   TEWEN  =     25833.33450354
  -Hartree energ DENC   =    -37912.06516723
  -exchange      EXHF   =         0.00000000
  -V(xc)+E(xc)   XCENC  =      1031.73750504
  PAW double counting   =     24176.50953519   -24670.37545490
  entropy T*S    EENTRO =         0.00000000
  eigenvalues    EBANDS =     -3639.46872527
  atomic energy  EATOM  =     14592.26033195
  Solvation  Ediel_sol  =         0.00000000
  ---------------------------------------------------
  free energy    TOTEN  =      -466.93259722 eV

  energy without entropy =     -466.93259722  energy(sigma->0) =     -466.93259722


--------------------------------------------------------------------------------------------------------




--------------------------------------- Iteration      1(  21)  ---------------------------------------


    POTLOK:  cpu time    0.1475: real time    0.1491
    SETDIJ:  cpu time    0.0086: real time    0.0087
     EDDAV:  cpu time    6.5919: real time    6.6962
 BZINTS: Fermi energy: -2.981620;270.000000 electrons
         Band energy:***********;  BLOECHL correction:  0.000000
       DOS:  cpu time    0.0039: real time    0.0039
    CHARGE:  cpu time    0.1568: real time    0.1590
    MIXING:  cpu time    0.0056: real time    0.0056
    --------------------------------------------
      LOOP:  cpu time    6.9142: real time    7.0226

 eigenvalue-minimisations  :  2264
 total energy-change (2. order) : 0.2148322E-03  (-0.1222404E-03)
 number of electron     269.9999963 magnetization      -0.0000000
 augmentation part       16.7889252 magnetization      -0.0001265

 Broyden mixing:
  rms(total) = 0.44918E-02    rms(broyden)= 0.44731E-02
  rms(prec ) = 0.50104E-02
  weight for this iteration     100.00

 eigenvalues of (default mixing * dielectric matrix)
  average eigenvalue GAMMA=   1.3905
  3.8056  3.8056  2.8757  1.5270  1.2698  1.2698  1.3039  1.0265  0.7956  0.7956
  0.8507  0.8507  0.4671  0.4671  0.5774  0.5603

 Free energy of the ion-electron system (eV)
  ---------------------------------------------------
  alpha Z        PSCENC =       121.13487447
  Ewald energy   TEWEN  =     25833.33450354
  -Hartree energ DENC   =    -37912.16300359
  -exchange      EXHF   =         0.00000000
  -V(xc)+E(xc)   XCENC  =      1031.74096353
  PAW double counting   =     24178.25921257   -24672.13087343
  entropy T*S    EENTRO =         0.00000000
  eigenvalues    EBANDS =     -3639.36839142
  atomic energy  EATOM  =     14592.26033195
  Solvation  Ediel_sol  =         0.00000000
  ---------------------------------------------------
  free energy    TOTEN  =      -466.93238239 eV

  energy without entropy =     -466.93238239  energy(sigma->0) =     -466.93238239


--------------------------------------------------------------------------------------------------------




--------------------------------------- Iteration      1(  22)  ---------------------------------------


    POTLOK:  cpu time    0.1550: real time    0.1570
    SETDIJ:  cpu time    0.0085: real time    0.0086
     EDDAV:  cpu time    6.4006: real time    6.5194
 BZINTS: Fermi energy: -2.985996;270.000000 electrons
         Band energy:***********;  BLOECHL correction:  0.000000
       DOS:  cpu time    0.0036: real time    0.0036
    --------------------------------------------
      LOOP:  cpu time    6.5678: real time    6.6886

 eigenvalue-minimisations  :  2328
 total energy-change (2. order) :-0.1230315E-04  (-0.5353399E-04)
 number of electron     269.9999963 magnetization      -0.0000000
 augmentation part       16.7889252 magnetization      -0.0001265

 Free energy of the ion-electron system (eV)
  ---------------------------------------------------
  alpha Z        PSCENC =       121.13487447
  Ewald energy   TEWEN  =     25833.33450354
  -Hartree energ DENC   =    -37912.10975133
  -exchange      EXHF   =         0.00000000
  -V(xc)+E(xc)   XCENC  =      1031.73889250
  PAW double counting   =     24178.01300100   -24671.88185074
  entropy T*S    EENTRO =         0.00000000
  eigenvalues    EBANDS =     -3639.42239607
  atomic energy  EATOM  =     14592.26033195
  Solvation  Ediel_sol  =         0.00000000
  ---------------------------------------------------
  free energy    TOTEN  =      -466.93239469 eV

  energy without entropy =     -466.93239469  energy(sigma->0) =     -466.93239469


--------------------------------------------------------------------------------------------------------




 average (electrostatic) potential at core
  the test charge radii are     0.6991  0.7089  0.9911
  (the norm of the test charge is              1.0000)
       1 -61.2692       2 -61.5664       3 -61.5576       4 -61.1998       5 -61.2313
       6 -61.2225       7 -61.4304       8 -61.3004       9 -61.2074      10 -61.7787
      11 -61.3288      12 -61.7500      13 -61.2426      14 -61.1825      15 -61.0110
      16 -61.2137      17 -61.1993      18 -61.1869      19 -61.5162      20 -61.2478
      21 -61.2977      22 -61.2749      23 -61.2840      24 -61.2284      25 -75.0345
      26 -72.8707      27 -72.8378      28 -73.0784      29 -73.2036      30 -72.8709
      31 -72.8879      32 -75.0447      33 -74.7523      34 -73.2702      35 -74.1018
      36 -72.9428      37 -72.9553      38 -73.3246      39 -74.0556      40 -75.1177
      41 -74.8343      42 -72.9371      43 -72.8712      44 -73.1973      45 -73.1197
      46 -72.8675      47 -72.8785      48 -74.9189      49 -74.9013      50 -73.1009
      51 -72.9661      52 -72.8867      53 -72.8496      54 -73.0807      55 -72.9952
      56 -75.1428      57 -83.3108
 
 
 
 E-fermi :  -2.9860     XC(G=0):  -2.7087     alpha+bet : -1.8898


 spin component 1

 k-point     1 :       0.0000    0.0000    0.0000
  band No.  band energies     occupation 
      1     -28.6219      1.00000
      2     -28.6175      1.00000
      3     -28.5938      1.00000
      4     -28.5591      1.00000
      5     -28.5470      1.00000
      6     -25.2128      1.00000
      7     -25.0978      1.00000
      8     -24.9119      1.00000
      9     -24.8215      1.00000
     10     -24.1701      1.00000
     11     -24.0861      1.00000
     12     -24.0560      1.00000
     13     -23.3220      1.00000
     14     -23.1896      1.00000
     15     -23.1037      1.00000
     16     -23.0368      1.00000
     17     -22.9931      1.00000
     18     -22.8987      1.00000
     19     -22.3471      1.00000
     20     -22.1991      1.00000
     21     -22.1690      1.00000
     22     -21.5371      1.00000
     23     -21.4988      1.00000
     24     -21.4089      1.00000
     25     -21.3375      1.00000
     26     -21.2604      1.00000
     27     -21.2558      1.00000
     28     -21.1651      1.00000
     29     -21.1432      1.00000
     30     -20.7535      1.00000
     31     -20.6582      1.00000
     32     -20.5998      1.00000
     33     -20.4645      1.00000
     34     -20.2336      1.00000
     35     -20.1558      1.00000
     36     -19.9858      1.00000
     37     -19.8553      1.00000
     38     -17.1329      1.00000
     39     -17.0540      1.00000
     40     -16.9295      1.00000
     41     -16.6792      1.00000
[...]
   -.146E+02 0.269E+02 0.106E+03   0.106E+02 -.264E+02 -.106E+03   0.261E+01 -.305E+00 0.434E+00   -.792E-02 -.323E-02 0.275E-02
   0.583E+02 -.471E+02 -.732E+02   -.602E+02 0.482E+02 0.731E+02   0.215E+01 -.114E+01 -.196E+00   0.139E-02 -.988E-03 -.344E-03
   -.113E+02 0.448E+02 0.168E+03   0.120E+02 -.470E+02 -.169E+03   -.486E+00 0.214E+01 0.129E+01   -.324E-02 -.599E-02 -.433E-02
   -.542E+02 -.154E+02 0.808E+02   0.562E+02 0.164E+02 -.813E+02   -.224E+01 -.103E+01 0.785E+00   0.289E-02 0.292E-03 -.107E-02
   0.335E+02 -.259E+02 -.296E+02   -.340E+02 0.222E+02 0.282E+02   0.391E+00 0.269E+01 0.768E+00   0.339E-02 -.530E-02 -.675E-04
   0.240E+02 -.113E+02 -.414E+02   -.200E+02 0.139E+02 0.409E+02   -.294E+01 -.173E+01 0.337E+00   0.666E-02 -.156E-02 0.245E-02
   -.931E+01 0.109E+01 -.504E+02   0.508E+01 0.135E+01 0.500E+02   0.313E+01 -.157E+01 0.179E+00   -.343E-02 0.102E-02 -.403E-03
   -.197E+02 0.154E+02 -.606E+02   0.193E+02 -.137E+02 0.614E+02   0.940E+00 -.161E+01 -.106E+01   -.158E-01 0.832E-02 0.900E-02
   -.293E+01 0.189E+02 0.404E+02   0.287E+01 -.210E+02 -.395E+02   0.389E-01 0.260E+01 -.585E+00   -.261E-02 -.815E-02 0.603E-02
   0.265E+02 0.143E+02 -.551E+02   -.258E+02 -.122E+02 0.553E+02   -.111E+01 -.190E+01 -.823E+00   0.959E-02 0.659E-02 0.708E-02
   -.337E+01 -.166E+02 -.112E+02   0.342E+01 0.121E+02 0.124E+02   -.861E-01 0.342E+01 -.714E+00   0.593E-02 -.962E-02 0.202E-02
   0.347E+02 0.257E+02 0.162E+03   -.308E+02 -.236E+02 -.161E+03   -.283E+01 -.157E+01 -.299E+00   0.144E-01 0.162E-02 0.393E-02
   -.135E+02 0.207E+02 0.734E+02   0.950E+01 -.184E+02 -.726E+02   0.291E+01 -.141E+01 -.551E+00   0.529E-02 -.504E-02 -.728E-03
   0.563E+02 -.143E+02 0.556E+02   -.582E+02 0.154E+02 -.558E+02   0.227E+01 -.106E+01 0.387E+00   -.591E-02 0.275E-02 0.710E-03
   0.161E+01 0.638E+02 0.180E+03   -.202E+01 -.658E+02 -.181E+03   0.862E-01 0.216E+01 0.133E+01   -.266E-02 -.437E-02 0.244E-02
   -.557E+02 -.499E+02 -.830E+02   0.576E+02 0.509E+02 0.831E+02   -.217E+01 -.118E+01 -.367E+00   0.151E-02 0.151E-02 -.839E-03
   -.277E+02 -.254E+02 -.120E+03   0.282E+02 0.217E+02 0.118E+03   -.947E-01 0.262E+01 0.805E+00   -.239E-02 0.567E-02 0.269E-02
   0.123E+02 -.231E+00 -.925E+02   -.796E+01 0.258E+01 0.915E+02   -.312E+01 -.150E+01 0.420E+00   0.371E-02 0.665E-02 -.317E-03
   -.264E+02 -.758E+01 -.756E+02   0.224E+02 0.103E+02 0.744E+02   0.291E+01 -.181E+01 0.770E+00   -.710E-02 0.383E-02 0.124E-02
   0.610E+02 -.603E+02 0.116E+03   -.632E+02 0.613E+02 -.116E+03   0.217E+01 -.153E+01 -.714E-02   -.146E-02 -.275E-02 0.150E-02
   -.904E+01 0.371E+02 -.159E+03   0.903E+01 -.396E+02 0.159E+03   -.169E-01 0.274E+01 -.119E+01   0.183E-02 -.391E-02 0.165E-02
   -.712E+02 -.222E+02 -.509E+02   0.735E+02 0.226E+02 0.516E+02   -.239E+01 -.559E+00 -.876E+00   0.183E-02 0.552E-02 0.490E-02
   -.121E+02 0.307E+02 0.142E+03   0.124E+02 -.318E+02 -.144E+03   -.318E+00 0.714E+00 0.235E+01   -.219E-01 -.134E-02 0.555E-02
   -.167E+03 -.280E+02 0.190E+03   0.195E+03 0.433E+02 -.201E+03   -.302E+02 -.166E+02 0.119E+02   -.743E-02 -.138E-01 0.317E-02
   0.134E+03 -.131E+03 -.201E+03   -.162E+03 0.146E+03 0.211E+03   0.300E+02 -.157E+02 -.112E+02   0.849E-02 -.785E-02 -.316E-02
   0.442E+01 0.147E+03 0.333E+03   -.208E+01 -.173E+03 -.354E+03   -.277E+01 0.283E+02 0.223E+02   0.110E-01 -.920E-02 -.940E-03
   -.312E+02 0.119E+03 0.353E+03   0.286E+02 -.144E+03 -.375E+03   0.268E+01 0.261E+02 0.247E+02   -.482E-02 -.638E-02 -.238E-02
   0.166E+03 -.847E+02 -.953E+02   -.193E+03 0.103E+03 0.952E+02   0.292E+02 -.200E+02 -.224E+00   0.143E-01 -.156E-01 -.309E-03
   -.126E+03 -.692E+02 0.214E+03   0.153E+03 0.775E+02 -.232E+03   -.293E+02 -.891E+01 0.194E+02   -.407E-02 -.647E-02 0.580E-02
   -.389E+01 -.140E+01 -.204E+02   0.403E+01 0.147E+01 0.214E+02   -.184E+00 -.380E-01 -.104E+01   0.570E-03 -.272E-03 -.243E-03
   0.131E+02 -.190E+02 -.816E+02   -.134E+02 0.195E+02 0.855E+02   0.191E+00 -.641E+00 -.427E+01   0.243E-02 -.528E-02 -.282E-03
   -.276E+01 -.526E+02 -.257E+03   0.224E+02 0.643E+02 0.278E+03   -.209E+02 -.127E+02 -.227E+02   0.118E-01 -.339E-02 -.274E-02
   0.845E+01 0.572E+02 -.641E+02   -.260E+02 -.532E+02 0.737E+02   0.193E+02 -.416E+01 -.105E+02   -.207E-01 0.197E-01 0.170E-01
   -.136E+02 0.982E+02 0.105E+03   0.163E+02 -.129E+03 -.114E+03   -.309E+01 0.332E+02 0.998E+01   -.986E-02 0.563E-03 0.102E-01
   -.560E+00 0.957E+02 0.117E+03   -.141E+01 -.126E+03 -.126E+03   0.222E+01 0.330E+02 0.101E+02   0.196E-02 -.589E-02 0.118E-01
   0.362E+02 -.514E+02 -.282E+03   -.598E+02 0.636E+02 0.297E+03   0.251E+02 -.134E+02 -.175E+02   -.174E-01 0.239E-02 -.798E-03
   -.292E+01 0.653E+02 -.908E+02   0.190E+02 -.619E+02 0.104E+03   -.176E+02 -.353E+01 -.142E+02   -.414E-02 0.827E-02 0.582E-02
   0.416E+02 0.153E+02 0.639E+02   -.453E+02 -.180E+02 -.633E+02   0.441E+01 0.301E+01 -.430E+00   -.249E-02 -.708E-02 -.179E-02
   0.122E+02 0.330E+02 0.126E+03   -.140E+02 -.345E+02 -.130E+03   0.193E+01 0.173E+01 0.448E+01   0.198E-01 -.689E-02 0.267E-02
   -.163E+03 -.891E+02 -.104E+03   0.191E+03 0.107E+03 0.104E+03   -.297E+02 -.193E+02 -.746E+00   -.357E-02 -.652E-02 -.247E-02
   0.129E+03 -.590E+02 0.166E+03   -.157E+03 0.669E+02 -.182E+03   0.305E+02 -.851E+01 0.168E+02   0.259E-02 0.420E-02 0.550E-02
   0.911E+01 0.138E+03 0.365E+03   -.429E+01 -.163E+03 -.386E+03   -.494E+01 0.269E+02 0.231E+02   -.280E-02 0.646E-02 0.134E-01
   0.232E+01 0.202E+03 0.303E+03   -.381E+01 -.233E+03 -.313E+03   0.191E+01 0.338E+02 0.108E+02   0.878E-02 0.135E-01 0.112E-01
   0.168E+03 -.292E+02 0.115E+03   -.197E+03 0.456E+02 -.120E+03   0.309E+02 -.178E+02 0.566E+01   -.745E-03 0.752E-04 0.389E-02
   -.122E+03 -.135E+03 -.247E+03   0.149E+03 0.149E+03 0.259E+03   -.285E+02 -.156E+02 -.144E+02   -.863E-02 0.129E-02 -.619E-02
   0.687E+00 -.275E+02 -.108E+02   -.579E+00 0.286E+02 0.867E+01   -.123E+00 -.129E+01 0.239E+01   0.143E-02 0.304E-02 0.506E-02
   -.126E+02 -.215E+02 -.159E+03   0.126E+02 0.233E+02 0.164E+03   0.130E+00 -.193E+01 -.572E+01   -.408E-02 0.349E-02 0.519E-03
   -.192E+03 -.557E+02 -.785E+02   0.220E+03 0.727E+02 0.790E+02   -.300E+02 -.184E+02 -.644E+00   -.500E-02 0.785E-02 0.495E-02
   0.152E+03 -.126E+03 0.258E+03   -.180E+03 0.141E+03 -.264E+03   0.309E+02 -.154E+02 0.711E+01   0.231E-01 -.698E-02 0.695E-02
   -.249E-01 0.127E+03 -.324E+03   0.430E+01 -.153E+03 0.345E+03   -.468E+01 0.278E+02 -.226E+02   0.254E-02 0.292E-02 -.599E-02
   -.299E+02 0.977E+02 -.365E+03   0.283E+02 -.122E+03 0.388E+03   0.166E+01 0.257E+02 -.259E+02   0.326E-02 0.615E-02 -.529E-02
   0.161E+03 -.109E+03 0.199E+03   -.183E+03 0.130E+03 -.211E+03   0.238E+02 -.226E+02 0.126E+02   0.111E-01 -.576E-02 0.642E-02
   -.144E+03 -.629E+02 -.157E+03   0.173E+03 0.709E+02 0.170E+03   -.317E+02 -.848E+01 -.142E+02   0.100E-01 -.548E-03 0.195E-02
   -.391E+02 0.179E+02 0.378E+02   0.417E+02 -.199E+02 -.396E+02   -.310E+01 0.223E+01 0.224E+01   -.373E-02 0.916E-02 0.870E-02
   0.394E+02 -.990E+02 -.843E+03   -.402E+02 0.112E+03 0.857E+03   0.949E+00 -.136E+02 -.156E+02   -.180E-01 0.150E-01 0.919E-02
 -----------------------------------------------------------------------------------------------
   0.222E+01 -.558E+01 -.336E+01   -.128E-12 0.171E-12 -.227E-12   -.220E+01 0.559E+01 0.321E+01   -.175E-01 -.139E-01 0.153E+00
 
 
 POSITION                                       TOTAL-FORCE (eV/Angst)
 -----------------------------------------------------------------------------------
     -0.01585      2.62561      6.78078        -0.008134     -1.277599      0.529496
      1.29384      4.88406      6.88721         1.362505      0.195576      0.181790
     -1.35138      4.83579      6.79387        -1.388414      0.154373     -0.003287
      6.09572      0.70096      8.04053         0.282689     -0.056881     -0.281410
      3.69734      4.88274      6.55915         0.159373      0.018875      0.454325
      1.25705      0.63115      7.13403        -0.283711      0.025316      0.228377
     -3.80901      8.80600      7.69403        -0.181926     -1.038675     -0.595499
     -2.35800     10.97654      7.96910         1.081113      0.854121     -0.156253
     -4.96382     11.07774      7.92019        -1.095244      0.869314     -0.268913
      2.55020      6.70630      7.98027         0.520458      0.186451     -0.265307
      0.04178     10.88370      7.77462        -0.024432      0.475042      0.380773
     -2.70213      6.70284      7.64267        -0.468445      0.248584     -0.617428
      7.40576      2.63903      7.51600        -0.032024     -1.155325      0.533878
      8.59012      4.67311      6.35814         1.105295      0.533787      0.288477
      6.06354      4.76498      6.92384        -1.075097      0.905899      0.315040
     13.40278      0.45838      7.32513         0.325545      0.068327      0.201277
     10.96816      4.60156      6.26269        -0.323691      0.147425      0.451262
      8.65758      0.68708      8.14130        -0.328120     -0.158394     -0.230510
      3.78057      8.69250      8.44686         0.341432     -1.138640     -0.639226
      5.00696     10.96371      8.31379         1.206796      0.850893     -0.612148
      2.39483     10.94080      8.28910        -1.137361      0.878782     -0.417809
      9.63941      6.78769      6.68610        -0.088521     -0.550006      0.197948
      7.38839     10.98556      8.50117        -0.026834      0.242661     -0.554907
      5.04754      6.75039      7.78878        -0.135467     -0.085261     -0.148452
     -0.01522      4.12487      6.75795        -0.076665     -0.314329      0.209592
      1.23635      1.96223      6.69314        -2.069441     -1.308452      1.045892
      4.92112     -0.04559      8.30231         2.077113     -1.160961     -1.314634
      4.92347      4.26605      6.23894        -0.410168      1.948909      1.946924
      2.41160      4.40243      6.19707         0.011055      1.603340      2.107207
      6.12333      2.08873      7.84111         2.051092     -1.784418     -0.357570
     -4.92134     12.21876      7.10184        -2.084400     -0.670405      1.775320
      0.01784      0.02267      7.67718        -0.039268      0.030843     -0.099076
     -3.68009     10.26644      7.95413        -0.129073     -0.109028     -0.384273
     -2.76791      7.97223      8.23283        -1.278175     -1.053190     -2.172706
      1.29326      6.02142      7.81565         1.705554     -0.212330     -0.857303
      1.28387     10.19744      7.78660        -0.341393      2.356837      0.996963
     -1.19728     10.21375      7.62204         0.251283      2.379074      1.019454
      2.56804      7.93270      8.66286         1.542135     -1.163467     -1.897082
     -1.46867      5.96706      7.71335        -1.512378     -0.103979     -1.256558
     10.86490      5.94848      6.93221         0.680382      0.353613      0.172761
      7.37058      3.95795      6.82615         0.140853      0.188780      0.409978
      8.66782      2.06948      7.87428        -2.145960     -1.634760     -0.252337
      4.90244     12.05889      7.43880         2.183622     -0.589310      1.656047
     -2.39301      4.31314      6.02296        -0.125061      1.721370      2.121895
      9.76406      3.92512      6.03450         0.422770      2.596746      1.246885
     13.38935      1.79537      6.91858         2.163005     -1.443616      0.569725
      9.77651     -0.07022      8.57775        -1.898922     -1.163810     -1.527644
      7.37968     -0.05393      7.92312        -0.012810     -0.180270      0.227694
      3.70028     10.18253      8.49377         0.133934     -0.201266     -0.533804
      5.02743      8.11377      8.14819        -2.290433     -1.358498     -0.094884
      8.49303      6.11289      6.29237         2.491079     -0.823962      1.277166
     -6.02594     10.57129      8.72397        -0.398298      1.903677     -1.919374
      6.15519     10.48423      9.00019         0.140440      1.516957     -2.269429
     -4.90685      8.39512      6.90942         1.885022     -1.562163      1.217256
      6.19086      5.95536      7.69275        -2.434936     -0.484094     -1.350701
      3.73832      6.11848      7.42786        -0.499793      0.303021      0.403181
     -0.14198      7.29192      8.86894         0.080052     -0.775506     -1.088060
 -----------------------------------------------------------------------------------
    total drift:                                0.000904     -0.001644      0.003493


--------------------------------------------------------------------------------------------------------



  FREE ENERGIE OF THE ION-ELECTRON SYSTEM (eV)
  ---------------------------------------------------
  free  energy   TOTEN  =      -470.72100920 eV

  energy  without entropy=     -470.72100920  energy(sigma->0) =     -470.72100920
 


--------------------------------------------------------------------------------------------------------


    POTLOK:  cpu time    0.1570: real time    0.1574


--------------------------------------------------------------------------------------------------------


 stress matrix after NEB project (eV)
   -174.49083      2.86707     -4.49925
      2.86707   -158.59898     -8.28728
     -4.49925     -8.28728    -42.08195
  FORCES: max atom, RMS     2.918140    1.884560
  FORCE total and by dimension   14.228118    2.596746
  Stress total and by dimension  239.928874  174.490835
     LOOP+:  cpu time  217.8077: real time  220.6454
    4ORBIT:  cpu time    0.0000: real time    0.0000
 


 total charge     
 
# of ion       s       p       d       tot
------------------------------------------
    1        0.815   1.560   0.000   2.374
    2        0.804   1.550   0.000   2.354
    3        0.806   1.554   0.000   2.360
    4        0.827   1.564   0.000   2.392
    5        0.820   1.563   0.000   2.383
    6        0.830   1.572   0.000   2.402
    7        0.815   1.554   0.000   2.369
    8        0.815   1.549   0.000   2.364
    9        0.819   1.552   0.000   2.371
   10        0.828   1.589   0.000   2.417
   11        0.827   1.567   0.000   2.395
   12        0.831   1.597   0.000   2.428
   13        0.815   1.549   0.000   2.364
   14        0.810   1.555   0.000   2.365
   15        0.808   1.557   0.000   2.365
   16        0.830   1.577   0.000   2.407
   17        0.821   1.571   0.000   2.392
   18        0.825   1.562   0.000   2.387
   19        0.814   1.552   0.000   2.367
   20        0.817   1.549   0.000   2.366
   21        0.813   1.544   0.000   2.356
   22        0.826   1.565   0.000   2.391
   23        0.827   1.553   0.000   2.381
   24        0.827   1.579   0.000   2.406
   25        1.184   2.560   0.000   3.744
   26        1.263   2.495   0.000   3.758
   27        1.260   2.493   0.000   3.753
   28        1.265   2.467   0.000   3.732
   29        1.261   2.486   0.000   3.747
   30        1.260   2.489   0.000   3.750
   31        1.268   2.490   0.000   3.758
   32        1.213   2.585   0.000   3.798
   33        1.191   2.574   0.000   3.764
   34        1.256   2.506   0.000   3.761
   35        1.232   2.511   0.000   3.743
   36        1.258   2.489   0.000   3.747
   37        1.257   2.489   0.000   3.747
   38        1.254   2.498   0.000   3.752
   39        1.232   2.517   0.000   3.749
   40        1.210   2.602   0.000   3.812
   41        1.190   2.559   0.000   3.749
   42        1.260   2.480   0.000   3.741
   43        1.265   2.496   0.000   3.761
   44        1.261   2.488   0.000   3.749
   45        1.263   2.473   0.000   3.736
   46        1.262   2.501   0.000   3.763
   47        1.260   2.486   0.000   3.746
   48        1.210   2.588   0.000   3.798
   49        1.191   2.545   0.000   3.736
   50        1.260   2.499   0.000   3.760
   51        1.260   2.489   0.000   3.749
   52        1.265   2.472   0.000   3.737
   53        1.264   2.475   0.000   3.739
   54        1.260   2.482   0.000   3.742
   55        1.267   2.484   0.000   3.751
   56        1.209   2.597   0.000   3.806
   57        1.354   0.625  10.015  11.994
--------------------------------------------------
tot         60.836 118.476  10.015 189.327
 


 magnetization (x)
 
# of ion       s       p       d       tot
------------------------------------------
    1       -0.000  -0.000   0.000  -0.000
    2        0.000   0.000   0.000   0.000
    3       -0.000  -0.000   0.000  -0.000
    4       -0.000  -0.000   0.000  -0.000
    5        0.000   0.000   0.000   0.000
    6       -0.000  -0.000   0.000  -0.000
    7       -0.000  -0.000   0.000  -0.000
    8       -0.000  -0.000   0.000  -0.000
    9       -0.000  -0.000   0.000  -0.000
   10       -0.000  -0.000   0.000  -0.000
   11        0.000   0.000   0.000   0.000
   12        0.000   0.000   0.000   0.000
   13       -0.000  -0.000   0.000  -0.000
   14       -0.000  -0.000   0.000  -0.000
   15        0.000   0.000   0.000   0.000
   16        0.000   0.000   0.000   0.000
   17       -0.000  -0.000   0.000  -0.000
   18       -0.000  -0.000   0.000  -0.000
   19        0.000   0.000   0.000   0.000
   20        0.000   0.000   0.000   0.000
   21        0.000   0.000   0.000   0.000
   22       -0.000  -0.000   0.000  -0.000
   23        0.000   0.000   0.000   0.000
   24        0.000   0.000   0.000   0.000
   25        0.000   0.000   0.000   0.000
   26       -0.000   0.000   0.000   0.000
   27       -0.000   0.000   0.000   0.000
   28        0.000  -0.000   0.000  -0.000
   29        0.000  -0.000   0.000  -0.000
   30       -0.000   0.000   0.000  -0.000
   31       -0.000   0.000   0.000   0.000
   32        0.000   0.000   0.000   0.000
   33        0.000   0.000   0.000   0.000
   34       -0.000   0.000   0.000   0.000
   35        0.000  -0.000   0.000  -0.000
   36       -0.000  -0.000   0.000  -0.000
   37       -0.000  -0.000   0.000  -0.000
   38        0.000   0.000   0.000   0.000
   39       -0.000   0.000   0.000   0.000
   40       -0.000  -0.000   0.000  -0.000
   41       -0.000   0.000   0.000   0.000
   42       -0.000   0.000   0.000   0.000
   43        0.000  -0.000   0.000  -0.000
   44       -0.000   0.000   0.000   0.000
   45       -0.000   0.000   0.000   0.000
   46        0.000   0.000   0.000   0.000
   47        0.000   0.000   0.000   0.000
   48       -0.000  -0.000   0.000  -0.000
   49        0.000  -0.000   0.000  -0.000
   50       -0.000  -0.000   0.000  -0.000
   51       -0.000   0.000   0.000   0.000
   52       -0.000  -0.000   0.000  -0.000
   53        0.000   0.000   0.000   0.000
   54       -0.000   0.000   0.000   0.000
   55        0.000  -0.000   0.000  -0.000
   56        0.000   0.000   0.000   0.000
   57       -0.000  -0.000  -0.000  -0.000
--------------------------------------------------
tot         -0.000  -0.000  -0.000  -0.000
 
 BZINTS: Fermi energy: -2.985996;270.000000 electrons
         Band energy:***********;  BLOECHL correction:  0.000000

 total amount of memory used by VASP MPI-rank0    98010. kBytes
=======================================================================

   base      :      30000. kBytes
   nonl-proj :      15446. kBytes
   fftplans  :       4937. kBytes
   grid      :      13335. kBytes
   one-center:        155. kBytes
   wavefun   :      34137. kBytes
 
  
  
 General timing and accounting informations for this job:
 ========================================================
  
                  Total CPU time used (sec):      231.799
                            User time (sec):      224.297
                          System time (sec):        7.503
                         Elapsed time (sec):      242.239
  
                   Maximum memory used (kb):      456104.
                   Average memory used (kb):           0.
  
                          Minor page faults:      1241727
                          Major page faults:            0
                 Voluntary context switches:         8647
