       N       E                     dE             d eps       ncg     rms          ort
DAV:   1     0.250733872692E+04    0.25073E+04   -0.11644E+05   768   0.110E+03
DAV:   2    -0.245865571887E+03   -0.27532E+04   -0.26287E+04   768   0.279E+02
DAV:   3    -0.703128277893E+03   -0.45726E+03   -0.45409E+03   768   0.120E+02
DAV:   4    -0.719603402912E+03   -0.16475E+02   -0.16346E+02   768   0.280E+01
DAV:   5    -0.720132105055E+03   -0.52870E+00   -0.52717E+00   768   0.421E+00
SDA:   6    -0.549565407782E+03    0.17057E+03   -0.52717E+00   768   0.501E+03 0.000E+00
CGA:   7    -0.603060290650E+03   -0.53495E+02   -0.25972E+02   768   0.333E+03 0.467E+03
CGA:   8    -0.638423367517E+03   -0.35363E+02   -0.15308E+02   768   0.165E+03 0.306E+03
CGA:   9    -0.651370875705E+03   -0.12948E+02   -0.91524E+01   768   0.361E+02 0.353E+02
CGA:  10    -0.658808760872E+03   -0.74379E+01   -0.74238E+01   768   0.210E+02-0.620E+00
CGA:  11    -0.660433352378E+03   -0.16246E+01   -0.14154E+01   768   0.544E+01 0.264E+01
CGA:  12    -0.661157633039E+03   -0.72428E+00   -0.71386E+00   768   0.788E+01-0.280E-01
CGA:  13    -0.661723088738E+03   -0.56546E+00   -0.41331E+00   768   0.357E+01 0.287E+01
CGA:  14    -0.661920878921E+03   -0.19779E+00   -0.18976E+00   768   0.115E+01-0.243E-01
CGA:  15    -0.662029746185E+03   -0.10887E+00   -0.11031E+00   768   0.206E+01 0.201E-02
CGA:  16    -0.662145881860E+03   -0.11614E+00   -0.78674E-01   768   0.148E+01 0.961E+00
CGA:  17    -0.662232351032E+03   -0.86469E-01   -0.63789E-01   768   0.521E+00 0.731E+00
CGA:  18    -0.662273781787E+03   -0.41431E-01   -0.45307E-01   768   0.578E+00-0.440E-01
CGA:  19    -0.662310521868E+03   -0.36740E-01   -0.28361E-01   768   0.829E+00 0.153E+00
CGA:  20    -0.662336232996E+03   -0.25711E-01   -0.14752E-01   768   0.656E+00 0.766E+00
CGA:  21    -0.662384729133E+03   -0.48496E-01   -0.49484E-01   768   0.156E+00-0.219E-02
CGA:  22    -0.662429797914E+03   -0.45069E-01   -0.37887E-01   768   0.437E-01 0.488E-01
CGA:  23    -0.662453902181E+03   -0.24104E-01   -0.21297E-01   768   0.883E-01 0.118E-01
CGA:  24    -0.662470482099E+03   -0.16580E-01   -0.16584E-01   768   0.369E-01-0.392E-03
CGA:  25    -0.662480099735E+03   -0.96176E-02   -0.96837E-02   768   0.238E-01-0.820E-03
CGA:  26    -0.662484300336E+03   -0.42006E-02   -0.42188E-02   768   0.194E-01-0.281E-03
CGA:  27    -0.662488540823E+03   -0.42405E-02   -0.40727E-02   768   0.598E-02 0.196E-02
CGA:  28    -0.662491487720E+03   -0.29469E-02   -0.28547E-02   768   0.787E-02 0.301E-03
CGA:  29    -0.662493105834E+03   -0.16181E-02   -0.16063E-02   768   0.630E-02 0.249E-03
CGA:  30    -0.662494548961E+03   -0.14431E-02   -0.14619E-02   768   0.326E-02-0.240E-03
CGA:  31    -0.662495439061E+03   -0.89010E-03   -0.87079E-03   768   0.190E-02 0.147E-03
CGA:  32    -0.662495768706E+03   -0.32965E-03   -0.32948E-03   768   0.106E-02 0.567E-05
CGA:  33    -0.662496026567E+03   -0.25786E-03   -0.25580E-03   768   0.636E-03 0.257E-04
CGA:  34    -0.662496205517E+03   -0.17895E-03   -0.17855E-03   768   0.441E-03 0.570E-05
CGA:  35    -0.662496291578E+03   -0.86061E-04   -0.86035E-04   768   0.356E-03 0.150E-05
   1 F= -.66903208E+03 E0= -.66901205E+03  d E =-.669032E+03  mag=     1.5967
       N       E                     dE             d eps       ncg     rms          ort
SDA:   1    -0.661441004710E+03    0.10552E+01    0.00000E+00   768   0.347E+01 0.000E+00
CGA:   2    -0.661934245746E+03   -0.49324E+00   -0.49464E+00   768   0.155E+01 0.558E-02
CGA:   3    -0.662231331350E+03   -0.29709E+00   -0.29719E+00   768   0.996E+00-0.170E-01
CGA:   4    -0.662406806992E+03   -0.17548E+00   -0.17561E+00   768   0.339E+00 0.712E-02
CGA:   5    -0.662467643555E+03   -0.60837E-01   -0.60823E-01   768   0.114E+00-0.631E-03
CGA:   6    -0.662489402010E+03   -0.21758E-01   -0.21754E-01   768   0.498E-01 0.504E-03
CGA:   7    -0.662499089990E+03   -0.96880E-02   -0.96905E-02   768   0.262E-01-0.193E-03
CGA:   8    -0.662503404840E+03   -0.43148E-02   -0.43167E-02   768   0.104E-01 0.485E-04
CGA:   9    -0.662505355622E+03   -0.19508E-02   -0.19508E-02   768   0.325E-02-0.588E-05
CGA:  10    -0.662505992495E+03   -0.63687E-03   -0.63676E-03   768   0.119E-02 0.107E-04
CGA:  11    -0.662506199105E+03   -0.20661E-03   -0.20662E-03   768   0.552E-03 0.737E-06
CGA:  12    -0.662506297081E+03   -0.97976E-04   -0.97984E-04   768   0.191E-03 0.123E-05
   2 F= -.66904193E+03 E0= -.66902311E+03  d E =-.985056E-02  mag=     1.5206
       N       E                     dE             d eps       ncg     rms          ort
SDA:   1    -0.662350982290E+03    0.15522E+00    0.00000E+00   768   0.517E+00 0.000E+00
CGA:   2    -0.662427123090E+03   -0.76141E-01   -0.76094E-01   768   0.233E+00-0.484E-03
CGA:   3    -0.662471858384E+03   -0.44735E-01   -0.44728E-01   768   0.144E+00 0.592E-03
CGA:   4    -0.662497687277E+03   -0.25829E-01   -0.25823E-01   768   0.536E-01-0.462E-03
CGA:   5    -0.662506807005E+03   -0.91197E-02   -0.91208E-02   768   0.179E-01 0.163E-04
CGA:   6    -0.662510160628E+03   -0.33536E-02   -0.33538E-02   768   0.811E-02-0.317E-04
CGA:   7    -0.662511650573E+03   -0.14899E-02   -0.14900E-02   768   0.412E-02 0.779E-05
CGA:   8    -0.662512343861E+03   -0.69329E-03   -0.69305E-03   768   0.161E-02-0.103E-04
CGA:   9    -0.662512649954E+03   -0.30609E-03   -0.30612E-03   768   0.521E-03-0.447E-05
CGA:  10    -0.662512748114E+03   -0.98159E-04   -0.98177E-04   768   0.194E-03-0.382E-05
   3 F= -.66904845E+03 E0= -.66902937E+03  d E =-.163666E-01  mag=     1.5347
       N       E                     dE             d eps       ncg     rms          ort
SDA:   1    -0.662169216158E+03    0.34343E+00    0.00000E+00   768   0.128E+01 0.000E+00
CGA:   2    -0.662333197942E+03   -0.16398E+00   -0.16440E+00   768   0.482E+00 0.508E-03
CGA:   3    -0.662426725866E+03   -0.93528E-01   -0.93622E-01   768   0.342E+00-0.462E-02
CGA:   4    -0.662493000862E+03   -0.66275E-01   -0.66217E-01   768   0.145E+00 0.251E-02
CGA:   5    -0.662519820608E+03   -0.26820E-01   -0.26821E-01   768   0.498E-01-0.368E-03
CGA:   6    -0.662528473272E+03   -0.86527E-02   -0.86547E-02   768   0.183E-01 0.133E-03
CGA:   7    -0.662531746904E+03   -0.32736E-02   -0.32735E-02   768   0.903E-02-0.171E-04
CGA:   8    -0.662533237978E+03   -0.14911E-02   -0.14915E-02   768   0.347E-02 0.187E-04
CGA:   9    -0.662533889918E+03   -0.65194E-03   -0.65193E-03   768   0.108E-02 0.380E-05
CGA:  10    -0.662534093892E+03   -0.20397E-03   -0.20395E-03   768   0.420E-03 0.366E-05
CGA:  11    -0.662534164087E+03   -0.70195E-04   -0.70188E-04   768   0.189E-03-0.459E-06
   4 F= -.66906948E+03 E0= -.66905054E+03  d E =-.210349E-01  mag=     1.4979
       N       E                     dE             d eps       ncg     rms          ort
SDA:   1    -0.659288563760E+03    0.32455E+01    0.00000E+00   768   0.120E+02 0.000E+00
CGA:   2    -0.660747879613E+03   -0.14593E+01   -0.14730E+01   768   0.447E+01-0.281E-01
CGA:   3    -0.661583961491E+03   -0.83608E+00   -0.83792E+00   768   0.324E+01-0.137E+00
CGA:   4    -0.662202474387E+03   -0.61851E+00   -0.61637E+00   768   0.125E+01 0.778E-01
CGA:   5    -0.662448741966E+03   -0.24627E+00   -0.24644E+00   768   0.436E+00-0.767E-02
CGA:   6    -0.662526385677E+03   -0.77644E-01   -0.77651E-01   768   0.155E+00 0.359E-02
CGA:   7    -0.662555979016E+03   -0.29593E-01   -0.29606E-01   768   0.804E-01-0.851E-03
CGA:   8    -0.662568852875E+03   -0.12874E-01   -0.12881E-01   768   0.322E-01 0.193E-03
CGA:   9    -0.662574698387E+03   -0.58455E-02   -0.58457E-02   768   0.102E-01-0.854E-04
CGA:  10    -0.662576675660E+03   -0.19773E-02   -0.19770E-02   768   0.375E-02 0.169E-04
CGA:  11    -0.662577354768E+03   -0.67911E-03   -0.67911E-03   768   0.201E-02-0.715E-05
CGA:  12    -0.662577712549E+03   -0.35778E-03   -0.35777E-03   768   0.866E-03-0.164E-05
CGA:  13    -0.662577943815E+03   -0.23127E-03   -0.23164E-03   768   0.636E-03-0.443E-05
CGA:  14    -0.662578075152E+03   -0.13134E-03   -0.13137E-03   768   0.546E-03-0.586E-06
CGA:  15    -0.662578205035E+03   -0.12988E-03   -0.12990E-03   768   0.328E-03-0.644E-06
CGA:  16    -0.662578293200E+03   -0.88165E-04   -0.88085E-04   768   0.266E-03 0.143E-05
   5 F= -.66911304E+03 E0= -.66909602E+03  d E =-.645992E-01  mag=     1.3869
       N       E                     dE             d eps       ncg     rms          ort
SDA:   1    -0.649308473814E+03    0.13270E+02    0.00000E+00   768   0.526E+02 0.000E+00
CGA:   2    -0.655074097471E+03   -0.57656E+01   -0.59340E+01   768   0.195E+02-0.990E+00
CGA:   3    -0.658385051787E+03   -0.33110E+01   -0.32748E+01   768   0.134E+02-0.914E+00
CGA:   4    -0.660974140943E+03   -0.25891E+01   -0.25727E+01   768   0.483E+01 0.686E+00
CGA:   5    -0.661980805110E+03   -0.10067E+01   -0.10048E+01   768   0.184E+01 0.118E+00
CGA:   6    -0.662297393693E+03   -0.31659E+00   -0.31571E+00   768   0.925E+00-0.147E-01
CGA:   7    -0.662432502722E+03   -0.13511E+00   -0.13700E+00   768   0.386E+00 0.163E-01
CGA:   8    -0.662506855038E+03   -0.74352E-01   -0.74378E-01   768   0.145E+00-0.329E-02
CGA:   9    -0.662537763791E+03   -0.30909E-01   -0.30854E-01   768   0.431E-01 0.126E-02
CGA:  10    -0.662546853317E+03   -0.90895E-02   -0.90974E-02   768   0.194E-01-0.238E-03
CGA:  11    -0.662549989275E+03   -0.31360E-02   -0.31359E-02   768   0.103E-01 0.451E-05
CGA:  12    -0.662551918110E+03   -0.19288E-02   -0.19288E-02   768   0.405E-02-0.359E-04
CGA:  13    -0.662553074840E+03   -0.11567E-02   -0.11577E-02   768   0.276E-02-0.800E-05
CGA:  14    -0.662553627055E+03   -0.55221E-03   -0.55234E-03   768   0.247E-02-0.120E-04
CGA:  15    -0.662554135553E+03   -0.50850E-03   -0.50857E-03   768   0.116E-02-0.153E-05
CGA:  16    -0.662554486602E+03   -0.35105E-03   -0.35145E-03   768   0.858E-03-0.393E-05
CGA:  17    -0.662554625149E+03   -0.13855E-03   -0.13856E-03   768   0.491E-03 0.199E-05
CGA:  18    -0.662554746355E+03   -0.12121E-03   -0.12126E-03   768   0.218E-03-0.130E-05
CGA:  19    -0.662554802597E+03   -0.56243E-04   -0.56224E-04   768   0.200E-03 0.566E-06
   6 F= -.66909244E+03 E0= -.66907630E+03  d E =-.439948E-01  mag=     1.4140
       N       E                     dE             d eps       ncg     rms          ort
SDA:   1    -0.656643869445E+03    0.59109E+01    0.00000E+00   768   0.204E+02 0.000E+00
CGA:   2    -0.659442072080E+03   -0.27982E+01   -0.27999E+01   768   0.747E+01-0.136E+00
CGA:   3    -0.660962415345E+03   -0.15203E+01   -0.15200E+01   768   0.528E+01-0.322E-01
CGA:   4    -0.661957472384E+03   -0.99506E+00   -0.99334E+00   768   0.240E+01-0.120E+00
CGA:   5    -0.662358889650E+03   -0.40142E+00   -0.40236E+00   768   0.769E+00 0.756E-02
CGA:   6    -0.662496370064E+03   -0.13748E+00   -0.13715E+00   768   0.315E+00-0.872E-02
CGA:   7    -0.662547993874E+03   -0.51624E-01   -0.51688E-01   768   0.141E+00 0.541E-03
CGA:   8    -0.662572221647E+03   -0.24228E-01   -0.24189E-01   768   0.573E-01-0.741E-03
CGA:   9    -0.662582779213E+03   -0.10558E-01   -0.10559E-01   768   0.178E-01 0.103E-03
CGA:  10    -0.662586015692E+03   -0.32365E-02   -0.32354E-02   768   0.720E-02-0.574E-04
CGA:  11    -0.662587161614E+03   -0.11459E-02   -0.11460E-02   768   0.287E-02-0.331E-06
CGA:  12    -0.662587720346E+03   -0.55873E-03   -0.55875E-03   768   0.116E-02-0.382E-05
CGA:  13    -0.662587971162E+03   -0.25082E-03   -0.25076E-03   768   0.766E-03 0.254E-05
CGA:  14    -0.662588111570E+03   -0.14041E-03   -0.14042E-03   768   0.470E-03 0.967E-06
CGA:  15    -0.662588231290E+03   -0.11972E-03   -0.11963E-03   768   0.336E-03 0.184E-05
CGA:  16    -0.662588310055E+03   -0.78765E-04   -0.78788E-04   768   0.278E-03-0.742E-06
   7 F= -.66912351E+03 E0= -.66910765E+03  d E =-.750625E-01  mag=     1.3569
       N       E                     dE             d eps       ncg     rms          ort
SDA:   1    -0.662037489204E+03    0.55074E+00    0.00000E+00   768   0.196E+01 0.000E+00
CGA:   2    -0.662295536044E+03   -0.25805E+00   -0.25884E+00   768   0.853E+00-0.108E-02
CGA:   3    -0.662451063059E+03   -0.15553E+00   -0.15539E+00   768   0.552E+00-0.719E-02
CGA:   4    -0.662552160183E+03   -0.10110E+00   -0.10116E+00   768   0.201E+00 0.396E-02
CGA:   5    -0.662587858705E+03   -0.35699E-01   -0.35685E-01   768   0.684E-01-0.258E-03
CGA:   6    -0.662599987975E+03   -0.12129E-01   -0.12136E-01   768   0.311E-01 0.281E-03
CGA:   7    -0.662605315501E+03   -0.53275E-02   -0.53256E-02   768   0.158E-01-0.262E-04
CGA:   8    -0.662608084718E+03   -0.27692E-02   -0.27702E-02   768   0.604E-02 0.408E-04
CGA:   9    -0.662609245939E+03   -0.11612E-02   -0.11612E-02   768   0.202E-02-0.426E-05
CGA:  10    -0.662609577840E+03   -0.33190E-03   -0.33204E-03   768   0.821E-03 0.484E-05
CGA:  11    -0.662609710858E+03   -0.13302E-03   -0.13303E-03   768   0.277E-03 0.635E-06
CGA:  12    -0.662609765416E+03   -0.54559E-04   -0.54548E-04   768   0.110E-03 0.106E-05
   8 F= -.66914572E+03 E0= -.66912919E+03  d E =-.222095E-01  mag=     1.3751
       N       E                     dE             d eps       ncg     rms          ort
SDA:   1    -0.658236497393E+03    0.43732E+01    0.00000E+00   768   0.158E+02 0.000E+00
CGA:   2    -0.660164449115E+03   -0.19280E+01   -0.19512E+01   768   0.684E+01-0.779E-01
CGA:   3    -0.661366736958E+03   -0.12023E+01   -0.12003E+01   768   0.443E+01-0.162E+00
CGA:   4    -0.662182180885E+03   -0.81544E+00   -0.81459E+00   768   0.146E+01 0.104E+00
CGA:   5    -0.662462297415E+03   -0.28012E+00   -0.28016E+00   768   0.511E+00-0.447E-02
CGA:   6    -0.662556930928E+03   -0.94634E-01   -0.94612E-01   768   0.227E+00 0.658E-02
CGA:   7    -0.662596734272E+03   -0.39803E-01   -0.39778E-01   768   0.130E+00-0.910E-03
CGA:   8    -0.662617549042E+03   -0.20815E-01   -0.20846E-01   768   0.485E-01 0.626E-03
CGA:   9    -0.662627159110E+03   -0.96101E-02   -0.96148E-02   768   0.148E-01-0.191E-03
CGA:  10    -0.662629882182E+03   -0.27231E-02   -0.27230E-02   768   0.651E-02 0.330E-04
CGA:  11    -0.662630851936E+03   -0.96975E-03   -0.96932E-03   768   0.262E-02-0.434E-05
CGA:  12    -0.662631359533E+03   -0.50760E-03   -0.50759E-03   768   0.935E-03 0.146E-05
CGA:  13    -0.662631568864E+03   -0.20933E-03   -0.20947E-03   768   0.675E-03-0.357E-05
CGA:  14    -0.662631675250E+03   -0.10639E-03   -0.10634E-03   768   0.353E-03-0.617E-06
CGA:  15    -0.662631772374E+03   -0.97124E-04   -0.97246E-04   768   0.239E-03-0.146E-05
   9 F= -.66917058E+03 E0= -.66915143E+03  d E =-.470689E-01  mag=     1.4734
       N       E                     dE             d eps       ncg     rms          ort
SDA:   1    -0.662241912406E+03    0.38976E+00    0.00000E+00   768   0.132E+01 0.000E+00
CGA:   2    -0.662427564476E+03   -0.18565E+00   -0.18606E+00   768   0.762E+00 0.218E-03
CGA:   3    -0.662553478743E+03   -0.12591E+00   -0.12584E+00   768   0.380E+00-0.199E-02
CGA:   4    -0.662622519114E+03   -0.69040E-01   -0.69048E-01   768   0.108E+00 0.144E-02
CGA:   5    -0.662640965187E+03   -0.18446E-01   -0.18443E-01   768   0.352E-01-0.255E-04
CGA:   6    -0.662647321389E+03   -0.63562E-02   -0.63569E-02   768   0.173E-01 0.131E-03
CGA:   7    -0.662650126962E+03   -0.28056E-02   -0.28055E-02   768   0.896E-02 0.150E-04
CGA:   8    -0.662651827111E+03   -0.17001E-02   -0.16998E-02   768   0.394E-02 0.322E-04
CGA:   9    -0.662652619107E+03   -0.79200E-03   -0.79214E-03   768   0.148E-02-0.582E-05
CGA:  10    -0.662652867471E+03   -0.24836E-03   -0.24842E-03   768   0.707E-03 0.257E-05
CGA:  11    -0.662652980699E+03   -0.11323E-03   -0.11322E-03   768   0.232E-03-0.155E-06
CGA:  12    -0.662653028238E+03   -0.47538E-04   -0.47524E-04   768   0.101E-03 0.605E-06
  10 F= -.66919335E+03 E0= -.66917287E+03  d E =-.227718E-01  mag=     1.5392
       N       E                     dE             d eps       ncg     rms          ort
SDA:   1    -0.659586361909E+03    0.30666E+01    0.00000E+00   768   0.102E+02 0.000E+00
CGA:   2    -0.660955604205E+03   -0.13692E+01   -0.13831E+01   768   0.572E+01 0.250E-01
CGA:   3    -0.661926773366E+03   -0.97117E+00   -0.97025E+00   768   0.283E+01-0.488E-01
CGA:   4    -0.662443306366E+03   -0.51653E+00   -0.51634E+00   768   0.756E+00 0.314E-01
CGA:   5    -0.662579160713E+03   -0.13585E+00   -0.13584E+00   768   0.252E+00-0.978E-03
CGA:   6    -0.662627488018E+03   -0.48327E-01   -0.48289E-01   768   0.121E+00 0.226E-02
CGA:   7    -0.662648873478E+03   -0.21385E-01   -0.21383E-01   768   0.692E-01-0.132E-03
CGA:   8    -0.662661038928E+03   -0.12165E-01   -0.12170E-01   768   0.301E-01 0.519E-03
CGA:   9    -0.662667022543E+03   -0.59836E-02   -0.59860E-02   768   0.994E-02-0.883E-04
CGA:  10    -0.662668970374E+03   -0.19478E-02   -0.19472E-02   768   0.458E-02 0.245E-04
CGA:  11    -0.662669674286E+03   -0.70391E-03   -0.70374E-03   768   0.183E-02-0.400E-05
CGA:  12    -0.662670026000E+03   -0.35171E-03   -0.35170E-03   768   0.657E-03 0.630E-06
CGA:  13    -0.662670173681E+03   -0.14768E-03   -0.14780E-03   768   0.428E-03-0.289E-05
CGA:  14    -0.662670244286E+03   -0.70605E-04   -0.70597E-04   768   0.240E-03-0.212E-06
  11 F= -.66921493E+03 E0= -.66919185E+03  d E =-.443510E-01  mag=     1.7984
       N       E                     dE             d eps       ncg     rms          ort
SDA:   1    -0.662497869453E+03    0.17230E+00    0.00000E+00   768   0.556E+00 0.000E+00
CGA:   2    -0.662578593046E+03   -0.80724E-01   -0.80477E-01   768   0.311E+00-0.106E-02
CGA:   3    -0.662630391014E+03   -0.51798E-01   -0.51821E-01   768   0.159E+00 0.670E-03
CGA:   4    -0.662660133206E+03   -0.29742E-01   -0.29744E-01   768   0.440E-01-0.338E-03
CGA:   5    -0.662667574539E+03   -0.74413E-02   -0.74428E-02   768   0.144E-01 0.285E-04
CGA:   6    -0.662670177891E+03   -0.26034E-02   -0.26032E-02   768   0.714E-02-0.429E-04
CGA:   7    -0.662671360771E+03   -0.11829E-02   -0.11828E-02   768   0.350E-02-0.817E-05
CGA:   8    -0.662672042482E+03   -0.68171E-03   -0.68190E-03   768   0.161E-02-0.107E-04
CGA:   9    -0.662672346991E+03   -0.30451E-03   -0.30449E-03   768   0.581E-03 0.211E-05
CGA:  10    -0.662672446619E+03   -0.99629E-04   -0.99608E-04   768   0.257E-03-0.147E-05
  12 F= -.66921608E+03 E0= -.66919311E+03  d E =-.455012E-01  mag=     1.7476
       N       E                     dE             d eps       ncg     rms          ort
SDA:   1    -0.662317433842E+03    0.35491E+00    0.00000E+00   768   0.105E+01 0.000E+00
CGA:   2    -0.662510325675E+03   -0.19289E+00   -0.19286E+00   768   0.854E+00 0.838E-02
CGA:   3    -0.662636239639E+03   -0.12591E+00   -0.12589E+00   768   0.287E+00-0.936E-04
CGA:   4    -0.662687774690E+03   -0.51535E-01   -0.51535E-01   768   0.469E-01 0.471E-03
CGA:   5    -0.662696355105E+03   -0.85804E-02   -0.85804E-02   768   0.175E-01 0.256E-04
CGA:   6    -0.662699454711E+03   -0.30996E-02   -0.30997E-02   768   0.655E-02 0.335E-04
CGA:   7    -0.662700605448E+03   -0.11507E-02   -0.11507E-02   768   0.336E-02 0.122E-05
CGA:   8    -0.662701180618E+03   -0.57517E-03   -0.57519E-03   768   0.164E-02-0.466E-07
CGA:   9    -0.662701508797E+03   -0.32818E-03   -0.32825E-03   768   0.658E-03-0.316E-05
CGA:  10    -0.662701655482E+03   -0.14668E-03   -0.14654E-03   768   0.332E-03 0.326E-05
CGA:  11    -0.662701708399E+03   -0.52917E-04   -0.52943E-04   768   0.150E-03 0.113E-05
  13 F= -.66924688E+03 E0= -.66922373E+03  d E =-.308038E-01  mag=     1.7954
       N       E                     dE             d eps       ncg     rms          ort
SDA:   1    -0.659324911362E+03    0.33767E+01    0.00000E+00   768   0.931E+01 0.000E+00
CGA:   2    -0.661056100637E+03   -0.17312E+01   -0.17300E+01   768   0.751E+01 0.128E+00
CGA:   3    -0.662180465099E+03   -0.11244E+01   -0.11261E+01   768   0.241E+01 0.264E-01
CGA:   4    -0.662615729925E+03   -0.43526E+00   -0.43526E+00   768   0.409E+00 0.117E-01
CGA:   5    -0.662691807319E+03   -0.76077E-01   -0.76080E-01   768   0.156E+00-0.123E-03
CGA:   6    -0.662720967348E+03   -0.29160E-01   -0.29156E-01   768   0.592E-01 0.447E-03
CGA:   7    -0.662732249203E+03   -0.11282E-01   -0.11282E-01   768   0.302E-01 0.707E-05
CGA:   8    -0.662737601436E+03   -0.53522E-02   -0.53528E-02   768   0.160E-01 0.915E-04
CGA:   9    -0.662740538894E+03   -0.29375E-02   -0.29375E-02   768   0.626E-02-0.160E-04
CGA:  10    -0.662741981942E+03   -0.14430E-02   -0.14420E-02   768   0.260E-02 0.191E-04
CGA:  11    -0.662742461518E+03   -0.47958E-03   -0.47957E-03   768   0.134E-02 0.233E-05
CGA:  12    -0.662742672466E+03   -0.21095E-03   -0.21104E-03   768   0.422E-03 0.309E-05
CGA:  13    -0.662742766349E+03   -0.93883E-04   -0.93917E-04   768   0.175E-03-0.907E-06
  14 F= -.66929258E+03 E0= -.66926990E+03  d E =-.765011E-01  mag=     1.9328
       N       E                     dE             d eps       ncg     rms          ort
SDA:   1    -0.662616141959E+03    0.12653E+00    0.00000E+00   768   0.346E+00 0.000E+00
CGA:   2    -0.662680726252E+03   -0.64584E-01   -0.64575E-01   768   0.270E+00 0.226E-02
CGA:   3    -0.662721582114E+03   -0.40856E-01   -0.40835E-01   768   0.947E-01-0.155E-03
CGA:   4    -0.662738645321E+03   -0.17063E-01   -0.17063E-01   768   0.149E-01 0.409E-05
CGA:   5    -0.662741365837E+03   -0.27205E-02   -0.27205E-02   768   0.570E-02 0.159E-04
CGA:   6    -0.662742378983E+03   -0.10131E-02   -0.10132E-02   768   0.206E-02 0.120E-04
CGA:   7    -0.662742784834E+03   -0.40585E-03   -0.40584E-03   768   0.101E-02 0.500E-06
CGA:   8    -0.662742972928E+03   -0.18809E-03   -0.18810E-03   768   0.586E-03-0.137E-05
CGA:   9    -0.662743078669E+03   -0.10574E-03   -0.10574E-03   768   0.236E-03-0.162E-05
CGA:  10    -0.662743132220E+03   -0.53551E-04   -0.53488E-04   768   0.987E-04 0.138E-05
  15 F= -.66929384E+03 E0= -.66927137E+03  d E =-.777593E-01  mag=     1.9627
       N       E                     dE             d eps       ncg     rms          ort
SDA:   1    -0.662340447154E+03    0.40263E+00    0.00000E+00   768   0.110E+01 0.000E+00
CGA:   2    -0.662560823190E+03   -0.22038E+00   -0.22027E+00   768   0.768E+00 0.298E-02
CGA:   3    -0.662693802680E+03   -0.13298E+00   -0.13281E+00   768   0.381E+00-0.595E-02
CGA:   4    -0.662750338542E+03   -0.56536E-01   -0.56588E-01   768   0.831E-01 0.839E-04
CGA:   5    -0.662765400966E+03   -0.15062E-01   -0.15061E-01   768   0.294E-01-0.201E-03
CGA:   6    -0.662771242862E+03   -0.58419E-02   -0.58399E-02   768   0.138E-01 0.811E-04
CGA:   7    -0.662773879494E+03   -0.26366E-02   -0.26369E-02   768   0.760E-02-0.228E-04
CGA:   8    -0.662775216076E+03   -0.13366E-02   -0.13368E-02   768   0.341E-02 0.732E-05
CGA:   9    -0.662775845984E+03   -0.62991E-03   -0.62991E-03   768   0.115E-02-0.122E-04
CGA:  10    -0.662776083541E+03   -0.23756E-03   -0.23754E-03   768   0.463E-03 0.277E-06
CGA:  11    -0.662776160864E+03   -0.77323E-04   -0.77325E-04   768   0.203E-03 0.157E-06
  16 F= -.66932795E+03 E0= -.66930560E+03  d E =-.341093E-01  mag=     2.0413
       N       E                     dE             d eps       ncg     rms          ort
SDA:   1    -0.660760159291E+03    0.20159E+01    0.00000E+00   768   0.513E+01 0.000E+00
CGA:   2    -0.661792951543E+03   -0.10328E+01   -0.10317E+01   768   0.354E+01 0.271E-01
CGA:   3    -0.662418818708E+03   -0.62587E+00   -0.62464E+00   768   0.179E+01-0.640E-01
CGA:   4    -0.662678239932E+03   -0.25942E+00   -0.26004E+00   768   0.382E+00 0.154E-02
CGA:   5    -0.662748912460E+03   -0.70673E-01   -0.70679E-01   768   0.135E+00-0.205E-02
CGA:   6    -0.662776248583E+03   -0.27336E-01   -0.27319E-01   768   0.625E-01 0.531E-03
CGA:   7    -0.662788767547E+03   -0.12519E-01   -0.12526E-01   768   0.340E-01-0.274E-03
CGA:   8    -0.662794740635E+03   -0.59731E-02   -0.59756E-02   768   0.159E-01 0.136E-03
CGA:   9    -0.662797542872E+03   -0.28022E-02   -0.28014E-02   768   0.539E-02-0.520E-04
CGA:  10    -0.662798685591E+03   -0.11427E-02   -0.11424E-02   768   0.195E-02 0.774E-05
CGA:  11    -0.662799044249E+03   -0.35866E-03   -0.35866E-03   768   0.935E-03-0.175E-06
CGA:  12    -0.662799202689E+03   -0.15844E-03   -0.15849E-03   768   0.365E-03 0.260E-05
CGA:  13    -0.662799289843E+03   -0.87154E-04   -0.87120E-04   768   0.186E-03 0.604E-06
  17 F= -.66935332E+03 E0= -.66933167E+03  d E =-.594809E-01  mag=     2.1852
       N       E                     dE             d eps       ncg     rms          ort
SDA:   1    -0.662364700401E+03    0.43450E+00    0.00000E+00   768   0.117E+01 0.000E+00
CGA:   2    -0.662601019454E+03   -0.23632E+00   -0.23628E+00   768   0.724E+00 0.837E-03
CGA:   3    -0.662738800419E+03   -0.13778E+00   -0.13778E+00   768   0.375E+00-0.382E-02
CGA:   4    -0.662792521440E+03   -0.53721E-01   -0.53775E-01   768   0.971E-01-0.915E-04
CGA:   5    -0.662809996835E+03   -0.17475E-01   -0.17473E-01   768   0.349E-01-0.171E-03
CGA:   6    -0.662817173803E+03   -0.71770E-02   -0.71761E-02   768   0.152E-01 0.216E-04
CGA:   7    -0.662820541732E+03   -0.33679E-02   -0.33699E-02   768   0.728E-02-0.422E-04
CGA:   8    -0.662821923146E+03   -0.13814E-02   -0.13814E-02   768   0.360E-02 0.311E-05
CGA:   9    -0.662822459951E+03   -0.53680E-03   -0.53623E-03   768   0.130E-02-0.632E-05
CGA:  10    -0.662822707633E+03   -0.24768E-03   -0.24768E-03   768   0.380E-03 0.189E-05
CGA:  11    -0.662822791260E+03   -0.83628E-04   -0.83589E-04   768   0.152E-03 0.124E-05
  18 F= -.66937731E+03 E0= -.66935502E+03  d E =-.239890E-01  mag=     2.1999
       N       E                     dE             d eps       ncg     rms          ort
SDA:   1    -0.660500860885E+03    0.23218E+01    0.00000E+00   768   0.602E+01 0.000E+00
CGA:   2    -0.661706199543E+03   -0.12053E+01   -0.12048E+01   768   0.370E+01 0.131E-01
CGA:   3    -0.662413616581E+03   -0.70742E+00   -0.70759E+00   768   0.199E+01-0.645E-01
CGA:   4    -0.662690011589E+03   -0.27640E+00   -0.27741E+00   768   0.503E+00-0.834E-03
CGA:   5    -0.662780463937E+03   -0.90452E-01   -0.90411E-01   768   0.187E+00-0.336E-02
CGA:   6    -0.662816668348E+03   -0.36204E-01   -0.36190E-01   768   0.905E-01 0.871E-03
CGA:   7    -0.662833095691E+03   -0.16427E-01   -0.16421E-01   768   0.506E-01-0.483E-03
CGA:   8    -0.662841283897E+03   -0.81882E-02   -0.81990E-02   768   0.197E-01 0.152E-03
CGA:   9    -0.662845100278E+03   -0.38164E-02   -0.38173E-02   768   0.652E-02-0.766E-04
CGA:  10    -0.662846386354E+03   -0.12861E-02   -0.12858E-02   768   0.274E-02 0.124E-04
CGA:  11    -0.662846804403E+03   -0.41805E-03   -0.41796E-03   768   0.112E-02 0.329E-06
CGA:  12    -0.662847011369E+03   -0.20697E-03   -0.20697E-03   768   0.384E-03 0.355E-05
CGA:  13    -0.662847098459E+03   -0.87090E-04   -0.87050E-04   768   0.238E-03 0.938E-06
  19 F= -.66940263E+03 E0= -.66937741E+03  d E =-.493141E-01  mag=     2.1692
       N       E                     dE             d eps       ncg     rms          ort
SDA:   1    -0.662754363459E+03    0.92648E-01    0.00000E+00   768   0.275E+00 0.000E+00
CGA:   2    -0.662816889491E+03   -0.62526E-01   -0.62566E-01   768   0.203E+00-0.653E-03
CGA:   3    -0.662849460657E+03   -0.32571E-01   -0.32604E-01   768   0.925E-01 0.454E-03
CGA:   4    -0.662862500001E+03   -0.13039E-01   -0.13027E-01   768   0.235E-01-0.287E-04
CGA:   5    -0.662866692158E+03   -0.41922E-02   -0.41924E-02   768   0.813E-02 0.196E-04
CGA:   6    -0.662868120134E+03   -0.14280E-02   -0.14278E-02   768   0.375E-02-0.126E-04
CGA:   7    -0.662868816138E+03   -0.69600E-03   -0.69600E-03   768   0.208E-02 0.438E-07
CGA:   8    -0.662869196298E+03   -0.38016E-03   -0.38015E-03   768   0.961E-03-0.450E-05
CGA:   9    -0.662869387411E+03   -0.19111E-03   -0.19112E-03   768   0.384E-03-0.773E-06
CGA:  10    -0.662869455289E+03   -0.67878E-04   -0.67871E-04   768   0.183E-03-0.784E-06
  20 F= -.66942513E+03 E0= -.66939943E+03  d E =-.224996E-01  mag=     2.1724
       N       E                     dE             d eps       ncg     rms          ort
SDA:   1    -0.662646725502E+03    0.22266E+00    0.00000E+00   768   0.561E+00 0.000E+00
CGA:   2    -0.662774302691E+03   -0.12758E+00   -0.12769E+00   768   0.411E+00-0.170E-02
CGA:   3    -0.662840632937E+03   -0.66330E-01   -0.66411E-01   768   0.188E+00 0.136E-02
CGA:   4    -0.662866939020E+03   -0.26306E-01   -0.26270E-01   768   0.483E-01-0.112E-03
CGA:   5    -0.662875389178E+03   -0.84502E-02   -0.84512E-02   768   0.168E-01 0.630E-04
CGA:   6    -0.662878387082E+03   -0.29979E-02   -0.29977E-02   768   0.784E-02-0.334E-04
CGA:   7    -0.662879809191E+03   -0.14221E-02   -0.14221E-02   768   0.422E-02 0.661E-05
CGA:   8    -0.662880583674E+03   -0.77448E-03   -0.77451E-03   768   0.194E-02-0.856E-05
CGA:   9    -0.662880964591E+03   -0.38092E-03   -0.38090E-03   768   0.777E-03-0.146E-06
CGA:  10    -0.662881100274E+03   -0.13568E-03   -0.13567E-03   768   0.354E-03-0.140E-05
CGA:  11    -0.662881160321E+03   -0.60047E-04   -0.60053E-04   768   0.136E-03 0.477E-06
  21 F= -.66943699E+03 E0= -.66941055E+03  d E =-.343613E-01  mag=     2.1724
       N       E                     dE             d eps       ncg     rms          ort
SDA:   1    -0.662722337326E+03    0.15876E+00    0.00000E+00   768   0.461E+00 0.000E+00
CGA:   2    -0.662816797175E+03   -0.94460E-01   -0.94552E-01   768   0.348E+00-0.241E-02
CGA:   3    -0.662866588507E+03   -0.49791E-01   -0.49875E-01   768   0.149E+00 0.656E-03
CGA:   4    -0.662890684865E+03   -0.24096E-01   -0.24089E-01   768   0.334E-01-0.136E-03
CGA:   5    -0.662896793684E+03   -0.61088E-02   -0.61087E-02   768   0.117E-01 0.168E-04
CGA:   6    -0.662898971447E+03   -0.21778E-02   -0.21780E-02   768   0.590E-02-0.301E-04
CGA:   7    -0.662899926766E+03   -0.95532E-03   -0.95544E-03   768   0.296E-02-0.368E-05
CGA:   8    -0.662900497219E+03   -0.57045E-03   -0.57059E-03   768   0.128E-02-0.855E-05
CGA:   9    -0.662900752049E+03   -0.25483E-03   -0.25482E-03   768   0.537E-03 0.106E-06
CGA:  10    -0.662900847039E+03   -0.94990E-04   -0.94987E-04   768   0.268E-03-0.400E-06
  22 F= -.66945653E+03 E0= -.66942972E+03  d E =-.195333E-01  mag=     2.1445
       N       E                     dE             d eps       ncg     rms          ort
SDA:   1    -0.661910398380E+03    0.99035E+00    0.00000E+00   768   0.262E+01 0.000E+00
CGA:   2    -0.662438186359E+03   -0.52779E+00   -0.52872E+00   768   0.204E+01-0.247E-01
CGA:   3    -0.662721229200E+03   -0.28304E+00   -0.28402E+00   768   0.856E+00 0.775E-02
CGA:   4    -0.662862294835E+03   -0.14107E+00   -0.14098E+00   768   0.195E+00-0.266E-02
CGA:   5    -0.662897257474E+03   -0.34963E-01   -0.34962E-01   768   0.709E-01 0.294E-03
CGA:   6    -0.662909866567E+03   -0.12609E-01   -0.12609E-01   768   0.364E-01-0.276E-03
CGA:   7    -0.662915562196E+03   -0.56956E-02   -0.57000E-02   768   0.172E-01 0.582E-04
CGA:   8    -0.662918959572E+03   -0.33974E-02   -0.33990E-02   768   0.750E-02-0.564E-04
CGA:   9    -0.662920438962E+03   -0.14794E-02   -0.14790E-02   768   0.335E-02 0.120E-04
CGA:  10    -0.662920984971E+03   -0.54601E-03   -0.54589E-03   768   0.160E-02-0.353E-05
CGA:  11    -0.662921256838E+03   -0.27187E-03   -0.27190E-03   768   0.517E-03 0.277E-05
CGA:  12    -0.662921363798E+03   -0.10696E-03   -0.10695E-03   768   0.261E-03 0.260E-06
CGA:  13    -0.662921405318E+03   -0.41520E-04   -0.41532E-04   768   0.134E-03 0.573E-06
  23 F= -.66947664E+03 E0= -.66944919E+03  d E =-.396512E-01  mag=     2.0573
       N       E                     dE             d eps       ncg     rms          ort
SDA:   1    -0.662829623384E+03    0.91740E-01    0.00000E+00   768   0.278E+00 0.000E+00
CGA:   2    -0.662883709810E+03   -0.54086E-01   -0.54101E-01   768   0.199E+00-0.557E-03
CGA:   3    -0.662914247425E+03   -0.30538E-01   -0.30565E-01   768   0.101E+00 0.389E-03
CGA:   4    -0.662929878640E+03   -0.15631E-01   -0.15624E-01   768   0.221E-01-0.844E-04
CGA:   5    -0.662933874648E+03   -0.39960E-02   -0.39959E-02   768   0.804E-02 0.575E-05
CGA:   6    -0.662935290444E+03   -0.14158E-02   -0.14157E-02   768   0.402E-02-0.176E-04
CGA:   7    -0.662935960406E+03   -0.66996E-03   -0.66999E-03   768   0.209E-02-0.164E-05
CGA:   8    -0.662936348189E+03   -0.38778E-03   -0.38782E-03   768   0.897E-03-0.354E-05
CGA:   9    -0.662936529514E+03   -0.18132E-03   -0.18132E-03   768   0.388E-03-0.249E-06
CGA:  10    -0.662936593279E+03   -0.63765E-04   -0.63745E-04   768   0.191E-03-0.124E-05
  24 F= -.66949183E+03 E0= -.66946417E+03  d E =-.151873E-01  mag=     2.0421
       N       E                     dE             d eps       ncg     rms          ort
SDA:   1    -0.662243081122E+03    0.69345E+00    0.00000E+00   768   0.185E+01 0.000E+00
CGA:   2    -0.662599336211E+03   -0.35626E+00   -0.35643E+00   768   0.133E+01-0.646E-02
CGA:   3    -0.662801831738E+03   -0.20250E+00   -0.20288E+00   768   0.675E+00 0.582E-02
CGA:   4    -0.662907331332E+03   -0.10550E+00   -0.10538E+00   768   0.149E+00-0.215E-02
CGA:   5    -0.662933923650E+03   -0.26592E-01   -0.26591E-01   768   0.546E-01 0.212E-03
CGA:   6    -0.662943557501E+03   -0.96339E-02   -0.96337E-02   768   0.277E-01-0.189E-03
CGA:   7    -0.662948083814E+03   -0.45263E-02   -0.45278E-02   768   0.139E-01 0.421E-04
CGA:   8    -0.662950673915E+03   -0.25901E-02   -0.25906E-02   768   0.589E-02-0.291E-04
CGA:   9    -0.662951859374E+03   -0.11855E-02   -0.11852E-02   768   0.259E-02 0.758E-05
CGA:  10    -0.662952275425E+03   -0.41605E-03   -0.41595E-03   768   0.122E-02-0.428E-05
CGA:  11    -0.662952485779E+03   -0.21035E-03   -0.21036E-03   768   0.414E-03-0.365E-07
CGA:  12    -0.662952569805E+03   -0.84026E-04   -0.84041E-04   768   0.210E-03-0.647E-06
  25 F= -.66950776E+03 E0= -.66947973E+03  d E =-.311104E-01  mag=     1.9934
       N       E                     dE             d eps       ncg     rms          ort
SDA:   1    -0.662881092306E+03    0.71393E-01    0.00000E+00   768   0.216E+00 0.000E+00
CGA:   2    -0.662921483840E+03   -0.40392E-01   -0.40397E-01   768   0.137E+00-0.291E-03
CGA:   3    -0.662943020272E+03   -0.21536E-01   -0.21546E-01   768   0.731E-01 0.212E-03
CGA:   4    -0.662954411831E+03   -0.11392E-01   -0.11387E-01   768   0.200E-01-0.689E-04
CGA:   5    -0.662957916488E+03   -0.35047E-02   -0.35047E-02   768   0.727E-02 0.866E-05
CGA:   6    -0.662959182833E+03   -0.12663E-02   -0.12663E-02   768   0.371E-02-0.146E-04
CGA:   7    -0.662959808471E+03   -0.62564E-03   -0.62563E-03   768   0.188E-02-0.379E-05
CGA:   8    -0.662960167435E+03   -0.35896E-03   -0.35904E-03   768   0.870E-03-0.400E-05
CGA:   9    -0.662960334492E+03   -0.16706E-03   -0.16706E-03   768   0.389E-03-0.453E-08
CGA:  10    -0.662960398447E+03   -0.63955E-04   -0.63951E-04   768   0.186E-03-0.216E-06
  26 F= -.66951559E+03 E0= -.66948771E+03  d E =-.783124E-02  mag=     1.9209
       N       E                     dE             d eps       ncg     rms          ort
SDA:   1    -0.662258535865E+03    0.70180E+00    0.00000E+00   768   0.192E+01 0.000E+00
CGA:   2    -0.662623842710E+03   -0.36531E+00   -0.36544E+00   768   0.121E+01-0.563E-02
CGA:   3    -0.662815800282E+03   -0.19196E+00   -0.19218E+00   768   0.655E+00 0.574E-02
CGA:   4    -0.662915945838E+03   -0.10015E+00   -0.99997E-01   768   0.187E+00-0.224E-02
CGA:   5    -0.662947054592E+03   -0.31109E-01   -0.31116E-01   768   0.694E-01 0.320E-03
CGA:   6    -0.662959076047E+03   -0.12021E-01   -0.12021E-01   768   0.337E-01-0.241E-03
CGA:   7    -0.662964790861E+03   -0.57148E-02   -0.57152E-02   768   0.171E-01 0.319E-04
CGA:   8    -0.662967960832E+03   -0.31700E-02   -0.31707E-02   768   0.806E-02-0.447E-04
CGA:   9    -0.662969453724E+03   -0.14929E-02   -0.14928E-02   768   0.352E-02 0.640E-05
CGA:  10    -0.662970034173E+03   -0.58045E-03   -0.58042E-03   768   0.159E-02-0.196E-05
CGA:  11    -0.662970312809E+03   -0.27864E-03   -0.27863E-03   768   0.662E-03 0.187E-05
CGA:  12    -0.662970447720E+03   -0.13491E-03   -0.13486E-03   768   0.416E-03 0.156E-05
CGA:  13    -0.662970529853E+03   -0.82133E-04   -0.82114E-04   768   0.305E-03 0.148E-05
  27 F= -.66952565E+03 E0= -.66949974E+03  d E =-.178900E-01  mag=     1.6795
       N       E                     dE             d eps       ncg     rms          ort
SDA:   1    -0.662791561018E+03    0.17889E+00    0.00000E+00   768   0.530E+00 0.000E+00
CGA:   2    -0.662887327399E+03   -0.95766E-01   -0.95766E-01   768   0.276E+00-0.263E-03
CGA:   3    -0.662940157942E+03   -0.52831E-01   -0.52822E-01   768   0.172E+00 0.472E-03
CGA:   4    -0.662966602433E+03   -0.26444E-01   -0.26422E-01   768   0.548E-01-0.269E-03
CGA:   5    -0.662975473022E+03   -0.88706E-02   -0.88731E-02   768   0.212E-01 0.476E-04
CGA:   6    -0.662978828860E+03   -0.33558E-02   -0.33544E-02   768   0.109E-01-0.315E-04
CGA:   7    -0.662980743433E+03   -0.19146E-02   -0.19146E-02   768   0.530E-02 0.355E-05
CGA:   8    -0.662981806479E+03   -0.10630E-02   -0.10633E-02   768   0.252E-02-0.650E-05
CGA:   9    -0.662982264888E+03   -0.45841E-03   -0.45841E-03   768   0.124E-02 0.915E-06
CGA:  10    -0.662982457625E+03   -0.19274E-03   -0.19275E-03   768   0.535E-03-0.630E-07
CGA:  11    -0.662982569360E+03   -0.11173E-03   -0.11172E-03   768   0.285E-03 0.925E-06
CGA:  12    -0.662982634753E+03   -0.65394E-04   -0.65315E-04   768   0.265E-03 0.136E-05
  28 F= -.66953789E+03 E0= -.66951469E+03  d E =-.122483E-01  mag=     1.5207
       N       E                     dE             d eps       ncg     rms          ort
SDA:   1    -0.661286240391E+03    0.16963E+01    0.00000E+00   768   0.477E+01 0.000E+00
CGA:   2    -0.662147770561E+03   -0.86153E+00   -0.86154E+00   768   0.247E+01-0.364E-02
CGA:   3    -0.662622642097E+03   -0.47487E+00   -0.47468E+00   768   0.152E+01 0.996E-02
CGA:   4    -0.662858674578E+03   -0.23603E+00   -0.23538E+00   768   0.493E+00-0.794E-02
CGA:   5    -0.662936926465E+03   -0.78252E-01   -0.78338E-01   768   0.186E+00 0.113E-02
CGA:   6    -0.662966786032E+03   -0.29860E-01   -0.29825E-01   768   0.975E-01-0.760E-03
CGA:   7    -0.662983381010E+03   -0.16595E-01   -0.16599E-01   768   0.449E-01 0.157E-03
CGA:   8    -0.662992391502E+03   -0.90105E-02   -0.90170E-02   768   0.204E-01-0.202E-03
CGA:   9    -0.662996034336E+03   -0.36428E-02   -0.36429E-02   768   0.933E-02 0.320E-04
CGA:  10    -0.662997423228E+03   -0.13889E-02   -0.13891E-02   768   0.356E-02-0.171E-05
CGA:  11    -0.662998096087E+03   -0.67286E-03   -0.67285E-03   768   0.141E-02 0.163E-05
CGA:  12    -0.662998379164E+03   -0.28308E-03   -0.28302E-03   768   0.957E-03 0.158E-05
CGA:  13    -0.662998557644E+03   -0.17848E-03   -0.17848E-03   768   0.632E-03 0.151E-05
CGA:  14    -0.662998721745E+03   -0.16410E-03   -0.16370E-03   768   0.507E-03 0.415E-05
CGA:  15    -0.662998839822E+03   -0.11808E-03   -0.11812E-03   768   0.499E-03 0.300E-06
CGA:  16    -0.662998940630E+03   -0.10081E-03   -0.10075E-03   768   0.269E-03 0.204E-05
CGA:  17    -0.662999006941E+03   -0.66311E-04   -0.66285E-04   768   0.185E-03 0.950E-06
  29 F= -.66955450E+03 E0= -.66953974E+03  d E =-.288562E-01  mag=     1.2312
       N       E                     dE             d eps       ncg     rms          ort
SDA:   1    -0.662774775886E+03    0.22416E+00    0.00000E+00   768   0.660E+00 0.000E+00
CGA:   2    -0.662895415270E+03   -0.12064E+00   -0.12064E+00   768   0.338E+00 0.906E-04
CGA:   3    -0.662960591380E+03   -0.65176E-01   -0.65181E-01   768   0.208E+00-0.794E-03
CGA:   4    -0.662993206565E+03   -0.32615E-01   -0.32632E-01   768   0.618E-01 0.111E-03
CGA:   5    -0.663003528218E+03   -0.10322E-01   -0.10318E-01   768   0.225E-01-0.733E-04
CGA:   6    -0.663007705339E+03   -0.41771E-02   -0.41772E-02   768   0.127E-01 0.262E-04
CGA:   7    -0.663009713981E+03   -0.20086E-02   -0.20074E-02   768   0.661E-02-0.141E-04
CGA:   8    -0.663010902051E+03   -0.11881E-02   -0.11881E-02   768   0.258E-02 0.560E-05
CGA:   9    -0.663011413726E+03   -0.51168E-03   -0.51172E-03   768   0.936E-03-0.245E-05
CGA:  10    -0.663011571543E+03   -0.15782E-03   -0.15785E-03   768   0.456E-03 0.157E-05
CGA:  11    -0.663011639240E+03   -0.67697E-04   -0.67698E-04   768   0.149E-03 0.337E-07
  30 F= -.66956716E+03 E0= -.66955416E+03  d E =-.126562E-01  mag=     1.1901
       N       E                     dE             d eps       ncg     rms          ort
SDA:   1    -0.660904612712E+03    0.21070E+01    0.00000E+00   768   0.593E+01 0.000E+00
CGA:   2    -0.661983977432E+03   -0.10794E+01   -0.10794E+01   768   0.304E+01 0.623E-02
CGA:   3    -0.662569534940E+03   -0.58556E+00   -0.58589E+00   768   0.190E+01-0.295E-01
CGA:   4    -0.662863521938E+03   -0.29399E+00   -0.29446E+00   768   0.550E+00 0.307E-02
CGA:   5    -0.662956435096E+03   -0.92913E-01   -0.92837E-01   768   0.199E+00-0.255E-02
CGA:   6    -0.662994447390E+03   -0.38012E-01   -0.38001E-01   768   0.103E+00 0.614E-03
CGA:   7    -0.663012364293E+03   -0.17917E-01   -0.17905E-01   768   0.583E-01-0.536E-03
CGA:   8    -0.663022268010E+03   -0.99037E-02   -0.99064E-02   768   0.225E-01 0.103E-03
CGA:   9    -0.663026692458E+03   -0.44244E-02   -0.44255E-02   768   0.760E-02-0.480E-04
CGA:  10    -0.663028104808E+03   -0.14123E-02   -0.14123E-02   768   0.338E-02 0.106E-04
CGA:  11    -0.663028602565E+03   -0.49776E-03   -0.49765E-03   768   0.125E-02-0.180E-05
CGA:  12    -0.663028857878E+03   -0.25531E-03   -0.25528E-03   768   0.529E-03 0.188E-05
CGA:  13    -0.663028978789E+03   -0.12091E-03   -0.12091E-03   768   0.412E-03-0.224E-06
CGA:  14    -0.663029052973E+03   -0.74184E-04   -0.74188E-04   768   0.264E-03 0.122E-05
  31 F= -.66958436E+03 E0= -.66957439E+03  d E =-.298634E-01  mag=     1.1152
       N       E                     dE             d eps       ncg     rms          ort
SDA:   1    -0.662785487695E+03    0.24349E+00    0.00000E+00   768   0.789E+00 0.000E+00
CGA:   2    -0.662915517420E+03   -0.13003E+00   -0.13009E+00   768   0.375E+00 0.652E-03
CGA:   3    -0.662982672370E+03   -0.67155E-01   -0.67119E-01   768   0.254E+00-0.204E-02
CGA:   4    -0.663025728758E+03   -0.43056E-01   -0.43081E-01   768   0.826E-01 0.549E-03
CGA:   5    -0.663039312725E+03   -0.13584E-01   -0.13580E-01   768   0.292E-01-0.605E-04
CGA:   6    -0.663044675653E+03   -0.53629E-02   -0.53632E-02   768   0.141E-01 0.822E-04
CGA:   7    -0.663047128495E+03   -0.24528E-02   -0.24524E-02   768   0.739E-02-0.119E-04
CGA:   8    -0.663048467206E+03   -0.13387E-02   -0.13388E-02   768   0.304E-02 0.119E-04
CGA:   9    -0.663049043853E+03   -0.57665E-03   -0.57667E-03   768   0.114E-02-0.351E-05
CGA:  10    -0.663049236918E+03   -0.19307E-03   -0.19310E-03   768   0.476E-03 0.208E-05
CGA:  11    -0.663049315734E+03   -0.78816E-04   -0.78812E-04   768   0.174E-03-0.132E-06
  32 F= -.66960463E+03 E0= -.66959485E+03  d E =-.202609E-01  mag=     1.1028
       N       E                     dE             d eps       ncg     rms          ort
SDA:   1    -0.662274217525E+03    0.77502E+00    0.00000E+00   768   0.235E+01 0.000E+00
CGA:   2    -0.662662061776E+03   -0.38784E+00   -0.38811E+00   768   0.112E+01 0.407E-02
CGA:   3    -0.662862831261E+03   -0.20077E+00   -0.20067E+00   768   0.765E+00-0.108E-01
CGA:   4    -0.662991923076E+03   -0.12909E+00   -0.12918E+00   768   0.241E+00 0.306E-02
CGA:   5    -0.663032203623E+03   -0.40281E-01   -0.40264E-01   768   0.853E-01-0.420E-03
CGA:   6    -0.663048066517E+03   -0.15863E-01   -0.15860E-01   768   0.412E-01 0.370E-03
CGA:   7    -0.663055351187E+03   -0.72847E-02   -0.72834E-02   768   0.220E-01-0.937E-04
CGA:   8    -0.663059253757E+03   -0.39026E-02   -0.39030E-02   768   0.873E-02 0.487E-04
CGA:   9    -0.663060926708E+03   -0.16730E-02   -0.16732E-02   768   0.314E-02-0.147E-04
CGA:  10    -0.663061467976E+03   -0.54127E-03   -0.54132E-03   768   0.130E-02 0.458E-05
CGA:  11    -0.663061676429E+03   -0.20845E-03   -0.20843E-03   768   0.459E-03-0.712E-06
CGA:  12    -0.663061770378E+03   -0.93949E-04   -0.93934E-04   768   0.217E-03 0.788E-06
  33 F= -.66961692E+03 E0= -.66960741E+03  d E =-.325512E-01  mag=     1.0845
       N       E                     dE             d eps       ncg     rms          ort
SDA:   1    -0.662716644142E+03    0.34503E+00    0.00000E+00   768   0.111E+01 0.000E+00
CGA:   2    -0.662896046227E+03   -0.17940E+00   -0.17949E+00   768   0.509E+00 0.122E-02
CGA:   3    -0.662986218442E+03   -0.90172E-01   -0.90145E-01   768   0.345E+00-0.307E-02
CGA:   4    -0.663046366114E+03   -0.60148E-01   -0.60163E-01   768   0.109E+00 0.114E-02
CGA:   5    -0.663064808274E+03   -0.18442E-01   -0.18438E-01   768   0.385E-01-0.124E-03
CGA:   6    -0.663072033158E+03   -0.72249E-02   -0.72234E-02   768   0.189E-01 0.133E-03
CGA:   7    -0.663075407229E+03   -0.33741E-02   -0.33739E-02   768   0.979E-02-0.284E-04
CGA:   8    -0.663077105494E+03   -0.16983E-02   -0.16985E-02   768   0.378E-02 0.156E-04
CGA:   9    -0.663077828322E+03   -0.72283E-03   -0.72290E-03   768   0.132E-02-0.429E-05
CGA:  10    -0.663078060306E+03   -0.23198E-03   -0.23201E-03   768   0.557E-03 0.400E-05
CGA:  11    -0.663078151625E+03   -0.91319E-04   -0.91330E-04   768   0.204E-03 0.716E-06
  34 F= -.66963327E+03 E0= -.66962402E+03  d E =-.163571E-01  mag=     1.0738
       N       E                     dE             d eps       ncg     rms          ort
SDA:   1    -0.662185644672E+03    0.89242E+00    0.00000E+00   768   0.275E+01 0.000E+00
CGA:   2    -0.662632376483E+03   -0.44673E+00   -0.44704E+00   768   0.127E+01 0.522E-02
CGA:   3    -0.662857943697E+03   -0.22557E+00   -0.22550E+00   768   0.865E+00-0.123E-01
CGA:   4    -0.663008418659E+03   -0.15047E+00   -0.15051E+00   768   0.267E+00 0.433E-02
CGA:   5    -0.663054260834E+03   -0.45842E-01   -0.45831E-01   768   0.943E-01-0.588E-03
CGA:   6    -0.663072302135E+03   -0.18041E-01   -0.18032E-01   768   0.451E-01 0.459E-03
CGA:   7    -0.663080563850E+03   -0.82617E-02   -0.82623E-02   768   0.239E-01-0.133E-03
CGA:   8    -0.663084584341E+03   -0.40205E-02   -0.40216E-02   768   0.912E-02 0.502E-04
CGA:   9    -0.663086334464E+03   -0.17501E-02   -0.17504E-02   768   0.300E-02-0.154E-04
CGA:  10    -0.663086886202E+03   -0.55174E-03   -0.55170E-03   768   0.124E-02 0.774E-05
CGA:  11    -0.663087084274E+03   -0.19807E-03   -0.19808E-03   768   0.461E-03 0.581E-06
CGA:  12    -0.663087174239E+03   -0.89965E-04   -0.89944E-04   768   0.180E-03 0.139E-05
  35 F= -.66964217E+03 E0= -.66963325E+03  d E =-.252506E-01  mag=     1.0608
       N       E                     dE             d eps       ncg     rms          ort
SDA:   1    -0.662694202296E+03    0.39288E+00    0.00000E+00   768   0.120E+01 0.000E+00
CGA:   2    -0.662897833471E+03   -0.20363E+00   -0.20369E+00   768   0.631E+00 0.146E-02
CGA:   3    -0.663002264017E+03   -0.10443E+00   -0.10432E+00   768   0.377E+00-0.357E-02
CGA:   4    -0.663069893704E+03   -0.67630E-01   -0.67629E-01   768   0.109E+00 0.898E-03
CGA:   5    -0.663089047410E+03   -0.19154E-01   -0.19153E-01   768   0.378E-01-0.964E-04
CGA:   6    -0.663096300774E+03   -0.72534E-02   -0.72511E-02   768   0.178E-01 0.127E-03
CGA:   7    -0.663099559547E+03   -0.32588E-02   -0.32589E-02   768   0.965E-02-0.172E-04
CGA:   8    -0.663101245034E+03   -0.16855E-02   -0.16857E-02   768   0.416E-02 0.182E-04
CGA:   9    -0.663102049724E+03   -0.80469E-03   -0.80478E-03   768   0.137E-02-0.499E-05
CGA:  10    -0.663102311662E+03   -0.26194E-03   -0.26191E-03   768   0.588E-03 0.254E-05
CGA:  11    -0.663102406573E+03   -0.94911E-04   -0.94890E-04   768   0.241E-03-0.934E-06
  36 F= -.66965789E+03 E0= -.66964926E+03  d E =-.157223E-01  mag=     1.0424
       N       E                     dE             d eps       ncg     rms          ort
SDA:   1    -0.663065310645E+03    0.37001E-01    0.00000E+00   768   0.110E+00 0.000E+00
CGA:   2    -0.663084470799E+03   -0.19160E-01   -0.19161E-01   768   0.566E-01 0.486E-04
CGA:   3    -0.663094059711E+03   -0.95889E-02   -0.95867E-02   768   0.347E-01-0.975E-04
CGA:   4    -0.663100117703E+03   -0.60580E-02   -0.60582E-02   768   0.102E-01 0.760E-05
CGA:   5    -0.663101867536E+03   -0.17498E-02   -0.17498E-02   768   0.342E-02 0.191E-05
CGA:   6    -0.663102539765E+03   -0.67223E-03   -0.67203E-03   768   0.171E-02 0.109E-04
CGA:   7    -0.663102848875E+03   -0.30911E-03   -0.30911E-03   768   0.923E-03 0.314E-05
CGA:   8    -0.663103015668E+03   -0.16679E-03   -0.16679E-03   768   0.405E-03 0.218E-05
CGA:   9    -0.663103094470E+03   -0.78802E-04   -0.78807E-04   768   0.143E-03-0.322E-06
  37 F= -.66965871E+03 E0= -.66965016E+03  d E =-.165471E-01  mag=     1.0363
       N       E                     dE             d eps       ncg     rms          ort
SDA:   1    -0.663006532984E+03    0.96483E-01    0.00000E+00   768   0.284E+00 0.000E+00
CGA:   2    -0.663067463666E+03   -0.60931E-01   -0.60923E-01   768   0.175E+00 0.918E-04
CGA:   3    -0.663093335372E+03   -0.25872E-01   -0.25855E-01   768   0.814E-01-0.230E-03
CGA:   4    -0.663106752389E+03   -0.13417E-01   -0.13417E-01   768   0.183E-01-0.385E-04
CGA:   5    -0.663109969737E+03   -0.32173E-02   -0.32173E-02   768   0.667E-02-0.329E-05
CGA:   6    -0.663111247499E+03   -0.12778E-02   -0.12776E-02   768   0.280E-02 0.913E-05
CGA:   7    -0.663111754175E+03   -0.50668E-03   -0.50667E-03   768   0.150E-02-0.726E-06
CGA:   8    -0.663112027211E+03   -0.27304E-03   -0.27304E-03   768   0.723E-03 0.219E-06
CGA:   9    -0.663112169055E+03   -0.14184E-03   -0.14187E-03   768   0.273E-03-0.171E-05
CGA:  10    -0.663112225333E+03   -0.56278E-04   -0.56251E-04   768   0.130E-03 0.107E-05
  38 F= -.66966814E+03 E0= -.66965978E+03  d E =-.942823E-02  mag=     1.0320
       N       E                     dE             d eps       ncg     rms          ort
SDA:   1    -0.662735686534E+03    0.37648E+00    0.00000E+00   768   0.103E+01 0.000E+00
CGA:   2    -0.662953949385E+03   -0.21826E+00   -0.21822E+00   768   0.652E+00 0.567E-03
CGA:   3    -0.663049222179E+03   -0.95273E-01   -0.95170E-01   768   0.294E+00-0.139E-02
CGA:   4    -0.663098828459E+03   -0.49606E-01   -0.49609E-01   768   0.661E-01-0.445E-04
CGA:   5    -0.663110479170E+03   -0.11651E-01   -0.11650E-01   768   0.240E-01-0.543E-04
CGA:   6    -0.663115099367E+03   -0.46202E-02   -0.46196E-02   768   0.998E-02 0.355E-04
CGA:   7    -0.663116920975E+03   -0.18216E-02   -0.18216E-02   768   0.538E-02-0.872E-05
CGA:   8    -0.663117891230E+03   -0.97026E-03   -0.97026E-03   768   0.259E-02 0.342E-05
CGA:   9    -0.663118390971E+03   -0.49974E-03   -0.49979E-03   768   0.957E-03-0.385E-05
CGA:  10    -0.663118591114E+03   -0.20014E-03   -0.20008E-03   768   0.435E-03 0.229E-05
CGA:  11    -0.663118662391E+03   -0.71277E-04   -0.71279E-04   768   0.187E-03 0.121E-06
  39 F= -.66967509E+03 E0= -.66966715E+03  d E =-.163745E-01  mag=     1.0250
       N       E                     dE             d eps       ncg     rms          ort
SDA:   1    -0.663015924762E+03    0.10267E+00    0.00000E+00   768   0.314E+00 0.000E+00
CGA:   2    -0.663072948444E+03   -0.57024E-01   -0.57024E-01   768   0.180E+00 0.201E-03
CGA:   3    -0.663102788508E+03   -0.29840E-01   -0.29826E-01   768   0.942E-01-0.506E-03
CGA:   4    -0.663118595295E+03   -0.15807E-01   -0.15807E-01   768   0.258E-01-0.359E-04
CGA:   5    -0.663123021271E+03   -0.44260E-02   -0.44255E-02   768   0.856E-02-0.273E-04
CGA:   6    -0.663124728045E+03   -0.17068E-02   -0.17064E-02   768   0.401E-02 0.133E-04
CGA:   7    -0.663125484029E+03   -0.75598E-03   -0.75601E-03   768   0.216E-02-0.448E-06
CGA:   8    -0.663125860456E+03   -0.37643E-03   -0.37645E-03   768   0.101E-02 0.212E-05
CGA:   9    -0.663126052415E+03   -0.19196E-03   -0.19198E-03   768   0.330E-03-0.291E-05
CGA:  10    -0.663126119961E+03   -0.67546E-04   -0.67549E-04   768   0.144E-03-0.203E-06
  40 F= -.66968280E+03 E0= -.66967489E+03  d E =-.771097E-02  mag=     1.0197
       N       E                     dE             d eps       ncg     rms          ort
SDA:   1    -0.662952948004E+03    0.17310E+00    0.00000E+00   768   0.507E+00 0.000E+00
CGA:   2    -0.663043671444E+03   -0.90723E-01   -0.90728E-01   768   0.292E+00 0.378E-03
CGA:   3    -0.663091758877E+03   -0.48087E-01   -0.48056E-01   768   0.151E+00-0.103E-02
CGA:   4    -0.663117495541E+03   -0.25737E-01   -0.25738E-01   768   0.411E-01-0.381E-04
CGA:   5    -0.663124530999E+03   -0.70355E-02   -0.70345E-02   768   0.139E-01-0.545E-04
CGA:   6    -0.663127304132E+03   -0.27731E-02   -0.27726E-02   768   0.637E-02 0.211E-04
CGA:   7    -0.663128519865E+03   -0.12157E-02   -0.12158E-02   768   0.342E-02-0.388E-05
CGA:   8    -0.663129110673E+03   -0.59081E-03   -0.59086E-03   768   0.163E-02 0.351E-05
CGA:   9    -0.663129414562E+03   -0.30389E-03   -0.30391E-03   768   0.527E-03-0.397E-05
CGA:  10    -0.663129523219E+03   -0.10866E-03   -0.10866E-03   768   0.221E-03-0.233E-06
CGA:  11    -0.663129560715E+03   -0.37496E-04   -0.37486E-04   768   0.103E-03-0.726E-06
  41 F= -.66968654E+03 E0= -.66967869E+03  d E =-.114555E-01  mag=     1.0129
       N       E                     dE             d eps       ncg     rms          ort
SDA:   1    -0.662994775362E+03    0.13475E+00    0.00000E+00   768   0.381E+00 0.000E+00
CGA:   2    -0.663072638657E+03   -0.77863E-01   -0.77846E-01   768   0.235E+00 0.354E-03
CGA:   3    -0.663111051929E+03   -0.38413E-01   -0.38393E-01   768   0.108E+00-0.581E-03
CGA:   4    -0.663127771370E+03   -0.16719E-01   -0.16722E-01   768   0.289E-01-0.346E-04
CGA:   5    -0.663132813419E+03   -0.50420E-02   -0.50416E-02   768   0.101E-01-0.373E-04
CGA:   6    -0.663134815563E+03   -0.20021E-02   -0.20019E-02   768   0.459E-02 0.672E-05
CGA:   7    -0.663135691018E+03   -0.87545E-03   -0.87555E-03   768   0.255E-02-0.651E-05
CGA:   8    -0.663136131438E+03   -0.44042E-03   -0.44044E-03   768   0.117E-02 0.636E-06
CGA:   9    -0.663136350849E+03   -0.21941E-03   -0.21943E-03   768   0.395E-03-0.269E-05
CGA:  10    -0.663136432310E+03   -0.81461E-04   -0.81436E-04   768   0.162E-03 0.937E-06
  42 F= -.66969341E+03 E0= -.66968546E+03  d E =-.686869E-02  mag=     1.0115
       N       E                     dE             d eps       ncg     rms          ort
SDA:   1    -0.663033044936E+03    0.10331E+00    0.00000E+00   768   0.285E+00 0.000E+00
CGA:   2    -0.663090728652E+03   -0.57684E-01   -0.57673E-01   768   0.176E+00 0.242E-03
CGA:   3    -0.663119339048E+03   -0.28610E-01   -0.28595E-01   768   0.806E-01-0.395E-03
CGA:   4    -0.663131958602E+03   -0.12620E-01   -0.12621E-01   768   0.216E-01-0.285E-04
CGA:   5    -0.663135689963E+03   -0.37314E-02   -0.37310E-02   768   0.772E-02-0.245E-04
CGA:   6    -0.663137216365E+03   -0.15264E-02   -0.15263E-02   768   0.347E-02 0.474E-05
CGA:   7    -0.663137879528E+03   -0.66316E-03   -0.66323E-03   768   0.192E-02-0.437E-05
CGA:   8    -0.663138211655E+03   -0.33213E-03   -0.33214E-03   768   0.877E-03 0.293E-06
CGA:   9    -0.663138376488E+03   -0.16483E-03   -0.16485E-03   768   0.299E-03-0.219E-05
CGA:  10    -0.663138437744E+03   -0.61257E-04   -0.61238E-04   768   0.123E-03 0.745E-06
  43 F= -.66969541E+03 E0= -.66968739E+03  d E =-.886180E-02  mag=     1.0104
       N       E                     dE             d eps       ncg     rms          ort
SDA:   1    -0.663019643527E+03    0.11873E+00    0.00000E+00   768   0.310E+00 0.000E+00
CGA:   2    -0.663092990214E+03   -0.73347E-01   -0.73326E-01   768   0.208E+00 0.211E-03
CGA:   3    -0.663125420117E+03   -0.32430E-01   -0.32406E-01   768   0.856E-01-0.383E-03
CGA:   4    -0.663138094727E+03   -0.12675E-01   -0.12678E-01   768   0.221E-01-0.211E-04
CGA:   5    -0.663141966307E+03   -0.38716E-02   -0.38713E-02   768   0.765E-02-0.220E-04
CGA:   6    -0.663143421265E+03   -0.14550E-02   -0.14549E-02   768   0.349E-02 0.383E-05
CGA:   7    -0.663144091481E+03   -0.67022E-03   -0.67028E-03   768   0.191E-02-0.402E-05
CGA:   8    -0.663144421103E+03   -0.32962E-03   -0.32963E-03   768   0.890E-03 0.437E-06
CGA:   9    -0.663144596736E+03   -0.17563E-03   -0.17567E-03   768   0.327E-03-0.190E-05
CGA:  10    -0.663144662246E+03   -0.65510E-04   -0.65497E-04   768   0.139E-03 0.655E-06
  44 F= -.66970169E+03 E0= -.66969375E+03  d E =-.628341E-02  mag=     1.0065
       N       E                     dE             d eps       ncg     rms          ort
SDA:   1    -0.662848573121E+03    0.29602E+00    0.00000E+00   768   0.742E+00 0.000E+00
CGA:   2    -0.663024429790E+03   -0.17586E+00   -0.17578E+00   768   0.496E+00 0.763E-03
CGA:   3    -0.663102208326E+03   -0.77779E-01   -0.77691E-01   768   0.205E+00-0.139E-02
CGA:   4    -0.663132400545E+03   -0.30192E-01   -0.30206E-01   768   0.529E-01-0.338E-04
CGA:   5    -0.663141698886E+03   -0.92983E-02   -0.92974E-02   768   0.182E-01-0.850E-04
CGA:   6    -0.663145153926E+03   -0.34550E-02   -0.34548E-02   768   0.830E-02 0.116E-04
CGA:   7    -0.663146751839E+03   -0.15979E-02   -0.15981E-02   768   0.453E-02-0.132E-04
CGA:   8    -0.663147530787E+03   -0.77895E-03   -0.77900E-03   768   0.212E-02 0.219E-05
CGA:   9    -0.663147948226E+03   -0.41744E-03   -0.41751E-03   768   0.773E-03-0.380E-05
CGA:  10    -0.663148104014E+03   -0.15579E-03   -0.15576E-03   768   0.329E-03 0.113E-05
CGA:  11    -0.663148158163E+03   -0.54149E-04   -0.54141E-04   768   0.143E-03-0.407E-06
  45 F= -.66970526E+03 E0= -.66969742E+03  d E =-.985472E-02  mag=     1.0002
       N       E                     dE             d eps       ncg     rms          ort
SDA:   1    -0.663068562119E+03    0.79542E-01    0.00000E+00   768   0.206E+00 0.000E+00
CGA:   2    -0.663120717488E+03   -0.52155E-01   -0.52150E-01   768   0.129E+00 0.515E-04
CGA:   3    -0.663141127926E+03   -0.20410E-01   -0.20408E-01   768   0.535E-01-0.481E-04
CGA:   4    -0.663148833657E+03   -0.77057E-02   -0.77062E-02   768   0.134E-01-0.409E-05
CGA:   5    -0.663151210098E+03   -0.23764E-02   -0.23764E-02   768   0.445E-02-0.177E-05
CGA:   6    -0.663152138625E+03   -0.92853E-03   -0.92862E-03   768   0.193E-02-0.339E-05
CGA:   7    -0.663152575840E+03   -0.43722E-03   -0.43733E-03   768   0.851E-03-0.268E-05
CGA:   8    -0.663152781002E+03   -0.20516E-03   -0.20519E-03   768   0.338E-03-0.578E-06
CGA:   9    -0.663152860319E+03   -0.79318E-04   -0.79295E-04   768   0.121E-03 0.518E-06
  46 F= -.66970994E+03 E0= -.66970226E+03  d E =-.467608E-02  mag=     0.9990
       N       E                     dE             d eps       ncg     rms          ort
SDA:   1    -0.662403353761E+03    0.74943E+00    0.00000E+00   768   0.185E+01 0.000E+00
CGA:   2    -0.662871875690E+03   -0.46852E+00   -0.46833E+00   768   0.116E+01 0.197E-02
CGA:   3    -0.663055860795E+03   -0.18399E+00   -0.18387E+00   768   0.477E+00-0.145E-02
CGA:   4    -0.663124616120E+03   -0.68755E-01   -0.68794E-01   768   0.119E+00-0.653E-04
CGA:   5    -0.663146010987E+03   -0.21395E-01   -0.21393E-01   768   0.409E-01-0.110E-03
CGA:   6    -0.663154357972E+03   -0.83470E-02   -0.83471E-02   768   0.175E-01-0.134E-04
CGA:   7    -0.663158258882E+03   -0.39009E-02   -0.39021E-02   768   0.788E-02-0.269E-04
CGA:   8    -0.663159983400E+03   -0.17245E-02   -0.17241E-02   768   0.403E-02 0.901E-05
CGA:   9    -0.663160627500E+03   -0.64410E-03   -0.64392E-03   768   0.193E-02-0.194E-05
CGA:  10    -0.663160950269E+03   -0.32277E-03   -0.32287E-03   768   0.572E-03 0.327E-05
CGA:  11    -0.663161078575E+03   -0.12831E-03   -0.12830E-03   768   0.188E-03 0.244E-06
CGA:  12    -0.663161115771E+03   -0.37196E-04   -0.37192E-04   768   0.114E-03 0.758E-06
  47 F= -.66971811E+03 E0= -.66971093E+03  d E =-.128505E-01  mag=     0.9968
       N       E                     dE             d eps       ncg     rms          ort
SDA:   1    -0.662982742163E+03    0.17834E+00    0.00000E+00   768   0.439E+00 0.000E+00
CGA:   2    -0.663093982417E+03   -0.11124E+00   -0.11122E+00   768   0.274E+00 0.226E-03
CGA:   3    -0.663137369777E+03   -0.43387E-01   -0.43370E-01   768   0.113E+00-0.208E-03
CGA:   4    -0.663153696952E+03   -0.16327E-01   -0.16332E-01   768   0.282E-01-0.756E-05
CGA:   5    -0.663158772320E+03   -0.50754E-02   -0.50751E-02   768   0.956E-02-0.139E-04
CGA:   6    -0.663160694764E+03   -0.19224E-02   -0.19225E-02   768   0.425E-02-0.257E-05
CGA:   7    -0.663161608388E+03   -0.91362E-03   -0.91384E-03   768   0.206E-02-0.622E-05
CGA:   8    -0.663162003619E+03   -0.39523E-03   -0.39523E-03   768   0.119E-02 0.813E-06
CGA:   9    -0.663162188551E+03   -0.18493E-03   -0.18489E-03   768   0.445E-03-0.632E-06
CGA:  10    -0.663162277736E+03   -0.89185E-04   -0.89168E-04   768   0.141E-03 0.146E-05
  48 F= -.66971923E+03 E0= -.66971229E+03  d E =-.139725E-01  mag=     0.9958
       N       E                     dE             d eps       ncg     rms          ort
SDA:   1    -0.662915661073E+03    0.24653E+00    0.00000E+00   768   0.649E+00 0.000E+00
CGA:   2    -0.663061910137E+03   -0.14625E+00   -0.14625E+00   768   0.393E+00-0.559E-04
CGA:   3    -0.663127082696E+03   -0.65173E-01   -0.65170E-01   768   0.186E+00-0.785E-04
CGA:   4    -0.663154641619E+03   -0.27559E-01   -0.27560E-01   768   0.483E-01 0.394E-05
CGA:   5    -0.663163418037E+03   -0.87764E-02   -0.87765E-02   768   0.170E-01 0.212E-05
CGA:   6    -0.663166898610E+03   -0.34806E-02   -0.34809E-02   768   0.760E-02-0.163E-04
CGA:   7    -0.663168590691E+03   -0.16921E-02   -0.16919E-02   768   0.354E-02 0.231E-05
CGA:   8    -0.663169297291E+03   -0.70660E-03   -0.70665E-03   768   0.192E-02-0.337E-05
CGA:   9    -0.663169584914E+03   -0.28762E-03   -0.28774E-03   768   0.749E-03 0.197E-05
CGA:  10    -0.663169723058E+03   -0.13814E-03   -0.13814E-03   768   0.222E-03-0.167E-06
CGA:  11    -0.663169772196E+03   -0.49138E-04   -0.49114E-04   768   0.853E-04 0.750E-06
  49 F= -.66972671E+03 E0= -.66972007E+03  d E =-.747515E-02  mag=     0.9928
       N       E                     dE             d eps       ncg     rms          ort
SDA:   1    -0.662992389711E+03    0.17733E+00    0.00000E+00   768   0.458E+00 0.000E+00
CGA:   2    -0.663095756688E+03   -0.10337E+00   -0.10337E+00   768   0.277E+00-0.430E-04
CGA:   3    -0.663141635651E+03   -0.45879E-01   -0.45877E-01   768   0.131E+00-0.453E-04
CGA:   4    -0.663161022764E+03   -0.19387E-01   -0.19388E-01   768   0.339E-01 0.681E-05
CGA:   5    -0.663167224843E+03   -0.62021E-02   -0.62021E-02   768   0.118E-01 0.213E-05
CGA:   6    -0.663169643867E+03   -0.24190E-02   -0.24193E-02   768   0.534E-02-0.104E-04
CGA:   7    -0.663170829556E+03   -0.11857E-02   -0.11856E-02   768   0.247E-02 0.105E-05
CGA:   8    -0.663171327370E+03   -0.49781E-03   -0.49785E-03   768   0.135E-02-0.185E-05
CGA:   9    -0.663171528198E+03   -0.20083E-03   -0.20091E-03   768   0.529E-03 0.155E-05
CGA:  10    -0.663171625611E+03   -0.97413E-04   -0.97412E-04   768   0.158E-03-0.116E-06
  50 F= -.66972854E+03 E0= -.66972214E+03  d E =-.930492E-02  mag=     0.9904
       N       E                     dE             d eps       ncg     rms          ort
SDA:   1    -0.662873477084E+03    0.29805E+00    0.00000E+00   768   0.830E+00 0.000E+00
CGA:   2    -0.663040524332E+03   -0.16705E+00   -0.16706E+00   768   0.466E+00-0.428E-03
CGA:   3    -0.663117761969E+03   -0.77238E-01   -0.77289E-01   768   0.241E+00 0.866E-03
CGA:   4    -0.663155914258E+03   -0.38152E-01   -0.38138E-01   768   0.681E-01-0.682E-04
CGA:   5    -0.663168109198E+03   -0.12195E-01   -0.12196E-01   768   0.255E-01 0.790E-04
CGA:   6    -0.663173106598E+03   -0.49974E-02   -0.49981E-02   768   0.126E-01-0.513E-04
CGA:   7    -0.663175448097E+03   -0.23415E-02   -0.23415E-02   768   0.686E-02 0.788E-05
CGA:   8    -0.663176597201E+03   -0.11491E-02   -0.11488E-02   768   0.283E-02-0.677E-05
CGA:   9    -0.663177129515E+03   -0.53231E-03   -0.53231E-03   768   0.926E-03 0.462E-05
CGA:  10    -0.663177311266E+03   -0.18175E-03   -0.18175E-03   768   0.363E-03 0.608E-06
CGA:  11    -0.663177368489E+03   -0.57223E-04   -0.57266E-04   768   0.155E-03 0.144E-05
  51 F= -.66973396E+03 E0= -.66972773E+03  d E =-.542001E-02  mag=     0.9912
       N       E                     dE             d eps       ncg     rms          ort
SDA:   1    -0.663077684369E+03    0.99627E-01    0.00000E+00   768   0.275E+00 0.000E+00
CGA:   2    -0.663133102358E+03   -0.55418E-01   -0.55421E-01   768   0.154E+00-0.919E-04
CGA:   3    -0.663158669130E+03   -0.25567E-01   -0.25574E-01   768   0.800E-01 0.152E-03
CGA:   4    -0.663171272812E+03   -0.12604E-01   -0.12602E-01   768   0.225E-01-0.100E-05
CGA:   5    -0.663175313250E+03   -0.40404E-02   -0.40406E-02   768   0.828E-02 0.150E-04
CGA:   6    -0.663176961975E+03   -0.16487E-02   -0.16490E-02   768   0.412E-02-0.137E-04
CGA:   7    -0.663177736335E+03   -0.77436E-03   -0.77435E-03   768   0.227E-02-0.396E-06
CGA:   8    -0.663178110608E+03   -0.37427E-03   -0.37421E-03   768   0.952E-03-0.157E-05
CGA:   9    -0.663178287609E+03   -0.17700E-03   -0.17700E-03   768   0.308E-03 0.207E-05
CGA:  10    -0.663178349546E+03   -0.61937E-04   -0.61928E-04   768   0.119E-03 0.547E-06
  52 F= -.66973475E+03 E0= -.66972862E+03  d E =-.621477E-02  mag=     0.9917
       N       E                     dE             d eps       ncg     rms          ort
SDA:   1    -0.662824077061E+03    0.35421E+00    0.00000E+00   768   0.101E+01 0.000E+00
CGA:   2    -0.663015830911E+03   -0.19175E+00   -0.19176E+00   768   0.537E+00-0.552E-03
CGA:   3    -0.663107906205E+03   -0.92075E-01   -0.92098E-01   768   0.300E+00 0.916E-03
CGA:   4    -0.663156752859E+03   -0.48847E-01   -0.48835E-01   768   0.901E-01-0.172E-03
CGA:   5    -0.663173045424E+03   -0.16293E-01   -0.16293E-01   768   0.338E-01 0.114E-03
CGA:   6    -0.663179649166E+03   -0.66037E-02   -0.66053E-02   768   0.162E-01-0.765E-04
CGA:   7    -0.663182709967E+03   -0.30608E-02   -0.30606E-02   768   0.880E-02 0.167E-04
CGA:   8    -0.663184129109E+03   -0.14191E-02   -0.14187E-02   768   0.364E-02-0.826E-05
CGA:   9    -0.663184799387E+03   -0.67028E-03   -0.67026E-03   768   0.114E-02 0.518E-05
CGA:  10    -0.663185025871E+03   -0.22648E-03   -0.22649E-03   768   0.422E-03-0.253E-06
CGA:  11    -0.663185094643E+03   -0.68772E-04   -0.68794E-04   768   0.195E-03 0.110E-05
  53 F= -.66974116E+03 E0= -.66973509E+03  d E =-.640482E-02  mag=     0.9908
       N       E                     dE             d eps       ncg     rms          ort
SDA:   1    -0.662788428642E+03    0.39660E+00    0.00000E+00   768   0.112E+01 0.000E+00
CGA:   2    -0.663000655708E+03   -0.21223E+00   -0.21223E+00   768   0.592E+00-0.540E-03
CGA:   3    -0.663102379014E+03   -0.10172E+00   -0.10174E+00   768   0.331E+00 0.799E-03
CGA:   4    -0.663156249528E+03   -0.53871E-01   -0.53861E-01   768   0.995E-01-0.175E-03
CGA:   5    -0.663174330855E+03   -0.18081E-01   -0.18081E-01   768   0.367E-01 0.109E-03
CGA:   6    -0.663181582960E+03   -0.72521E-02   -0.72544E-02   768   0.175E-01-0.868E-04
CGA:   7    -0.663184951978E+03   -0.33690E-02   -0.33686E-02   768   0.957E-02 0.184E-04
CGA:   8    -0.663186477102E+03   -0.15251E-02   -0.15246E-02   768   0.408E-02-0.899E-05
CGA:   9    -0.663187212556E+03   -0.73545E-03   -0.73546E-03   768   0.126E-02 0.557E-05
CGA:  10    -0.663187466550E+03   -0.25399E-03   -0.25401E-03   768   0.453E-03-0.361E-06
CGA:  11    -0.663187542587E+03   -0.76037E-04   -0.76052E-04   768   0.223E-03 0.110E-05
  54 F= -.66974326E+03 E0= -.66973724E+03  d E =-.850413E-02  mag=     0.9898
       N       E                     dE             d eps       ncg     rms          ort
SDA:   1    -0.662824230908E+03    0.36324E+00    0.00000E+00   768   0.102E+01 0.000E+00
CGA:   2    -0.663029088702E+03   -0.20486E+00   -0.20488E+00   768   0.562E+00-0.668E-03
CGA:   3    -0.663121007065E+03   -0.91918E-01   -0.91959E-01   768   0.283E+00 0.103E-02
CGA:   4    -0.663166523670E+03   -0.45517E-01   -0.45504E-01   768   0.855E-01-0.187E-03
CGA:   5    -0.663181778394E+03   -0.15255E-01   -0.15255E-01   768   0.310E-01 0.106E-03
CGA:   6    -0.663187795757E+03   -0.60174E-02   -0.60191E-02   768   0.155E-01-0.732E-04
CGA:   7    -0.663190632196E+03   -0.28364E-02   -0.28364E-02   768   0.839E-02 0.871E-05
CGA:   8    -0.663192030878E+03   -0.13987E-02   -0.13984E-02   768   0.349E-02-0.106E-04
CGA:   9    -0.663192694075E+03   -0.66320E-03   -0.66313E-03   768   0.116E-02 0.507E-05
CGA:  10    -0.663192919390E+03   -0.22531E-03   -0.22532E-03   768   0.468E-03 0.546E-07
CGA:  11    -0.663192992153E+03   -0.72763E-04   -0.72799E-04   768   0.199E-03 0.140E-05
  55 F= -.66974840E+03 E0= -.66974247E+03  d E =-.514831E-02  mag=     0.9905
       N       E                     dE             d eps       ncg     rms          ort
SDA:   1    -0.663060469962E+03    0.13245E+00    0.00000E+00   768   0.368E+00 0.000E+00
CGA:   2    -0.663134676110E+03   -0.74206E-01   -0.74213E-01   768   0.204E+00-0.173E-03
CGA:   3    -0.663167913454E+03   -0.33237E-01   -0.33247E-01   768   0.103E+00 0.240E-03
CGA:   4    -0.663184426058E+03   -0.16513E-01   -0.16510E-01   768   0.310E-01-0.266E-04
CGA:   5    -0.663189950220E+03   -0.55242E-02   -0.55242E-02   768   0.112E-01 0.256E-04
CGA:   6    -0.663192133057E+03   -0.21828E-02   -0.21833E-02   768   0.562E-02-0.195E-04
CGA:   7    -0.663193163143E+03   -0.10301E-02   -0.10301E-02   768   0.307E-02-0.446E-06
CGA:   8    -0.663193674375E+03   -0.51123E-03   -0.51116E-03   768   0.127E-02-0.295E-05
CGA:   9    -0.663193916883E+03   -0.24251E-03   -0.24248E-03   768   0.425E-03 0.221E-05
CGA:  10    -0.663193999974E+03   -0.83091E-04   -0.83088E-04   768   0.175E-03 0.291E-06
  56 F= -.66974924E+03 E0= -.66974336E+03  d E =-.597896E-02  mag=     0.9910
       N       E                     dE             d eps       ncg     rms          ort
SDA:   1    -0.662841217068E+03    0.35270E+00    0.00000E+00   768   0.959E+00 0.000E+00
CGA:   2    -0.663055120702E+03   -0.21390E+00   -0.21394E+00   768   0.519E+00-0.601E-03
CGA:   3    -0.663139512071E+03   -0.84391E-01   -0.84405E-01   768   0.240E+00 0.241E-03
CGA:   4    -0.663176686778E+03   -0.37175E-01   -0.37167E-01   768   0.709E-01-0.101E-03
CGA:   5    -0.663189175445E+03   -0.12489E-01   -0.12489E-01   768   0.237E-01 0.406E-04
CGA:   6    -0.663193767559E+03   -0.45921E-02   -0.45929E-02   768   0.109E-01-0.343E-04
CGA:   7    -0.663195915267E+03   -0.21477E-02   -0.21475E-02   768   0.590E-02 0.470E-05
CGA:   8    -0.663196874120E+03   -0.95885E-03   -0.95861E-03   768   0.286E-02-0.660E-05
CGA:   9    -0.663197408502E+03   -0.53438E-03   -0.53436E-03   768   0.993E-03 0.283E-05
CGA:  10    -0.663197615273E+03   -0.20677E-03   -0.20680E-03   768   0.369E-03-0.691E-06
CGA:  11    -0.663197680067E+03   -0.64794E-04   -0.64799E-04   768   0.188E-03 0.855E-06
  57 F= -.66975314E+03 E0= -.66974735E+03  d E =-.390543E-02  mag=     0.9870
       N       E                     dE             d eps       ncg     rms          ort
SDA:   1    -0.663197671762E+03   -0.56490E-04    0.00000E+00   768   0.204E-03 0.000E+00
CGA:   2    -0.663197701789E+03   -0.30027E-04   -0.30026E-04   768   0.129E-03-0.364E-07
  58 F= -.66975316E+03 E0= -.66974736E+03  d E =-.392481E-02  mag=     0.9870
       N       E                     dE             d eps       ncg     rms          ort
SDA:   1    -0.663197699019E+03   -0.27257E-04    0.00000E+00   768   0.182E-03 0.000E+00
CGA:   2    -0.663197725110E+03   -0.26090E-04   -0.26060E-04   768   0.603E-04-0.861E-06
  59 F= -.66975319E+03 E0= -.66974739E+03  d E =-.395033E-02  mag=     0.9870
       N       E                     dE             d eps       ncg     rms          ort
SDA:   1    -0.662919360214E+03    0.27834E+00    0.00000E+00   768   0.750E+00 0.000E+00
CGA:   2    -0.663110104469E+03   -0.19074E+00   -0.19073E+00   768   0.353E+00 0.159E-03
CGA:   3    -0.663167700741E+03   -0.57596E-01   -0.57598E-01   768   0.153E+00-0.636E-05
CGA:   4    -0.663190488886E+03   -0.22788E-01   -0.22787E-01   768   0.421E-01-0.235E-04
CGA:   5    -0.663197643062E+03   -0.71542E-02   -0.71543E-02   768   0.124E-01 0.752E-05
CGA:   6    -0.663200069537E+03   -0.24265E-02   -0.24267E-02   768   0.494E-02-0.808E-05
CGA:   7    -0.663201119755E+03   -0.10502E-02   -0.10503E-02   768   0.229E-02-0.412E-05
CGA:   8    -0.663201561940E+03   -0.44218E-03   -0.44227E-03   768   0.140E-02-0.462E-05
CGA:   9    -0.663201783335E+03   -0.22140E-03   -0.22142E-03   768   0.581E-03 0.107E-05
CGA:  10    -0.663201905058E+03   -0.12172E-03   -0.12171E-03   768   0.192E-03 0.429E-06
CGA:  11    -0.663201947869E+03   -0.42811E-04   -0.42770E-04   768   0.885E-04 0.980E-06
  60 F= -.66975791E+03 E0= -.66975220E+03  d E =-.472857E-02  mag=     0.9860
       N       E                     dE             d eps       ncg     rms          ort
SDA:   1    -0.663164445415E+03    0.37460E-01    0.00000E+00   768   0.101E+00 0.000E+00
CGA:   2    -0.663190132468E+03   -0.25687E-01   -0.25686E-01   768   0.474E-01 0.436E-05
CGA:   3    -0.663197898479E+03   -0.77660E-02   -0.77656E-02   768   0.207E-01-0.144E-04
CGA:   4    -0.663200966632E+03   -0.30682E-02   -0.30682E-02   768   0.572E-02-0.156E-05
CGA:   5    -0.663201935450E+03   -0.96882E-03   -0.96883E-03   768   0.161E-02 0.159E-05
CGA:   6    -0.663202264061E+03   -0.32861E-03   -0.32864E-03   768   0.653E-03-0.132E-05
CGA:   7    -0.663202407512E+03   -0.14345E-03   -0.14355E-03   768   0.284E-03-0.258E-05
CGA:   8    -0.663202473294E+03   -0.65782E-04   -0.65822E-04   768   0.144E-03-0.865E-06
  61 F= -.66975862E+03 E0= -.66975294E+03  d E =-.543740E-02  mag=     0.9856
       N       E                     dE             d eps       ncg     rms          ort
SDA:   1    -0.663049629483E+03    0.15278E+00    0.00000E+00   768   0.406E+00 0.000E+00
CGA:   2    -0.663152265963E+03   -0.10264E+00   -0.10263E+00   768   0.190E+00 0.762E-04
CGA:   3    -0.663183448909E+03   -0.31183E-01   -0.31181E-01   768   0.826E-01-0.485E-04
CGA:   4    -0.663195721945E+03   -0.12273E-01   -0.12273E-01   768   0.223E-01-0.630E-05
CGA:   5    -0.663199595296E+03   -0.38734E-02   -0.38733E-02   768   0.672E-02 0.117E-05
CGA:   6    -0.663200915203E+03   -0.13199E-02   -0.13199E-02   768   0.266E-02-0.286E-05
CGA:   7    -0.663201506059E+03   -0.59086E-03   -0.59103E-03   768   0.110E-02-0.483E-05
CGA:   8    -0.663201776465E+03   -0.27041E-03   -0.27053E-03   768   0.470E-03-0.205E-05
CGA:   9    -0.663201892860E+03   -0.11640E-03   -0.11634E-03   768   0.177E-03 0.860E-06
CGA:  10    -0.663201932951E+03   -0.40091E-04   -0.40079E-04   768   0.805E-04 0.383E-06
  62 F= -.66975845E+03 E0= -.66975283E+03  d E =-.525931E-02  mag=     0.9848
       N       E                     dE             d eps       ncg     rms          ort
SDA:   1    -0.663148955157E+03    0.52938E-01    0.00000E+00   768   0.143E+00 0.000E+00
CGA:   2    -0.663185134205E+03   -0.36179E-01   -0.36180E-01   768   0.665E-01-0.413E-05
CGA:   3    -0.663196099013E+03   -0.10965E-01   -0.10965E-01   768   0.289E-01 0.147E-04
CGA:   4    -0.663200409155E+03   -0.43101E-02   -0.43103E-02   768   0.788E-02 0.281E-05
CGA:   5    -0.663201760586E+03   -0.13514E-02   -0.13514E-02   768   0.237E-02-0.147E-05
CGA:   6    -0.663202211584E+03   -0.45100E-03   -0.45100E-03   768   0.910E-03 0.179E-05
CGA:   7    -0.663202411453E+03   -0.19987E-03   -0.19979E-03   768   0.374E-03 0.296E-05
CGA:   8    -0.663202499340E+03   -0.87887E-04   -0.87823E-04   768   0.184E-03 0.149E-05
  63 F= -.66975880E+03 E0= -.66975314E+03  d E =-.561165E-02  mag=     0.9851
       N       E                     dE             d eps       ncg     rms          ort
SDA:   1    -0.662871440932E+03    0.33097E+00    0.00000E+00   768   0.907E+00 0.000E+00
CGA:   2    -0.663097816124E+03   -0.22638E+00   -0.22638E+00   768   0.419E+00-0.185E-03
CGA:   3    -0.663165663039E+03   -0.67847E-01   -0.67800E-01   768   0.186E+00-0.549E-03
CGA:   4    -0.663192935160E+03   -0.27272E-01   -0.27287E-01   768   0.523E-01-0.362E-04
CGA:   5    -0.663201492703E+03   -0.85575E-02   -0.85552E-02   768   0.154E-01-0.286E-04
CGA:   6    -0.663204177527E+03   -0.26848E-02   -0.26849E-02   768   0.649E-02 0.229E-05
CGA:   7    -0.663205327481E+03   -0.11500E-02   -0.11498E-02   768   0.313E-02-0.710E-05
CGA:   8    -0.663205891546E+03   -0.56406E-03   -0.56405E-03   768   0.144E-02-0.212E-05
CGA:   9    -0.663206191261E+03   -0.29972E-03   -0.29977E-03   768   0.665E-03-0.246E-05
CGA:  10    -0.663206319838E+03   -0.12858E-03   -0.12857E-03   768   0.324E-03 0.141E-05
CGA:  11    -0.663206373806E+03   -0.53968E-04   -0.53963E-04   768   0.125E-03-0.134E-06
  64 F= -.66976358E+03 E0= -.66975779E+03  d E =-.477889E-02  mag=     0.9818
       N       E                     dE             d eps       ncg     rms          ort
SDA:   1    -0.663107249881E+03    0.99070E-01    0.00000E+00   768   0.269E+00 0.000E+00
CGA:   2    -0.663174560474E+03   -0.67311E-01   -0.67314E-01   768   0.122E+00-0.444E-04
CGA:   3    -0.663194681378E+03   -0.20121E-01   -0.20116E-01   768   0.537E-01-0.926E-04
CGA:   4    -0.663202599268E+03   -0.79179E-02   -0.79196E-02   768   0.151E-01-0.861E-05
CGA:   5    -0.663205095562E+03   -0.24963E-02   -0.24961E-02   768   0.438E-02 0.121E-06
CGA:   6    -0.663205898220E+03   -0.80266E-03   -0.80266E-03   768   0.190E-02 0.108E-05
CGA:   7    -0.663206237317E+03   -0.33910E-03   -0.33907E-03   768   0.971E-03-0.290E-05
CGA:   8    -0.663206405536E+03   -0.16822E-03   -0.16820E-03   768   0.454E-03-0.152E-05
CGA:   9    -0.663206500312E+03   -0.94776E-04   -0.94803E-04   768   0.200E-03-0.113E-05
  65 F= -.66976419E+03 E0= -.66975832E+03  d E =-.539259E-02  mag=     0.9798
       N       E                     dE             d eps       ncg     rms          ort
SDA:   1    -0.662994212059E+03    0.21219E+00    0.00000E+00   768   0.579E+00 0.000E+00
CGA:   2    -0.663145853866E+03   -0.15164E+00   -0.15161E+00   768   0.242E+00 0.297E-03
CGA:   3    -0.663186840643E+03   -0.40987E-01   -0.40981E-01   768   0.112E+00-0.135E-03
CGA:   4    -0.663202442571E+03   -0.15602E-01   -0.15608E-01   768   0.285E-01-0.205E-04
CGA:   5    -0.663207119428E+03   -0.46769E-02   -0.46765E-02   768   0.891E-02-0.187E-05
CGA:   6    -0.663208609546E+03   -0.14901E-02   -0.14901E-02   768   0.363E-02-0.108E-05
CGA:   7    -0.663209254111E+03   -0.64456E-03   -0.64452E-03   768   0.166E-02-0.484E-05
CGA:   8    -0.663209558425E+03   -0.30431E-03   -0.30431E-03   768   0.768E-03-0.227E-05
CGA:   9    -0.663209715732E+03   -0.15731E-03   -0.15734E-03   768   0.388E-03-0.151E-05
CGA:  10    -0.663209788373E+03   -0.72641E-04   -0.72641E-04   768   0.183E-03 0.104E-05
  66 F= -.66976819E+03 E0= -.66976220E+03  d E =-.400403E-02  mag=     0.9798
       N       E                     dE             d eps       ncg     rms          ort
SDA:   1    -0.662831299600E+03    0.37842E+00    0.00000E+00   768   0.102E+01 0.000E+00
CGA:   2    -0.663097305258E+03   -0.26601E+00   -0.26594E+00   768   0.436E+00 0.705E-03
CGA:   3    -0.663169019704E+03   -0.71714E-01   -0.71708E-01   768   0.204E+00-0.196E-03
CGA:   4    -0.663197466171E+03   -0.28446E-01   -0.28456E-01   768   0.521E-01-0.511E-04
CGA:   5    -0.663205953864E+03   -0.84877E-02   -0.84867E-02   768   0.157E-01-0.136E-04
CGA:   6    -0.663208645978E+03   -0.26921E-02   -0.26921E-02   768   0.629E-02-0.742E-06
CGA:   7    -0.663209770126E+03   -0.11241E-02   -0.11241E-02   768   0.292E-02-0.672E-05
CGA:   8    -0.663210296353E+03   -0.52623E-03   -0.52622E-03   768   0.136E-02-0.251E-05
CGA:   9    -0.663210572573E+03   -0.27622E-03   -0.27626E-03   768   0.662E-03-0.202E-05
CGA:  10    -0.663210700806E+03   -0.12823E-03   -0.12822E-03   768   0.317E-03 0.148E-05
CGA:  11    -0.663210755517E+03   -0.54711E-04   -0.54713E-04   768   0.130E-03 0.123E-06
  67 F= -.66977010E+03 E0= -.66976395E+03  d E =-.591072E-02  mag=     0.9799
[...]
CGA:  10    -0.663239452751E+03   -0.13752E-03   -0.13752E-03   768   0.363E-03-0.778E-06
CGA:  11    -0.663239515561E+03   -0.62809E-04   -0.62812E-04   768   0.153E-03 0.345E-06
  81 F= -.66980582E+03 E0= -.66979875E+03  d E =-.606120E-02  mag=     0.9768
       N       E                     dE             d eps       ncg     rms          ort
SDA:   1    -0.662944079986E+03    0.29537E+00    0.00000E+00   768   0.795E+00 0.000E+00
CGA:   2    -0.663157828323E+03   -0.21375E+00   -0.21372E+00   768   0.360E+00 0.360E-03
CGA:   3    -0.663209856814E+03   -0.52028E-01   -0.52045E-01   768   0.162E+00 0.198E-03
CGA:   4    -0.663232691466E+03   -0.22835E-01   -0.22838E-01   768   0.403E-01 0.845E-04
CGA:   5    -0.663239173655E+03   -0.64822E-02   -0.64823E-02   768   0.106E-01 0.193E-05
CGA:   6    -0.663241037034E+03   -0.18634E-02   -0.18633E-02   768   0.465E-02-0.131E-04
CGA:   7    -0.663241824130E+03   -0.78710E-03   -0.78701E-03   768   0.198E-02-0.647E-05
CGA:   8    -0.663242164828E+03   -0.34070E-03   -0.34068E-03   768   0.932E-03-0.230E-05
CGA:   9    -0.663242360445E+03   -0.19562E-03   -0.19557E-03   768   0.455E-03 0.147E-05
CGA:  10    -0.663242447847E+03   -0.87402E-04   -0.87408E-04   768   0.243E-03-0.476E-06
  82 F= -.66980897E+03 E0= -.66980190E+03  d E =-.314856E-02  mag=     0.9795
       N       E                     dE             d eps       ncg     rms          ort
SDA:   1    -0.663116910413E+03    0.12545E+00    0.00000E+00   768   0.337E+00 0.000E+00
CGA:   2    -0.663206597681E+03   -0.89687E-01   -0.89678E-01   768   0.160E+00 0.114E-03
CGA:   3    -0.663228651345E+03   -0.22054E-01   -0.22053E-01   768   0.705E-01 0.290E-04
CGA:   4    -0.663238899222E+03   -0.10248E-01   -0.10250E-01   768   0.169E-01 0.402E-04
CGA:   5    -0.663241644258E+03   -0.27450E-02   -0.27450E-02   768   0.463E-02-0.164E-05
CGA:   6    -0.663242463903E+03   -0.81965E-03   -0.81963E-03   768   0.199E-02-0.711E-05
CGA:   7    -0.663242800656E+03   -0.33675E-03   -0.33671E-03   768   0.899E-03-0.388E-05
CGA:   8    -0.663242952215E+03   -0.15156E-03   -0.15154E-03   768   0.402E-03-0.145E-05
CGA:   9    -0.663243040130E+03   -0.87915E-04   -0.87878E-04   768   0.200E-03 0.908E-06
  83 F= -.66980969E+03 E0= -.66980264E+03  d E =-.387529E-02  mag=     0.9817
       N       E                     dE             d eps       ncg     rms          ort
SDA:   1    -0.662904027676E+03    0.33892E+00    0.00000E+00   768   0.899E+00 0.000E+00
CGA:   2    -0.663161546313E+03   -0.25752E+00   -0.25759E+00   768   0.321E+00-0.567E-03
CGA:   3    -0.663219655797E+03   -0.58109E-01   -0.58108E-01   768   0.150E+00-0.117E-03
CGA:   4    -0.663237550344E+03   -0.17895E-01   -0.17916E-01   768   0.393E-01 0.376E-04
CGA:   5    -0.663243897542E+03   -0.63472E-02   -0.63464E-02   768   0.866E-02-0.123E-04
CGA:   6    -0.663245574557E+03   -0.16770E-02   -0.16771E-02   768   0.399E-02-0.667E-05
CGA:   7    -0.663246187741E+03   -0.61318E-03   -0.61303E-03   768   0.143E-02-0.317E-05
CGA:   8    -0.663246439731E+03   -0.25199E-03   -0.25199E-03   768   0.759E-03 0.180E-07
CGA:   9    -0.663246589951E+03   -0.15022E-03   -0.15019E-03   768   0.330E-03 0.210E-05
CGA:  10    -0.663246660763E+03   -0.70812E-04   -0.70814E-04   768   0.209E-03-0.977E-07
  84 F= -.66981366E+03 E0= -.66980650E+03  d E =-.397034E-02  mag=     0.9803
       N       E                     dE             d eps       ncg     rms          ort
SDA:   1    -0.663118148000E+03    0.12844E+00    0.00000E+00   768   0.339E+00 0.000E+00
CGA:   2    -0.663214665164E+03   -0.96517E-01   -0.96532E-01   768   0.128E+00-0.111E-03
CGA:   3    -0.663235713866E+03   -0.21049E-01   -0.21041E-01   768   0.651E-01-0.116E-03
CGA:   4    -0.663243631703E+03   -0.79178E-02   -0.79265E-02   768   0.146E-01 0.190E-04
CGA:   5    -0.663246114467E+03   -0.24828E-02   -0.24827E-02   768   0.326E-02-0.378E-05
CGA:   6    -0.663246766441E+03   -0.65197E-03   -0.65204E-03   768   0.148E-02-0.342E-05
CGA:   7    -0.663246990177E+03   -0.22374E-03   -0.22366E-03   768   0.590E-03-0.170E-05
CGA:   8    -0.663247090192E+03   -0.10002E-03   -0.10001E-03   768   0.279E-03-0.171E-06
CGA:   9    -0.663247150994E+03   -0.60802E-04   -0.60752E-04   768   0.128E-03 0.139E-05
  85 F= -.66981436E+03 E0= -.66980713E+03  d E =-.466732E-02  mag=     0.9795
       N       E                     dE             d eps       ncg     rms          ort
SDA:   1    -0.662818879668E+03    0.42821E+00    0.00000E+00   768   0.114E+01 0.000E+00
CGA:   2    -0.663144571811E+03   -0.32569E+00   -0.32563E+00   768   0.403E+00 0.658E-03
CGA:   3    -0.663215429483E+03   -0.70858E-01   -0.70850E-01   768   0.201E+00-0.228E-03
CGA:   4    -0.663239191003E+03   -0.23762E-01   -0.23819E-01   768   0.482E-01-0.139E-04
CGA:   5    -0.663247170033E+03   -0.79790E-02   -0.79782E-02   768   0.105E-01-0.161E-04
CGA:   6    -0.663249221114E+03   -0.20511E-02   -0.20512E-02   768   0.472E-02-0.880E-05
CGA:   7    -0.663249928961E+03   -0.70785E-03   -0.70762E-03   768   0.174E-02-0.407E-05
CGA:   8    -0.663250230153E+03   -0.30119E-03   -0.30119E-03   768   0.866E-03-0.266E-06
CGA:   9    -0.663250406456E+03   -0.17630E-03   -0.17625E-03   768   0.387E-03 0.258E-05
CGA:  10    -0.663250488469E+03   -0.82013E-04   -0.82005E-04   768   0.250E-03 0.240E-06
  86 F= -.66981796E+03 E0= -.66981071E+03  d E =-.360416E-02  mag=     0.9809
       N       E                     dE             d eps       ncg     rms          ort
SDA:   1    -0.663060293196E+03    0.19011E+00    0.00000E+00   768   0.504E+00 0.000E+00
CGA:   2    -0.663203693252E+03   -0.14340E+00   -0.14338E+00   768   0.187E+00 0.214E-03
CGA:   3    -0.663234069007E+03   -0.30376E-01   -0.30362E-01   768   0.981E-01-0.155E-03
CGA:   4    -0.663246060502E+03   -0.11991E-01   -0.12011E-01   768   0.209E-01 0.185E-04
CGA:   5    -0.663249660293E+03   -0.35998E-02   -0.35997E-02   768   0.459E-02-0.588E-05
CGA:   6    -0.663250586086E+03   -0.92579E-03   -0.92589E-03   768   0.207E-02-0.504E-05
CGA:   7    -0.663250888286E+03   -0.30220E-03   -0.30207E-03   768   0.812E-03-0.246E-05
CGA:   8    -0.663251028506E+03   -0.14022E-03   -0.14022E-03   768   0.373E-03-0.373E-06
CGA:   9    -0.663251109605E+03   -0.81098E-04   -0.81036E-04   768   0.175E-03 0.180E-05
  87 F= -.66981876E+03 E0= -.66981150E+03  d E =-.439537E-02  mag=     0.9823
       N       E                     dE             d eps       ncg     rms          ort
SDA:   1    -0.662770601780E+03    0.48043E+00    0.00000E+00   768   0.129E+01 0.000E+00
CGA:   2    -0.663135429784E+03   -0.36483E+00   -0.36497E+00   768   0.444E+00-0.116E-02
CGA:   3    -0.663218868482E+03   -0.83439E-01   -0.83440E-01   768   0.189E+00 0.397E-03
CGA:   4    -0.663242575256E+03   -0.23707E-01   -0.23715E-01   768   0.551E-01 0.763E-04
CGA:   5    -0.663250754461E+03   -0.81792E-02   -0.81769E-02   768   0.132E-01-0.667E-05
CGA:   6    -0.663253086794E+03   -0.23323E-02   -0.23323E-02   768   0.566E-02-0.484E-05
CGA:   7    -0.663254005630E+03   -0.91884E-03   -0.91873E-03   768   0.193E-02-0.227E-05
CGA:   8    -0.663254348420E+03   -0.34279E-03   -0.34279E-03   768   0.103E-02 0.744E-06
CGA:   9    -0.663254544105E+03   -0.19569E-03   -0.19567E-03   768   0.481E-03 0.283E-05
CGA:  10    -0.663254643587E+03   -0.99482E-04   -0.99473E-04   768   0.270E-03 0.383E-06
  88 F= -.66982261E+03 E0= -.66981528E+03  d E =-.385773E-02  mag=     0.9811
       N       E                     dE             d eps       ncg     rms          ort
SDA:   1    -0.663166971778E+03    0.87572E-01    0.00000E+00   768   0.234E+00 0.000E+00
CGA:   2    -0.663232992981E+03   -0.66021E-01   -0.66032E-01   768   0.850E-01-0.869E-04
CGA:   3    -0.663247475748E+03   -0.14483E-01   -0.14481E-01   768   0.421E-01-0.254E-04
CGA:   4    -0.663252596044E+03   -0.51203E-02   -0.51255E-02   768   0.101E-01 0.128E-04
CGA:   5    -0.663254216889E+03   -0.16208E-02   -0.16207E-02   768   0.243E-02-0.132E-05
CGA:   6    -0.663254672587E+03   -0.45570E-03   -0.45571E-03   768   0.101E-02-0.205E-05
CGA:   7    -0.663254836299E+03   -0.16371E-03   -0.16369E-03   768   0.415E-03-0.760E-06
CGA:   8    -0.663254902968E+03   -0.66669E-04   -0.66672E-04   768   0.193E-03 0.153E-06
  89 F= -.66982301E+03 E0= -.66981564E+03  d E =-.425262E-02  mag=     0.9806
       N       E                     dE             d eps       ncg     rms          ort
SDA:   1    -0.663012689189E+03    0.24215E+00    0.00000E+00   768   0.656E+00 0.000E+00
CGA:   2    -0.663197006272E+03   -0.18432E+00   -0.18430E+00   768   0.233E+00 0.157E-03
CGA:   3    -0.663237785218E+03   -0.40779E-01   -0.40781E-01   768   0.113E+00 0.752E-04
CGA:   4    -0.663251474602E+03   -0.13689E-01   -0.13705E-01   768   0.283E-01 0.244E-04
CGA:   5    -0.663256020506E+03   -0.45459E-02   -0.45455E-02   768   0.681E-02-0.471E-05
CGA:   6    -0.663257212116E+03   -0.11916E-02   -0.11916E-02   768   0.296E-02-0.438E-05
CGA:   7    -0.663257687244E+03   -0.47513E-03   -0.47506E-03   768   0.104E-02-0.204E-05
CGA:   8    -0.663257866655E+03   -0.17941E-03   -0.17941E-03   768   0.539E-03 0.372E-07
CGA:   9    -0.663257973471E+03   -0.10682E-03   -0.10679E-03   768   0.250E-03 0.178E-05
CGA:  10    -0.663258025205E+03   -0.51734E-04   -0.51731E-04   768   0.150E-03 0.118E-06
  90 F= -.66982633E+03 E0= -.66981898E+03  d E =-.332050E-02  mag=     0.9820
       N       E                     dE             d eps       ncg     rms          ort
SDA:   1    -0.661402821822E+03    0.18552E+01    0.00000E+00   768   0.498E+01 0.000E+00
CGA:   2    -0.662800328528E+03   -0.13975E+01   -0.13973E+01   768   0.176E+01 0.306E-02
CGA:   3    -0.663110032200E+03   -0.30970E+00   -0.30976E+00   768   0.824E+00 0.251E-02
CGA:   4    -0.663212261730E+03   -0.10223E+00   -0.10253E+00   768   0.218E+00 0.564E-03
CGA:   5    -0.663245853779E+03   -0.33592E-01   -0.33583E-01   768   0.518E-01-0.389E-04
CGA:   6    -0.663255070850E+03   -0.92171E-02   -0.92170E-02   768   0.214E-01-0.200E-04
CGA:   7    -0.663258550094E+03   -0.34792E-02   -0.34788E-02   768   0.766E-02-0.816E-05
CGA:   8    -0.663259844348E+03   -0.12943E-02   -0.12944E-02   768   0.380E-02 0.335E-05
CGA:   9    -0.663260594690E+03   -0.75034E-03   -0.75025E-03   768   0.175E-02 0.612E-05
CGA:  10    -0.663260959304E+03   -0.36461E-03   -0.36456E-03   768   0.101E-02 0.148E-05
CGA:  11    -0.663261135718E+03   -0.17641E-03   -0.17643E-03   768   0.475E-03 0.187E-05
CGA:  12    -0.663261227634E+03   -0.91916E-04   -0.91922E-04   768   0.189E-03-0.702E-06
  91 F= -.66983006E+03 E0= -.66982280E+03  d E =-.705291E-02  mag=     0.9867
       N       E                     dE             d eps       ncg     rms          ort
SDA:   1    -0.662929383697E+03    0.33175E+00    0.00000E+00   768   0.900E+00 0.000E+00
CGA:   2    -0.663179708790E+03   -0.25033E+00   -0.25038E+00   768   0.322E+00-0.461E-03
CGA:   3    -0.663237570671E+03   -0.57862E-01   -0.57867E-01   768   0.142E+00 0.327E-03
CGA:   4    -0.663255898784E+03   -0.18328E-01   -0.18323E-01   768   0.392E-01 0.464E-04
CGA:   5    -0.663261826158E+03   -0.59274E-02   -0.59271E-02   768   0.980E-02 0.156E-05
CGA:   6    -0.663263471057E+03   -0.16449E-02   -0.16449E-02   768   0.431E-02-0.258E-05
CGA:   7    -0.663264167744E+03   -0.69669E-03   -0.69665E-03   768   0.145E-02-0.784E-06
CGA:   8    -0.663264436573E+03   -0.26883E-03   -0.26883E-03   768   0.741E-03 0.688E-06
CGA:   9    -0.663264578676E+03   -0.14210E-03   -0.14208E-03   768   0.378E-03 0.223E-05
CGA:  10    -0.663264651809E+03   -0.73133E-04   -0.73131E-04   768   0.198E-03 0.147E-06
  92 F= -.66983376E+03 E0= -.66982648E+03  d E =-.370170E-02  mag=     0.9852
       N       E                     dE             d eps       ncg     rms          ort
SDA:   1    -0.662406640805E+03    0.85794E+00    0.00000E+00   768   0.231E+01 0.000E+00
CGA:   2    -0.663048606801E+03   -0.64197E+00   -0.64219E+00   768   0.824E+00-0.187E-02
CGA:   3    -0.663197599963E+03   -0.14899E+00   -0.14901E+00   768   0.354E+00 0.143E-02
CGA:   4    -0.663244270801E+03   -0.46671E-01   -0.46649E-01   768   0.992E-01 0.148E-03
CGA:   5    -0.663258953304E+03   -0.14683E-01   -0.14681E-01   768   0.263E-01 0.106E-04
CGA:   6    -0.663263304946E+03   -0.43516E-02   -0.43516E-02   768   0.109E-01-0.325E-05
CGA:   7    -0.663265128627E+03   -0.18237E-02   -0.18236E-02   768   0.381E-02-0.190E-05
CGA:   8    -0.663265821584E+03   -0.69296E-03   -0.69296E-03   768   0.192E-02 0.128E-05
CGA:   9    -0.663266188897E+03   -0.36731E-03   -0.36728E-03   768   0.992E-03 0.395E-05
CGA:  10    -0.663266379444E+03   -0.19055E-03   -0.19054E-03   768   0.499E-03 0.448E-06
CGA:  11    -0.663266476427E+03   -0.96983E-04   -0.96969E-04   768   0.243E-03 0.117E-05
  93 F= -.66983602E+03 E0= -.66982868E+03  d E =-.596196E-02  mag=     0.9827
       N       E                     dE             d eps       ncg     rms          ort
SDA:   1    -0.663062433966E+03    0.20395E+00    0.00000E+00   768   0.552E+00 0.000E+00
CGA:   2    -0.663218742031E+03   -0.15631E+00   -0.15629E+00   768   0.187E+00 0.177E-03
CGA:   3    -0.663254109146E+03   -0.35367E-01   -0.35367E-01   768   0.801E-01 0.126E-03
CGA:   4    -0.663264332563E+03   -0.10223E-01   -0.10225E-01   768   0.234E-01 0.224E-04
CGA:   5    -0.663267723044E+03   -0.33905E-02   -0.33899E-02   768   0.559E-02-0.446E-05
CGA:   6    -0.663268725346E+03   -0.10023E-02   -0.10023E-02   768   0.238E-02-0.410E-05
CGA:   7    -0.663269100142E+03   -0.37480E-03   -0.37476E-03   768   0.829E-03-0.119E-05
CGA:   8    -0.663269251671E+03   -0.15153E-03   -0.15153E-03   768   0.424E-03 0.238E-06
CGA:   9    -0.663269332540E+03   -0.80868E-04   -0.80855E-04   768   0.214E-03 0.146E-05
  94 F= -.66983914E+03 E0= -.66983180E+03  d E =-.311562E-02  mag=     0.9836
       N       E                     dE             d eps       ncg     rms          ort
SDA:   1    -0.662623277632E+03    0.64597E+00    0.00000E+00   768   0.173E+01 0.000E+00
CGA:   2    -0.663111211179E+03   -0.48793E+00   -0.48784E+00   768   0.598E+00 0.979E-03
CGA:   3    -0.663221096857E+03   -0.10989E+00   -0.10989E+00   768   0.266E+00 0.753E-03
CGA:   4    -0.663254853948E+03   -0.33757E-01   -0.33775E-01   768   0.730E-01 0.983E-04
CGA:   5    -0.663265861245E+03   -0.11007E-01   -0.11005E-01   768   0.185E-01-0.104E-04
CGA:   6    -0.663269026377E+03   -0.31651E-02   -0.31651E-02   768   0.761E-02-0.641E-05
CGA:   7    -0.663270284432E+03   -0.12581E-02   -0.12580E-02   768   0.262E-02-0.253E-05
CGA:   8    -0.663270752510E+03   -0.46808E-03   -0.46808E-03   768   0.137E-02 0.925E-06
CGA:   9    -0.663271014531E+03   -0.26202E-03   -0.26199E-03   768   0.663E-03 0.287E-05
CGA:  10    -0.663271149977E+03   -0.13545E-03   -0.13544E-03   768   0.359E-03 0.350E-06
CGA:  11    -0.663271216409E+03   -0.66433E-04   -0.66431E-04   768   0.176E-03 0.955E-06
  95 F= -.66984147E+03 E0= -.66983416E+03  d E =-.544919E-02  mag=     0.9854
       N       E                     dE             d eps       ncg     rms          ort
SDA:   1    -0.663063021396E+03    0.20813E+00    0.00000E+00   768   0.560E+00 0.000E+00
CGA:   2    -0.663223796535E+03   -0.16078E+00   -0.16081E+00   768   0.179E+00-0.292E-03
CGA:   3    -0.663261173183E+03   -0.37377E-01   -0.37371E-01   768   0.597E-01 0.166E-03
CGA:   4    -0.663269877338E+03   -0.87042E-02   -0.87049E-02   768   0.211E-01 0.179E-04
CGA:   5    -0.663272503595E+03   -0.26263E-02   -0.26250E-02   768   0.496E-02-0.692E-06
CGA:   6    -0.663273487027E+03   -0.98343E-03   -0.98346E-03   768   0.187E-02-0.207E-05
CGA:   7    -0.663273776190E+03   -0.28916E-03   -0.28916E-03   768   0.695E-03 0.141E-06
CGA:   8    -0.663273909750E+03   -0.13356E-03   -0.13355E-03   768   0.355E-03 0.852E-06
CGA:   9    -0.663273973350E+03   -0.63600E-04   -0.63606E-04   768   0.181E-03 0.146E-05
  96 F= -.66984460E+03 E0= -.66983723E+03  d E =-.312247E-02  mag=     0.9851
       N       E                     dE             d eps       ncg     rms          ort
SDA:   1    -0.662753377916E+03    0.52053E+00    0.00000E+00   768   0.139E+01 0.000E+00
CGA:   2    -0.663150528827E+03   -0.39715E+00   -0.39729E+00   768   0.447E+00-0.113E-02
CGA:   3    -0.663242466473E+03   -0.91938E-01   -0.91921E-01   768   0.158E+00 0.645E-03
CGA:   4    -0.663264350291E+03   -0.21884E-01   -0.21889E-01   768   0.542E-01 0.582E-04
CGA:   5    -0.663271520650E+03   -0.71704E-02   -0.71654E-02   768   0.129E-01-0.894E-06
CGA:   6    -0.663273926898E+03   -0.24062E-02   -0.24062E-02   768   0.517E-02-0.188E-05
CGA:   7    -0.663274749107E+03   -0.82221E-03   -0.82218E-03   768   0.172E-02 0.519E-08
CGA:   8    -0.663275078770E+03   -0.32966E-03   -0.32965E-03   768   0.976E-03 0.159E-05
CGA:   9    -0.663275248773E+03   -0.17000E-03   -0.17003E-03   768   0.446E-03 0.248E-05
CGA:  10    -0.663275347053E+03   -0.98280E-04   -0.98265E-04   768   0.243E-03 0.378E-06
  97 F= -.66984653E+03 E0= -.66983905E+03  d E =-.505879E-02  mag=     0.9842
       N       E                     dE             d eps       ncg     rms          ort
SDA:   1    -0.663115179994E+03    0.16007E+00    0.00000E+00   768   0.426E+00 0.000E+00
CGA:   2    -0.663238751592E+03   -0.12357E+00   -0.12355E+00   768   0.143E+00 0.200E-03
CGA:   3    -0.663265993970E+03   -0.27242E-01   -0.27242E-01   768   0.623E-01 0.175E-04
CGA:   4    -0.663273551762E+03   -0.75578E-02   -0.75681E-02   768   0.177E-01 0.229E-05
CGA:   5    -0.663276250573E+03   -0.26988E-02   -0.26984E-02   768   0.391E-02-0.275E-05
CGA:   6    -0.663277002968E+03   -0.75240E-03   -0.75241E-03   768   0.172E-02-0.218E-05
CGA:   7    -0.663277267180E+03   -0.26421E-03   -0.26414E-03   768   0.588E-03-0.217E-05
CGA:   8    -0.663277375329E+03   -0.10815E-03   -0.10815E-03   768   0.330E-03-0.567E-06
CGA:   9    -0.663277436556E+03   -0.61227E-04   -0.61225E-04   768   0.146E-03 0.121E-05
  98 F= -.66984896E+03 E0= -.66984148E+03  d E =-.242673E-02  mag=     0.9868
       N       E                     dE             d eps       ncg     rms          ort
SDA:   1    -0.663080063036E+03    0.19731E+00    0.00000E+00   768   0.520E+00 0.000E+00
CGA:   2    -0.663231005365E+03   -0.15094E+00   -0.15091E+00   768   0.170E+00 0.272E-03
CGA:   3    -0.663265509363E+03   -0.34504E-01   -0.34503E-01   768   0.602E-01 0.653E-04
CGA:   4    -0.663273943669E+03   -0.84343E-02   -0.84324E-02   768   0.189E-01 0.383E-05
CGA:   5    -0.663276605110E+03   -0.26614E-02   -0.26611E-02   768   0.488E-02-0.852E-06
CGA:   6    -0.663277452343E+03   -0.84723E-03   -0.84722E-03   768   0.217E-02-0.163E-05
CGA:   7    -0.663277784046E+03   -0.33170E-03   -0.33163E-03   768   0.668E-03-0.219E-05
CGA:   8    -0.663277922441E+03   -0.13839E-03   -0.13840E-03   768   0.366E-03-0.427E-06
CGA:   9    -0.663277989796E+03   -0.67355E-04   -0.67357E-04   768   0.196E-03 0.130E-05
  99 F= -.66984988E+03 E0= -.66984240E+03  d E =-.334919E-02  mag=     0.9897
       N       E                     dE             d eps       ncg     rms          ort
SDA:   1    -0.663131354803E+03    0.14657E+00    0.00000E+00   768   0.389E+00 0.000E+00
CGA:   2    -0.663244735174E+03   -0.11338E+00   -0.11339E+00   768   0.128E+00-0.114E-03
CGA:   3    -0.663270738196E+03   -0.26003E-01   -0.26001E-01   768   0.428E-01 0.821E-04
CGA:   4    -0.663277101490E+03   -0.63633E-02   -0.63618E-02   768   0.130E-01-0.140E-05
CGA:   5    -0.663278985596E+03   -0.18841E-02   -0.18842E-02   768   0.345E-02 0.138E-05
CGA:   6    -0.663279592876E+03   -0.60728E-03   -0.60727E-03   768   0.161E-02-0.126E-05
CGA:   7    -0.663279823654E+03   -0.23078E-03   -0.23070E-03   768   0.505E-03-0.150E-05
CGA:   8    -0.663279930164E+03   -0.10651E-03   -0.10652E-03   768   0.252E-03-0.227E-06
CGA:   9    -0.663279981840E+03   -0.51676E-04   -0.51654E-04   768   0.141E-03 0.120E-05
 100 F= -.66985220E+03 E0= -.66984468E+03  d E =-.232026E-02  mag=     0.9892
