       N       E                     dE             d eps       ncg     rms          rms(c)
DAV:   1     0.262494871536E+04    0.26249E+04   -0.10310E+05  4008   0.114E+03
DAV:   2     0.477213903870E+02   -0.25772E+04   -0.24715E+04  4856   0.288E+02
DAV:   3    -0.500908978987E+03   -0.54863E+03   -0.54459E+03  4076   0.147E+02
DAV:   4    -0.524086373507E+03   -0.23177E+02   -0.22608E+02  4336   0.418E+01
DAV:   5    -0.525074628305E+03   -0.98825E+00   -0.97741E+00  5080   0.707E+00    0.408E+01
DAV:   6    -0.498227947828E+03    0.26847E+02   -0.51002E+01  4384   0.245E+01    0.250E+01
DAV:   7    -0.493472785431E+03    0.47552E+01   -0.34601E+01  4144   0.150E+01    0.159E+01
DAV:   8    -0.492289008210E+03    0.11838E+01   -0.19941E+01  4216   0.124E+01    0.109E+01
DAV:   9    -0.491656220465E+03    0.63279E+00   -0.52518E+00  4064   0.704E+00    0.469E+00
DAV:  10    -0.491563138039E+03    0.93082E-01   -0.51710E+00  4696   0.594E+00    0.289E+00
DAV:  11    -0.491400529857E+03    0.16261E+00   -0.97273E-01  4208   0.325E+00    0.158E+00
DAV:  12    -0.491371798694E+03    0.28731E-01   -0.25544E-01  4088   0.165E+00    0.103E+00
DAV:  13    -0.491369819464E+03    0.19792E-02   -0.25764E-01  4152   0.101E+00    0.846E-01
DAV:  14    -0.491383149346E+03   -0.13330E-01   -0.53102E-01  4192   0.110E+00    0.118E+00
DAV:  15    -0.491358655180E+03    0.24494E-01   -0.22175E-01  4264   0.730E-01    0.299E-01
DAV:  16    -0.491360262535E+03   -0.16074E-02   -0.23214E-02  4056   0.373E-01    0.243E-01
DAV:  17    -0.491360421087E+03   -0.15855E-03   -0.77563E-03  3976   0.151E-01    0.209E-01
DAV:  18    -0.491360213344E+03    0.20774E-03   -0.75551E-04  3104   0.545E-02    0.197E-01
DAV:  19    -0.491360076622E+03    0.13672E-03   -0.28438E-04  2320   0.256E-02    0.182E-01
DAV:  20    -0.491359899433E+03    0.17719E-03   -0.62238E-03  3552   0.102E-01    0.189E-01
DAV:  21    -0.491359742408E+03    0.15702E-03   -0.58599E-03  3800   0.961E-02    0.543E-02
DAV:  22    -0.491359919917E+03   -0.17751E-03   -0.51387E-04  2440   0.540E-02    0.259E-02
DAV:  23    -0.491359920626E+03   -0.70934E-06   -0.18278E-04  2280   0.282E-02
   1 F= -.49541257E+03 E0= -.49541257E+03  d E =0.000000E+00  mag=     0.0000
