       N       E                     dE             d eps       ncg     rms          rms(c)
DAV:   1     0.261861105958E+04    0.26186E+04   -0.11089E+05  3808   0.125E+03
DAV:   2    -0.716028927156E+02   -0.26902E+04   -0.26064E+04  4632   0.323E+02
DAV:   3    -0.503346579452E+03   -0.43174E+03   -0.42775E+03  3988   0.149E+02
DAV:   4    -0.520340508167E+03   -0.16994E+02   -0.16662E+02  4392   0.410E+01
DAV:   5    -0.520980323683E+03   -0.63982E+00   -0.63474E+00  4784   0.609E+00    0.421E+01
DAV:   6    -0.494767494033E+03    0.26213E+02   -0.54863E+01  4272   0.248E+01    0.263E+01
DAV:   7    -0.489776598960E+03    0.49909E+01   -0.47446E+01  4136   0.193E+01    0.172E+01
DAV:   8    -0.487142902091E+03    0.26337E+01   -0.11302E+01  3984   0.123E+01    0.117E+01
DAV:   9    -0.487367556293E+03   -0.22465E+00   -0.91859E+00  4376   0.954E+00    0.641E+00
DAV:  10    -0.486792755918E+03    0.57480E+00   -0.77552E+00  4200   0.702E+00    0.301E+00
DAV:  11    -0.486721151304E+03    0.71605E-01   -0.11908E+00  4200   0.273E+00    0.166E+00
DAV:  12    -0.486733395221E+03   -0.12244E-01   -0.12257E+00  4296   0.220E+00    0.157E+00
DAV:  13    -0.486674037678E+03    0.59358E-01   -0.68581E-01  4176   0.174E+00    0.658E-01
DAV:  14    -0.486670895623E+03    0.31421E-02   -0.50399E-02  3872   0.595E-01    0.395E-01
DAV:  15    -0.486669986391E+03    0.90923E-03   -0.86133E-03  4152   0.270E-01    0.285E-01
DAV:  16    -0.486669632999E+03    0.35339E-03   -0.45616E-03  4040   0.152E-01    0.145E-01
DAV:  17    -0.486669774679E+03   -0.14168E-03   -0.10865E-03  3832   0.875E-02    0.680E-02
DAV:  18    -0.486669764739E+03    0.99400E-05   -0.16987E-03  2320   0.704E-02    0.539E-02
DAV:  19    -0.486669725475E+03    0.39263E-04   -0.29277E-04  2080   0.365E-02
   1 F= -.49109278E+03 E0= -.49109278E+03  d E =0.000000E+00  mag=     0.0000
