  71  71   0   0
  0.4002383E+02  0.1486018E-08  0.1475712E-08  0.1500000E-08  0.3000000E-15
  1.000000000000000E-004
  CAR 
 unknown system                          
      5.28257295    -48.49938363  301     -2.09785191      1.00000000
    -48.499  0.0000E+00  0.0000E+00  0.0000E+00  0.0000E+00
    -48.320  0.0000E+00  0.0000E+00  0.0000E+00  0.0000E+00
    -48.141  0.0000E+00  0.0000E+00  0.0000E+00  0.0000E+00
    -47.962  0.0000E+00  0.0000E+00  0.0000E+00  0.0000E+00
    -47.782  0.0000E+00  0.0000E+00  0.0000E+00  0.0000E+00
    -47.603  0.0000E+00  0.0000E+00  0.0000E+00  0.0000E+00
    -47.424  0.0000E+00  0.0000E+00  0.0000E+00  0.0000E+00
    -47.244  0.0000E+00  0.0000E+00  0.0000E+00  0.0000E+00
    -47.065  0.0000E+00  0.0000E+00  0.0000E+00  0.0000E+00
    -46.886  0.0000E+00  0.0000E+00  0.0000E+00  0.0000E+00
    -46.707  0.0000E+00  0.0000E+00  0.0000E+00  0.0000E+00
    -46.527  0.1619E-12  0.0000E+00  0.2903E-13  0.0000E+00
    -46.348  0.2330E-06  0.0000E+00  0.4177E-07  0.0000E+00
    -46.169  0.7434E-03  0.0000E+00  0.1333E-03  0.0000E+00
    -45.990  0.1134E-01  0.0000E+00  0.2167E-02  0.0000E+00
    -45.810  0.1969E-01  0.0000E+00  0.5697E-02  0.0000E+00
    -45.631  0.9973E-02  0.0000E+00  0.7484E-02  0.0000E+00
    -45.452  0.8680E-04  0.0000E+00  0.7500E-02  0.0000E+00
    -45.272  0.2938E-08  0.0000E+00  0.7500E-02  0.0000E+00
    -45.093  0.2121E-15  0.0000E+00  0.7500E-02  0.0000E+00
    -44.914  0.0000E+00  0.0000E+00  0.7500E-02  0.0000E+00
    -44.735  0.0000E+00  0.0000E+00  0.7500E-02  0.0000E+00
    -44.555  0.0000E+00  0.1418E-13  0.7500E-02  0.2542E-14
    -44.376  0.0000E+00  0.4809E-07  0.7500E-02  0.8620E-08
    -44.197  0.0000E+00  0.3473E-03  0.7500E-02  0.6227E-04
    -44.018  0.0000E+00  0.9681E-02  0.7500E-02  0.1798E-02
    -43.838  0.0000E+00  0.9273E-02  0.7500E-02  0.3460E-02
    -43.659  0.0000E+00  0.1586E-01  0.7500E-02  0.6304E-02
    -43.480  0.0000E+00  0.6612E-02  0.7500E-02  0.7489E-02
    -43.300  0.0000E+00  0.6096E-04  0.7500E-02  0.7500E-02
    -43.121  0.0000E+00  0.1747E-08  0.7500E-02  0.7500E-02
    -42.942  0.0000E+00  0.1006E-15  0.7500E-02  0.7500E-02
    -42.763  0.0000E+00  0.0000E+00  0.7500E-02  0.7500E-02
    -42.583  0.0000E+00  0.0000E+00  0.7500E-02  0.7500E-02
    -42.404  0.0000E+00  0.0000E+00  0.7500E-02  0.7500E-02
    -42.225  0.0000E+00  0.0000E+00  0.7500E-02  0.7500E-02
    -42.046  0.0000E+00  0.0000E+00  0.7500E-02  0.7500E-02
    -41.866  0.0000E+00  0.0000E+00  0.7500E-02  0.7500E-02
    -41.687  0.0000E+00  0.0000E+00  0.7500E-02  0.7500E-02
    -41.508  0.0000E+00  0.0000E+00  0.7500E-02  0.7500E-02
    -41.328  0.0000E+00  0.0000E+00  0.7500E-02  0.7500E-02
    -41.149  0.0000E+00  0.0000E+00  0.7500E-02  0.7500E-02
    -40.970  0.0000E+00  0.0000E+00  0.7500E-02  0.7500E-02
    -40.791  0.0000E+00  0.0000E+00  0.7500E-02  0.7500E-02
    -40.611  0.0000E+00  0.0000E+00  0.7500E-02  0.7500E-02
    -40.432  0.0000E+00  0.0000E+00  0.7500E-02  0.7500E-02
    -40.253  0.0000E+00  0.0000E+00  0.7500E-02  0.7500E-02
    -40.074  0.0000E+00  0.0000E+00  0.7500E-02  0.7500E-02
    -39.894  0.0000E+00  0.0000E+00  0.7500E-02  0.7500E-02
    -39.715  0.0000E+00  0.0000E+00  0.7500E-02  0.7500E-02
    -39.536  0.0000E+00  0.0000E+00  0.7500E-02  0.7500E-02
    -39.356  0.0000E+00  0.0000E+00  0.7500E-02  0.7500E-02
    -39.177  0.0000E+00  0.0000E+00  0.7500E-02  0.7500E-02
    -38.998  0.0000E+00  0.0000E+00  0.7500E-02  0.7500E-02
    -38.819  0.0000E+00  0.0000E+00  0.7500E-02  0.7500E-02
    -38.639  0.0000E+00  0.0000E+00  0.7500E-02  0.7500E-02
    -38.460  0.0000E+00  0.0000E+00  0.7500E-02  0.7500E-02
    -38.281  0.0000E+00  0.0000E+00  0.7500E-02  0.7500E-02
    -38.102  0.0000E+00  0.0000E+00  0.7500E-02  0.7500E-02
    -37.922  0.0000E+00  0.0000E+00  0.7500E-02  0.7500E-02
    -37.743  0.0000E+00  0.0000E+00  0.7500E-02  0.7500E-02
    -37.564  0.0000E+00  0.0000E+00  0.7500E-02  0.7500E-02
    -37.384  0.0000E+00  0.0000E+00  0.7500E-02  0.7500E-02
    -37.205  0.0000E+00  0.0000E+00  0.7500E-02  0.7500E-02
    -37.026  0.0000E+00  0.0000E+00  0.7500E-02  0.7500E-02
    -36.847  0.0000E+00  0.0000E+00  0.7500E-02  0.7500E-02
    -36.667  0.0000E+00  0.0000E+00  0.7500E-02  0.7500E-02
    -36.488  0.0000E+00  0.0000E+00  0.7500E-02  0.7500E-02
    -36.309  0.0000E+00  0.0000E+00  0.7500E-02  0.7500E-02
    -36.130  0.0000E+00  0.0000E+00  0.7500E-02  0.7500E-02
    -35.950  0.0000E+00  0.0000E+00  0.7500E-02  0.7500E-02
    -35.771  0.0000E+00  0.0000E+00  0.7500E-02  0.7500E-02
    -35.592  0.0000E+00  0.0000E+00  0.7500E-02  0.7500E-02
    -35.412  0.0000E+00  0.0000E+00  0.7500E-02  0.7500E-02
    -35.233  0.0000E+00  0.0000E+00  0.7500E-02  0.7500E-02
    -35.054  0.0000E+00  0.0000E+00  0.7500E-02  0.7500E-02
    -34.875  0.0000E+00  0.0000E+00  0.7500E-02  0.7500E-02
    -34.695  0.0000E+00  0.0000E+00  0.7500E-02  0.7500E-02
    -34.516  0.0000E+00  0.0000E+00  0.7500E-02  0.7500E-02
    -34.337  0.0000E+00  0.0000E+00  0.7500E-02  0.7500E-02
    -34.158  0.0000E+00  0.0000E+00  0.7500E-02  0.7500E-02
    -33.978  0.0000E+00  0.0000E+00  0.7500E-02  0.7500E-02
    -33.799  0.0000E+00  0.0000E+00  0.7500E-02  0.7500E-02
    -33.620  0.0000E+00  0.0000E+00  0.7500E-02  0.7500E-02
    -33.440  0.0000E+00  0.0000E+00  0.7500E-02  0.7500E-02
    -33.261  0.0000E+00  0.0000E+00  0.7500E-02  0.7500E-02
    -33.082  0.0000E+00  0.0000E+00  0.7500E-02  0.7500E-02
    -32.903  0.0000E+00  0.0000E+00  0.7500E-02  0.7500E-02
    -32.723  0.0000E+00  0.0000E+00  0.7500E-02  0.7500E-02
    -32.544  0.0000E+00  0.0000E+00  0.7500E-02  0.7500E-02
    -32.365  0.0000E+00  0.0000E+00  0.7500E-02  0.7500E-02
    -32.186  0.0000E+00  0.0000E+00  0.7500E-02  0.7500E-02
    -32.006  0.0000E+00  0.0000E+00  0.7500E-02  0.7500E-02
    -31.827  0.0000E+00  0.0000E+00  0.7500E-02  0.7500E-02
    -31.648  0.0000E+00  0.0000E+00  0.7500E-02  0.7500E-02
    -31.468  0.0000E+00  0.0000E+00  0.7500E-02  0.7500E-02
    -31.289  0.0000E+00  0.0000E+00  0.7500E-02  0.7500E-02
    -31.110  0.0000E+00  0.0000E+00  0.7500E-02  0.7500E-02
    -30.931  0.0000E+00  0.0000E+00  0.7500E-02  0.7500E-02
    -30.751  0.0000E+00  0.0000E+00  0.7500E-02  0.7500E-02
    -30.572  0.0000E+00  0.0000E+00  0.7500E-02  0.7500E-02
    -30.393  0.0000E+00  0.0000E+00  0.7500E-02  0.7500E-02
    -30.214  0.0000E+00  0.0000E+00  0.7500E-02  0.7500E-02
    -30.034  0.0000E+00  0.0000E+00  0.7500E-02  0.7500E-02
    -29.855  0.0000E+00  0.0000E+00  0.7500E-02  0.7500E-02
    -29.676  0.0000E+00  0.0000E+00  0.7500E-02  0.7500E-02
    -29.496  0.0000E+00  0.0000E+00  0.7500E-02  0.7500E-02
    -29.317  0.0000E+00  0.0000E+00  0.7500E-02  0.7500E-02
    -29.138  0.0000E+00  0.0000E+00  0.7500E-02  0.7500E-02
    -28.959  0.0000E+00  0.0000E+00  0.7500E-02  0.7500E-02
    -28.779  0.0000E+00  0.0000E+00  0.7500E-02  0.7500E-02
    -28.600  0.0000E+00  0.0000E+00  0.7500E-02  0.7500E-02
    -28.421  0.0000E+00  0.0000E+00  0.7500E-02  0.7500E-02
    -28.242  0.0000E+00  0.0000E+00  0.7500E-02  0.7500E-02
    -28.062  0.0000E+00  0.0000E+00  0.7500E-02  0.7500E-02
    -27.883  0.0000E+00  0.0000E+00  0.7500E-02  0.7500E-02
    -27.704  0.0000E+00  0.0000E+00  0.7500E-02  0.7500E-02
    -27.524  0.0000E+00  0.0000E+00  0.7500E-02  0.7500E-02
    -27.345  0.0000E+00  0.0000E+00  0.7500E-02  0.7500E-02
    -27.166  0.0000E+00  0.0000E+00  0.7500E-02  0.7500E-02
    -26.987  0.0000E+00  0.0000E+00  0.7500E-02  0.7500E-02
    -26.807  0.0000E+00  0.0000E+00  0.7500E-02  0.7500E-02
    -26.628  0.0000E+00  0.0000E+00  0.7500E-02  0.7500E-02
    -26.449  0.0000E+00  0.0000E+00  0.7500E-02  0.7500E-02
    -26.270  0.0000E+00  0.0000E+00  0.7500E-02  0.7500E-02
    -26.090  0.0000E+00  0.0000E+00  0.7500E-02  0.7500E-02
    -25.911  0.0000E+00  0.0000E+00  0.7500E-02  0.7500E-02
    -25.732  0.0000E+00  0.0000E+00  0.7500E-02  0.7500E-02
    -25.552  0.0000E+00  0.0000E+00  0.7500E-02  0.7500E-02
    -25.373  0.0000E+00  0.0000E+00  0.7500E-02  0.7500E-02
    -25.194  0.0000E+00  0.0000E+00  0.7500E-02  0.7500E-02
    -25.015  0.0000E+00  0.0000E+00  0.7500E-02  0.7500E-02
    -24.835  0.0000E+00  0.0000E+00  0.7500E-02  0.7500E-02
    -24.656  0.4664E-15  0.8045E-15  0.7500E-02  0.7500E-02
    -24.477  0.4953E-08  0.7150E-08  0.7500E-02  0.7500E-02
    -24.298  0.1073E-03  0.1304E-03  0.7519E-02  0.7523E-02
    -24.118  0.7488E-02  0.7860E-02  0.8862E-02  0.8932E-02
    -23.939  0.6294E-02  0.5910E-02  0.9990E-02  0.9992E-02
    -23.760  0.5656E-04  0.4563E-04  0.1000E-01  0.1000E-01
    -23.580  0.1525E-08  0.1035E-08  0.1000E-01  0.1000E-01
    -23.401  0.8244E-16  0.4645E-16  0.1000E-01  0.1000E-01
    -23.222  0.0000E+00  0.0000E+00  0.1000E-01  0.1000E-01
    -23.043  0.0000E+00  0.0000E+00  0.1000E-01  0.1000E-01
    -22.863  0.0000E+00  0.0000E+00  0.1000E-01  0.1000E-01
    -22.684  0.0000E+00  0.0000E+00  0.1000E-01  0.1000E-01
    -22.505  0.0000E+00  0.0000E+00  0.1000E-01  0.1000E-01
    -22.325  0.0000E+00  0.0000E+00  0.1000E-01  0.1000E-01
    -22.146  0.0000E+00  0.0000E+00  0.1000E-01  0.1000E-01
    -21.967  0.7811E-12  0.1125E-11  0.1000E-01  0.1000E-01
    -21.788  0.4760E-06  0.5991E-06  0.1000E-01  0.1000E-01
    -21.608  0.8028E-03  0.8930E-03  0.1014E-01  0.1016E-01
    -21.429  0.1110E-01  0.1133E-01  0.1213E-01  0.1219E-01
    -21.250  0.1284E-01  0.1277E-01  0.1444E-01  0.1448E-01
    -21.071  0.1024E-01  0.1038E-01  0.1627E-01  0.1634E-01
    -20.891  0.1519E-01  0.1534E-01  0.1899E-01  0.1909E-01
    -20.712  0.1046E-01  0.1033E-01  0.2087E-01  0.2094E-01
    -20.533  0.1365E-01  0.1390E-01  0.2332E-01  0.2343E-01
    -20.353  0.1604E-01  0.1599E-01  0.2619E-01  0.2630E-01
    -20.174  0.1304E-01  0.1316E-01  0.2853E-01  0.2866E-01
    -19.995  0.1266E-01  0.1247E-01  0.3080E-01  0.3090E-01
    -19.816  0.9263E-02  0.9410E-02  0.3246E-01  0.3258E-01
    -19.636  0.1884E-01  0.1897E-01  0.3584E-01  0.3598E-01
    -19.457  0.1349E-01  0.1348E-01  0.3826E-01  0.3840E-01
    -19.278  0.1615E-01  0.1624E-01  0.4115E-01  0.4131E-01
    -19.099  0.1196E-01  0.1174E-01  0.4330E-01  0.4342E-01
    -18.919  0.1082E-01  0.1098E-01  0.4524E-01  0.4538E-01
    -18.740  0.1382E-01  0.1359E-01  0.4772E-01  0.4782E-01
    -18.561  0.1337E-01  0.1361E-01  0.5011E-01  0.5026E-01
    -18.381  0.1756E-01  0.1763E-01  0.5326E-01  0.5342E-01
    -18.202  0.2009E-01  0.2031E-01  0.5686E-01  0.5706E-01
    -18.023  0.1306E-01  0.1263E-01  0.5920E-01  0.5933E-01
    -17.844  0.9601E-02  0.9307E-02  0.6093E-01  0.6100E-01
    -17.664  0.7209E-02  0.7686E-02  0.6222E-01  0.6237E-01
    -17.485  0.1798E-01  0.1821E-01  0.6544E-01  0.6564E-01
    -17.306  0.1841E-01  0.1810E-01  0.6874E-01  0.6888E-01
    -17.127  0.1915E-01  0.1963E-01  0.7217E-01  0.7240E-01
    -16.947  0.1808E-01  0.1757E-01  0.7542E-01  0.7555E-01
    -16.768  0.1582E-01  0.1572E-01  0.7825E-01  0.7837E-01
    -16.589  0.1237E-01  0.1249E-01  0.8047E-01  0.8061E-01
    -16.409  0.1195E-01  0.1211E-01  0.8261E-01  0.8278E-01
    -16.230  0.1062E-01  0.1029E-01  0.8452E-01  0.8462E-01
    -16.051  0.1566E-01  0.1625E-01  0.8732E-01  0.8753E-01
    -15.872  0.1738E-01  0.1725E-01  0.9044E-01  0.9063E-01
    -15.692  0.8448E-02  0.8021E-02  0.9196E-01  0.9206E-01
    -15.513  0.8781E-02  0.8864E-02  0.9353E-01  0.9365E-01
    -15.334  0.9622E-02  0.1009E-01  0.9525E-01  0.9546E-01
    -15.155  0.1646E-01  0.1641E-01  0.9820E-01  0.9840E-01
    -14.975  0.1418E-01  0.1386E-01  0.1007E+00  0.1009E+00
    -14.796  0.1531E-01  0.1533E-01  0.1035E+00  0.1036E+00
    -14.617  0.1608E-01  0.1613E-01  0.1064E+00  0.1065E+00
    -14.437  0.1540E-01  0.1537E-01  0.1091E+00  0.1093E+00
    -14.258  0.1245E-01  0.1264E-01  0.1114E+00  0.1115E+00
    -14.079  0.1994E-01  0.1967E-01  0.1149E+00  0.1151E+00
    -13.900  0.1945E-01  0.2007E-01  0.1184E+00  0.1187E+00
    -13.720  0.1400E-01  0.1303E-01  0.1209E+00  0.1210E+00
    -13.541  0.9935E-02  0.1047E-01  0.1227E+00  0.1229E+00
    -13.362  0.1898E-01  0.1900E-01  0.1261E+00  0.1263E+00
    -13.183  0.8641E-02  0.8488E-02  0.1277E+00  0.1278E+00
    -13.003  0.1298E-01  0.1285E-01  0.1300E+00  0.1301E+00
    -12.824  0.1415E-01  0.1437E-01  0.1325E+00  0.1327E+00
    -12.645  0.2057E-01  0.2064E-01  0.1362E+00  0.1364E+00
    -12.465  0.1185E-01  0.1166E-01  0.1383E+00  0.1385E+00
    -12.286  0.8785E-02  0.8346E-02  0.1399E+00  0.1400E+00
    -12.107  0.1062E-01  0.1107E-01  0.1418E+00  0.1420E+00
    -11.928  0.1963E-01  0.1957E-01  0.1453E+00  0.1455E+00
    -11.748  0.2096E-01  0.2150E-01  0.1491E+00  0.1493E+00
    -11.569  0.2941E-01  0.2933E-01  0.1544E+00  0.1546E+00
    -11.390  0.1429E-01  0.1344E-01  0.1569E+00  0.1570E+00
    -11.211  0.8213E-02  0.8405E-02  0.1584E+00  0.1585E+00
    -11.031  0.1589E-01  0.1616E-01  0.1613E+00  0.1614E+00
    -10.852  0.1546E-01  0.1521E-01  0.1640E+00  0.1641E+00
    -10.673  0.1564E-01  0.1589E-01  0.1668E+00  0.1670E+00
    -10.493  0.2006E-01  0.2045E-01  0.1704E+00  0.1706E+00
    -10.314  0.2838E-01  0.2859E-01  0.1755E+00  0.1758E+00
    -10.135  0.2417E-01  0.2361E-01  0.1798E+00  0.1800E+00
     -9.956  0.2609E-01  0.2623E-01  0.1845E+00  0.1847E+00
     -9.776  0.2020E-01  0.1987E-01  0.1881E+00  0.1883E+00
     -9.597  0.2203E-01  0.2242E-01  0.1921E+00  0.1923E+00
     -9.418  0.2908E-01  0.2928E-01  0.1973E+00  0.1975E+00
     -9.239  0.3491E-01  0.3466E-01  0.2036E+00  0.2037E+00
     -9.059  0.2809E-01  0.2846E-01  0.2086E+00  0.2088E+00
     -8.880  0.3555E-01  0.3517E-01  0.2150E+00  0.2151E+00
     -8.701  0.3685E-01  0.3712E-01  0.2216E+00  0.2218E+00
     -8.521  0.4706E-01  0.4832E-01  0.2300E+00  0.2305E+00
     -8.342  0.4666E-01  0.4563E-01  0.2384E+00  0.2386E+00
     -8.163  0.3491E-01  0.3447E-01  0.2446E+00  0.2448E+00
     -7.984  0.3334E-01  0.3420E-01  0.2506E+00  0.2510E+00
     -7.804  0.2907E-01  0.2804E-01  0.2558E+00  0.2560E+00
     -7.625  0.1735E-01  0.1738E-01  0.2589E+00  0.2591E+00
     -7.446  0.3677E-01  0.3789E-01  0.2655E+00  0.2659E+00
     -7.267  0.3621E-01  0.3550E-01  0.2720E+00  0.2723E+00
     -7.087  0.3805E-01  0.3783E-01  0.2788E+00  0.2790E+00
     -6.908  0.3507E-01  0.3475E-01  0.2851E+00  0.2853E+00
     -6.729  0.1631E-01  0.1646E-01  0.2881E+00  0.2882E+00
     -6.549  0.1398E-01  0.1405E-01  0.2906E+00  0.2907E+00
     -6.370  0.2318E-01  0.2104E-01  0.2947E+00  0.2945E+00
     -6.191  0.3737E-01  0.3926E-01  0.3014E+00  0.3015E+00
     -6.012  0.3074E-01  0.3095E-01  0.3069E+00  0.3071E+00
     -5.832  0.3005E-01  0.2988E-01  0.3123E+00  0.3124E+00
     -5.653  0.2412E-01  0.2186E-01  0.3166E+00  0.3164E+00
     -5.474  0.1475E-01  0.1616E-01  0.3193E+00  0.3193E+00
     -5.295  0.1900E-01  0.1839E-01  0.3227E+00  0.3226E+00
     -5.115  0.1779E-01  0.1510E-01  0.3259E+00  0.3253E+00
     -4.936  0.3073E-01  0.2513E-01  0.3314E+00  0.3298E+00
     -4.757  0.2946E-01  0.3625E-01  0.3367E+00  0.3363E+00
     -4.577  0.3322E-01  0.3257E-01  0.3426E+00  0.3421E+00
     -4.398  0.1240E-01  0.1516E-01  0.3449E+00  0.3448E+00
     -4.219  0.5304E-02  0.3586E-02  0.3458E+00  0.3455E+00
     -4.040  0.1969E-01  0.1141E-01  0.3493E+00  0.3475E+00
     -3.860  0.2079E-01  0.1543E-01  0.3531E+00  0.3503E+00
     -3.681  0.1249E-01  0.1787E-01  0.3553E+00  0.3535E+00
     -3.502  0.9497E-02  0.1868E-01  0.3570E+00  0.3568E+00
     -3.323  0.1422E-01  0.1054E-01  0.3596E+00  0.3587E+00
     -3.143  0.1616E-01  0.7236E-02  0.3624E+00  0.3600E+00
     -2.964  0.7650E-02  0.7359E-02  0.3638E+00  0.3613E+00
     -2.785  0.1039E-01  0.2854E-02  0.3657E+00  0.3619E+00
     -2.605  0.4258E-02  0.1293E-03  0.3664E+00  0.3619E+00
     -2.426  0.2319E-02  0.1698E-04  0.3669E+00  0.3619E+00
     -2.247  0.1664E-02  0.3149E-02  0.3672E+00  0.3624E+00
     -2.068  0.6175E-02  0.1292E-01  0.3683E+00  0.3648E+00
     -1.888  0.3713E-02  0.4774E-02  0.3689E+00  0.3656E+00
     -1.709  0.8855E-02  0.1203E-02  0.3705E+00  0.3658E+00
     -1.530  0.1277E-01  0.2412E-02  0.3728E+00  0.3663E+00
     -1.351  0.1430E-01  0.5127E-02  0.3754E+00  0.3672E+00
     -1.171  0.9205E-02  0.5259E-02  0.3770E+00  0.3681E+00
     -0.992  0.6248E-02  0.9345E-02  0.3781E+00  0.3698E+00
     -0.813  0.1465E-01  0.2916E-01  0.3808E+00  0.3750E+00
     -0.633  0.2053E-01  0.2669E-01  0.3845E+00  0.3798E+00
     -0.454  0.1276E-01  0.2384E-01  0.3867E+00  0.3841E+00
     -0.275  0.1614E-01  0.2159E-01  0.3896E+00  0.3880E+00
     -0.096  0.1744E-01  0.2017E-01  0.3928E+00  0.3916E+00
      0.084  0.1105E-01  0.1148E-01  0.3947E+00  0.3936E+00
      0.263  0.1906E-01  0.1956E-01  0.3982E+00  0.3971E+00
      0.442  0.1957E-01  0.2564E-01  0.4017E+00  0.4017E+00
      0.621  0.1503E-01  0.1498E-01  0.4044E+00  0.4044E+00
      0.801  0.1353E-01  0.8353E-02  0.4068E+00  0.4059E+00
      0.980  0.1844E-01  0.1457E-01  0.4101E+00  0.4085E+00
      1.159  0.9972E-02  0.1683E-01  0.4119E+00  0.4115E+00
      1.339  0.1790E-01  0.1424E-01  0.4151E+00  0.4141E+00
      1.518  0.1677E-01  0.1889E-01  0.4181E+00  0.4175E+00
      1.697  0.2397E-01  0.2354E-01  0.4224E+00  0.4217E+00
      1.876  0.2477E-01  0.2414E-01  0.4268E+00  0.4260E+00
      2.056  0.3622E-01  0.3328E-01  0.4333E+00  0.4320E+00
      2.235  0.2947E-01  0.2840E-01  0.4386E+00  0.4371E+00
      2.414  0.2146E-01  0.1788E-01  0.4425E+00  0.4403E+00
      2.593  0.3959E-01  0.4099E-01  0.4496E+00  0.4476E+00
      2.773  0.4709E-01  0.5037E-01  0.4580E+00  0.4567E+00
      2.952  0.1099E-01  0.1812E-01  0.4600E+00  0.4599E+00
      3.131  0.1828E-03  0.4057E-03  0.4600E+00  0.4600E+00
      3.311  0.1835E-07  0.7381E-07  0.4600E+00  0.4600E+00
      3.490  0.4329E-14  0.4303E-13  0.4600E+00  0.4600E+00
      3.669  0.0000E+00  0.0000E+00  0.4600E+00  0.4600E+00
      3.848  0.0000E+00  0.0000E+00  0.4600E+00  0.4600E+00
      4.028  0.0000E+00  0.0000E+00  0.4600E+00  0.4600E+00
      4.207  0.0000E+00  0.0000E+00  0.4600E+00  0.4600E+00
      4.386  0.0000E+00  0.0000E+00  0.4600E+00  0.4600E+00
      4.565  0.0000E+00  0.0000E+00  0.4600E+00  0.4600E+00
      4.745  0.0000E+00  0.0000E+00  0.4600E+00  0.4600E+00
      4.924  0.0000E+00  0.0000E+00  0.4600E+00  0.4600E+00
      5.103  0.0000E+00  0.0000E+00  0.4600E+00  0.4600E+00
      5.283  0.0000E+00  0.0000E+00  0.4600E+00  0.4600E+00
