 vasp.5.4.4.18Apr17-6-g9f103f2a35 (build Jan 14 2022 15:04:31) complex          
  
 executed on             LinuxIFC date 2023.01.23  20:04:58
 running on   48 total cores
 distrk:  each k-point on   48 cores,    1 groups
 distr:  one band on NCORES_PER_BAND=  12 cores,    4 groups


--------------------------------------------------------------------------------------------------------


 INCAR:
 POTCAR:    PAW_PBE C 08Apr2002                   
 POTCAR:    PAW_PBE N 08Apr2002                   
 POTCAR:    PAW_PBE C 08Apr2002                   
 POTCAR:    PAW_PBE Cr_pv 02Aug2007               
 POTCAR:    PAW_PBE C 08Apr2002                   
   SHA256 =  253f7b50bb8d59471dbedb8285d89021f4a42ed1a2c5d38a03a736e69125dd95 C/
   COPYR  = (c) Copyright 08Apr2002 Georg Kresse                                
   COPYR  = This file is part of the software VASP. Any use, copying, and all ot
   COPYR  = If you do not have a valid VASP license, you may not use, copy or di
   VRHFIN =C: s2p2                                                              
   LEXCH  = PE                                                                  
   EATOM  =   147.1560 eV,   10.8157 Ry                                         
                                                                                
   TITEL  = PAW_PBE C 08Apr2002                                                 
   LULTRA =        F    use ultrasoft PP ?                                      
   IUNSCR =        1    unscreen: 0-lin 1-nonlin 2-no                           
   RPACOR =    1.200    partial core radius                                     
   POMASS =   12.011; ZVAL   =    4.000    mass and valenz                      
   RCORE  =    1.500    outmost cutoff radius                                   
   RWIGS  =    1.630; RWIGS  =    0.863    wigner-seitz radius (au A)           
   ENMAX  =  400.000; ENMIN  =  300.000 eV                                      
   ICORE  =        2    local potential                                         
   LCOR   =        T    correct aug charges                                     
   LPAW   =        T    paw PP                                                  
   EAUG   =  644.873                                                            
   DEXC   =    0.000                                                            
   RMAX   =    1.529    core radius for proj-oper                               
   RAUG   =    1.300    factor for augmentation sphere                          
   RDEP   =    1.501    radius for radial grids                                 
   RDEPT  =    1.300    core radius for aug-charge                              
                                                                                
   Atomic configuration                                                         
    4 entries                                                                   
     n  l   j            E        occ.                                          
     1  0  0.50      -273.3789   2.0000                                         
     2  0  0.50       -13.7508   2.0000                                         
     2  1  0.50        -5.2854   2.0000                                         
     3  2  1.50        -5.4423   0.0000                                         
   Description                                                                  
     l       E           TYP  RCUT    TYP  RCUT                                 
     0    -13.7508458     23  1.200                                             
     0     -8.2022199     23  1.200                                             
     1     -5.2854383     23  1.500                                             
     1     34.0145650     23  1.500                                             
     2     -5.4423304      7  1.500                                             
  local pseudopotential read in
  partial core-charges read in
  partial kinetic energy density read in
  atomic valenz-charges read in
  non local Contribution for L=           0  read in
    real space projection operators read in
  non local Contribution for L=           0  read in
    real space projection operators read in
  non local Contribution for L=           1  read in
    real space projection operators read in
  non local Contribution for L=           1  read in
    real space projection operators read in
    PAW grid and wavefunctions read in
 
   number of l-projection  operators is LMAX  =           4
   number of lm-projection operators is LMMAX =           8
 
 POTCAR:    PAW_PBE N 08Apr2002                   
   SHA256 =  e053789ff3a61a86a1b75d8a110fcc91f86041011e7b0817c7c99e4e8a6349d7 N/
   COPYR  = (c) Copyright 08Apr2002 Georg Kresse                                
   COPYR  = This file is part of the software VASP. Any use, copying, and all ot
   COPYR  = If you do not have a valid VASP license, you may not use, copy or di
   VRHFIN =N: s2p3                                                              
   LEXCH  = PE                                                                  
   EATOM  =   264.5486 eV,   19.4438 Ry                                         
                                                                                
   TITEL  = PAW_PBE N 08Apr2002                                                 
   LULTRA =        F    use ultrasoft PP ?                                      
   IUNSCR =        1    unscreen: 0-lin 1-nonlin 2-no                           
   RPACOR =    1.200    partial core radius                                     
   POMASS =   14.001; ZVAL   =    5.000    mass and valenz                      
   RCORE  =    1.500    outmost cutoff radius                                   
   RWIGS  =    1.400; RWIGS  =    0.741    wigner-seitz radius (au A)           
   ENMAX  =  400.000; ENMIN  =  300.000 eV                                      
   ICORE  =        2    local potential                                         
   LCOR   =        T    correct aug charges                                     
   LPAW   =        T    paw PP                                                  
   EAUG   =  627.112                                                            
   DEXC   =    0.000                                                            
   RMAX   =    1.529    core radius for proj-oper                               
   RAUG   =    1.300    factor for augmentation sphere                          
   RDEP   =    1.514    radius for radial grids                                 
   RDEPT  =    1.338    core radius for aug-charge                              
                                                                                
   Atomic configuration                                                         
    4 entries                                                                   
     n  l   j            E        occ.                                          
     1  0  0.50      -384.7179   2.0000                                         
     2  0  0.50       -18.5828   2.0000                                         
     2  1  0.50        -7.0898   3.0000                                         
     3  2  1.50        -6.8029   0.0000                                         
   Description                                                                  
     l       E           TYP  RCUT    TYP  RCUT                                 
     0    -18.5828119     23  1.200                                             
     0    -13.5018863     23  1.200                                             
     1     -7.0897853     23  1.500                                             
     1      9.5240782     23  1.500                                             
     2     -6.8029130      7  1.500                                             
  local pseudopotential read in
  partial core-charges read in
  partial kinetic energy density read in
  atomic valenz-charges read in
  non local Contribution for L=           0  read in
    real space projection operators read in
  non local Contribution for L=           0  read in
    real space projection operators read in
  non local Contribution for L=           1  read in
    real space projection operators read in
  non local Contribution for L=           1  read in
    real space projection operators read in
    PAW grid and wavefunctions read in
 
   number of l-projection  operators is LMAX  =           4
   number of lm-projection operators is LMMAX =           8
 
 POTCAR:    PAW_PBE C 08Apr2002                   
   SHA256 =  253f7b50bb8d59471dbedb8285d89021f4a42ed1a2c5d38a03a736e69125dd95 C/
   COPYR  = (c) Copyright 08Apr2002 Georg Kresse                                
   COPYR  = This file is part of the software VASP. Any use, copying, and all ot
   COPYR  = If you do not have a valid VASP license, you may not use, copy or di
   VRHFIN =C: s2p2                                                              
   LEXCH  = PE                                                                  
   EATOM  =   147.1560 eV,   10.8157 Ry                                         
                                                                                
   TITEL  = PAW_PBE C 08Apr2002                                                 
   LULTRA =        F    use ultrasoft PP ?                                      
   IUNSCR =        1    unscreen: 0-lin 1-nonlin 2-no                           
   RPACOR =    1.200    partial core radius                                     
   POMASS =   12.011; ZVAL   =    4.000    mass and valenz                      
   RCORE  =    1.500    outmost cutoff radius                                   
   RWIGS  =    1.630; RWIGS  =    0.863    wigner-seitz radius (au A)           
   ENMAX  =  400.000; ENMIN  =  300.000 eV                                      
   ICORE  =        2    local potential                                         
   LCOR   =        T    correct aug charges                                     
   LPAW   =        T    paw PP                                                  
   EAUG   =  644.873                                                            
   DEXC   =    0.000                                                            
   RMAX   =    1.529    core radius for proj-oper                               
   RAUG   =    1.300    factor for augmentation sphere                          
   RDEP   =    1.501    radius for radial grids                                 
   RDEPT  =    1.300    core radius for aug-charge                              
                                                                                
   Atomic configuration                                                         
    4 entries                                                                   
     n  l   j            E        occ.                                          
     1  0  0.50      -273.3789   2.0000                                         
     2  0  0.50       -13.7508   2.0000                                         
     2  1  0.50        -5.2854   2.0000                                         
     3  2  1.50        -5.4423   0.0000                                         
   Description                                                                  
     l       E           TYP  RCUT    TYP  RCUT                                 
     0    -13.7508458     23  1.200                                             
     0     -8.2022199     23  1.200                                             
     1     -5.2854383     23  1.500                                             
     1     34.0145650     23  1.500                                             
     2     -5.4423304      7  1.500                                             
  local pseudopotential read in
  partial core-charges read in
  partial kinetic energy density read in
  atomic valenz-charges read in
  non local Contribution for L=           0  read in
    real space projection operators read in
  non local Contribution for L=           0  read in
    real space projection operators read in
  non local Contribution for L=           1  read in
    real space projection operators read in
  non local Contribution for L=           1  read in
    real space projection operators read in
    PAW grid and wavefunctions read in
 
   number of l-projection  operators is LMAX  =           4
   number of lm-projection operators is LMMAX =           8
 
 POTCAR:    PAW_PBE Cr_pv 02Aug2007               
   SHA256 =  c9a7df34d3cdbacf1090e328ef39c0b420964e11c23f63548d1ac9dd218cdba0 Cr
   COPYR  = (c) Copyright 02Aug2007 Georg Kresse                                
   COPYR  = This file is part of the software VASP. Any use, copying, and all ot
   COPYR  = If you do not have a valid VASP license, you may not use, copy or di
   VRHFIN =Cr : p6d5s1                                                          
   LEXCH  = PE                                                                  
   EATOM  =  1647.9177 eV,  121.1185 Ry                                         
                                                                                
   TITEL  = PAW_PBE Cr_pv 02Aug2007                                             
   LULTRA =        F    use ultrasoft PP ?                                      
   IUNSCR =        1    unscreen: 0-lin 1-nonlin 2-no                           
   RPACOR =    2.080    partial core radius                                     
   POMASS =   51.996; ZVAL   =   12.000    mass and valenz                      
   RCORE  =    2.300    outmost cutoff radius                                   
   RWIGS  =    2.500; RWIGS  =    1.323    wigner-seitz radius (au A)           
   ENMAX  =  265.681; ENMIN  =  199.261 eV                                      
   ICORE  =        3    local potential                                         
   LCOR   =        T    correct aug charges                                     
   LPAW   =        T    paw PP                                                  
   EAUG   =  519.424                                                            
   DEXC   =    0.000                                                            
   RMAX   =    2.356    core radius for proj-oper                               
   RAUG   =    1.300    factor for augmentation sphere                          
   RDEP   =    2.447    radius for radial grids                                 
   RDEPT  =    1.882    core radius for aug-charge                              
                                                                                
   Atomic configuration                                                         
    8 entries                                                                   
     n  l   j            E        occ.                                          
     1  0  0.50     -5880.4963   2.0000                                         
     2  0  0.50      -667.0865   2.0000                                         
     2  1  1.50      -560.6250   6.0000                                         
     3  0  0.50       -73.9860   2.0000                                         
     3  1  1.50       -45.4378   6.0000                                         
     3  2  2.50        -2.9137   5.0000                                         
     4  0  0.50        -4.0071   1.0000                                         
     4  3  2.50        -1.3606   0.0000                                         
   Description                                                                  
     l       E           TYP  RCUT    TYP  RCUT                                 
     1    -45.4377911     23  2.000                                             
     1      1.3605826     23  2.000                                             
     2     -2.9136672     23  2.300                                             
     2     -4.2742498     23  2.300                                             
     0     -4.0071320     23  2.300                                             
     0      9.4498803     23  2.300                                             
     3      2.7211652     23  2.300                                             
  local pseudopotential read in
  partial core-charges read in
  partial kinetic energy density read in
  atomic valenz-charges read in
  non local Contribution for L=           1  read in
    real space projection operators read in
  non local Contribution for L=           1  read in
    real space projection operators read in
  non local Contribution for L=           2  read in
    real space projection operators read in
  non local Contribution for L=           2  read in
    real space projection operators read in
  non local Contribution for L=           0  read in
    real space projection operators read in
  non local Contribution for L=           0  read in
    real space projection operators read in
    PAW grid and wavefunctions read in
 
   number of l-projection  operators is LMAX  =           6
   number of lm-projection operators is LMMAX =          18
 
 Optimization of the real space projectors (new method)

 maximal supplied QI-value         = 25.13
 optimisation between [QCUT,QGAM] = [ 10.56, 21.36] = [ 31.20,127.80] Ry 
 Optimized for a Real-space Cutoff    1.32 Angstroem

   l    n(q)    QCUT    max X(q) W(low)/X(q) W(high)/X(q)  e(spline) 
   0      8    10.556   115.676    0.17E-03    0.39E-03    0.26E-06
   0      8    10.556    87.132    0.17E-03    0.39E-03    0.26E-06
   1      8    10.556     4.429    0.24E-03    0.31E-03    0.16E-06
   1      8    10.556     2.733    0.17E-03    0.22E-03    0.19E-06
 Optimization of the real space projectors (new method)

 maximal supplied QI-value         = 25.13
 optimisation between [QCUT,QGAM] = [ 10.56, 21.36] = [ 31.20,127.80] Ry 
 Optimized for a Real-space Cutoff    1.40 Angstroem

   l    n(q)    QCUT    max X(q) W(low)/X(q) W(high)/X(q)  e(spline) 
   0      9    10.556    79.467    0.20E-03    0.22E-03    0.30E-06
   0      9    10.556    66.151    0.20E-03    0.22E-03    0.30E-06
   1      8    10.556    12.181    0.10E-03    0.78E-03    0.19E-05
   1      8    10.556     8.434    0.11E-03    0.81E-03    0.19E-05
 Optimization of the real space projectors (new method)

 maximal supplied QI-value         = 25.13
 optimisation between [QCUT,QGAM] = [ 10.56, 21.36] = [ 31.20,127.80] Ry 
 Optimized for a Real-space Cutoff    1.32 Angstroem

   l    n(q)    QCUT    max X(q) W(low)/X(q) W(high)/X(q)  e(spline) 
   0      8    10.556   115.676    0.17E-03    0.39E-03    0.26E-06
   0      8    10.556    87.132    0.17E-03    0.39E-03    0.26E-06
   1      8    10.556     4.429    0.24E-03    0.31E-03    0.16E-06
   1      8    10.556     2.733    0.17E-03    0.22E-03    0.19E-06
 Optimization of the real space projectors (new method)

 maximal supplied QI-value         = 16.25
 optimisation between [QCUT,QGAM] = [ 10.73, 21.45] = [ 32.22,128.87] Ry 
 Optimized for a Real-space Cutoff    1.53 Angstroem

   l    n(q)    QCUT    max X(q) W(low)/X(q) W(high)/X(q)  e(spline) 
   1      9    10.726     3.262    0.64E-04    0.35E-04    0.11E-06
   1      9    10.726     5.741    0.13E-03    0.48E-04    0.19E-06
   2      9    10.726    60.438    0.12E-03    0.29E-04    0.13E-06
   2      9    10.726    55.380    0.12E-03    0.29E-04    0.13E-06
   0     10    10.726    80.273    0.43E-04    0.74E-05    0.81E-07
   0     10    10.726    36.654    0.34E-04    0.61E-05    0.73E-07
  PAW_PBE C 08Apr2002                   :
 energy of atom  1       EATOM= -147.1560
 kinetic energy error for atom=    0.0132 (will be added to EATOM!!)
  PAW_PBE N 08Apr2002                   :
 energy of atom  2       EATOM= -264.5486
 kinetic energy error for atom=    0.0298 (will be added to EATOM!!)
  PAW_PBE C 08Apr2002                   :
 energy of atom  3       EATOM= -147.1560
 kinetic energy error for atom=    0.0132 (will be added to EATOM!!)
  PAW_PBE Cr_pv 02Aug2007               :
 energy of atom  4       EATOM=-1647.9177
 kinetic energy error for atom=    0.0134 (will be added to EATOM!!)
 
 
 POSCAR: POSCAR-clean                            
  positions in direct lattice
  velocities in cartesian coordinates
 exchange correlation table for  LEXCH =        8
   RHO(1)=    0.500       N(1)  =     2000
   RHO(2)=  100.500       N(2)  =     4000

 VTST: version 3.2, (02/03/18)

 CHAIN: initializing optimizer
 
 OPT: Using VASP Conjugate-Gradient optimizer
 CHAIN: Read ICHAIN            0
 
 POSCAR: POSCAR-clean                            
  positions in direct lattice
  velocities in cartesian coordinates
 


--------------------------------------------------------------------------------------------------------


 ion  position               nearest neighbor table
   1  1.000  1.000  0.498-   2 1.42  60 1.42  70 1.43
   2  0.056  0.111  0.498-   1 1.42  13 1.42  15 1.44
   3  0.168  0.002  0.498-   4 1.42  62 1.42  60 1.43
   4  0.224  0.113  0.498-   3 1.42  15 1.42  17 1.43
   5  0.335  0.002  0.498-   6 1.42  64 1.43  62 1.43
   6  0.391  0.114  0.498-   5 1.42  17 1.43  19 1.43
   7  0.500  0.000  0.498-   8 1.42  64 1.42  66 1.43
   8  0.556  0.111  0.498-   7 1.42  21 1.42  19 1.43
   9  0.666  0.998  0.498-  66 1.42  10 1.42  68 1.44
  10  0.722  0.110  0.498-  23 1.42   9 1.42  21 1.43
  11  0.832  0.998  0.498-  12 1.42  70 1.42  68 1.43
  12  0.888  0.109  0.498-  11 1.42  23 1.43  13 1.43
  13  0.999  0.166  0.498-  14 1.42   2 1.42  12 1.43
  14  0.054  0.277  0.498-  13 1.42  25 1.43  27 1.43
  15  0.168  0.168  0.498-  16 1.42   4 1.42   2 1.44
  16  0.223  0.280  0.500-  15 1.42  27 1.43  29 1.45
  17  0.335  0.170  0.499-  18 1.42   6 1.43   4 1.43
  18  0.392  0.282  0.502-  17 1.42  29 1.44  31 1.44
  19  0.502  0.169  0.498-  20 1.42   6 1.43   8 1.43
  20  0.558  0.280  0.500-  33 1.41  19 1.42  31 1.44
  21  0.666  0.166  0.498-  22 1.42   8 1.42  10 1.43
  22  0.722  0.277  0.498-  33 1.41  21 1.42  35 1.42
  23  0.832  0.165  0.498-  24 1.42  10 1.42  12 1.43
  24  0.888  0.276  0.498-  23 1.42  25 1.43  35 1.43
  25  0.999  0.332  0.498-  26 1.42  14 1.43  24 1.43
  26  0.054  0.444  0.499-  39 1.42  37 1.42  25 1.42
  27  0.166  0.333  0.500-  28 1.42  16 1.43  14 1.43
  28  0.219  0.444  0.502-  41 1.41  27 1.42  39 1.42
  29  0.336  0.338  0.503-  30 1.42  18 1.44  16 1.45
  30  0.389  0.449  0.509-  41 1.41  29 1.42  71 1.96
  31  0.504  0.338  0.504-  32 1.43  18 1.44  20 1.44
  32  0.561  0.450  0.512-  43 1.41  31 1.43  71 2.00
  33  0.668  0.333  0.500-  34 1.40  20 1.41  22 1.41
  34  0.724  0.443  0.501-  43 1.40  33 1.40  45 1.42
  35  0.833  0.333  0.498-  22 1.42  36 1.42  24 1.43
  36  0.890  0.444  0.498-  45 1.41  37 1.41  35 1.42
  37  1.000  0.500  0.498-  36 1.41  26 1.42  38 1.42
  38  0.056  0.611  0.498-  47 1.42  49 1.42  37 1.42
  39  0.165  0.500  0.500-  26 1.42  28 1.42  40 1.42
  40  0.221  0.611  0.500-  49 1.42  51 1.42  39 1.42
  41  0.329  0.500  0.505-  28 1.41  30 1.41  42 1.43
  42  0.386  0.612  0.505-  53 1.41  51 1.42  41 1.43
  43  0.671  0.498  0.505-  34 1.40  32 1.41  44 1.43
  44  0.727  0.611  0.505-  57 1.41  55 1.41  43 1.43
  45  0.835  0.499  0.499-  36 1.41  34 1.42  46 1.42
  46  0.890  0.611  0.499-  57 1.42  47 1.42  45 1.42
  47  0.001  0.667  0.498-  38 1.42  46 1.42  48 1.42
  48  0.056  0.779  0.498-  59 1.42  47 1.42  61 1.42
  49  0.166  0.667  0.499-  40 1.42  38 1.42  50 1.42
  50  0.222  0.779  0.498-  61 1.42  49 1.42  63 1.42
  51  0.331  0.667  0.502-  52 1.42  42 1.42  40 1.42
  52  0.388  0.778  0.500-  51 1.42  65 1.42  63 1.43
  53  0.495  0.663  0.509-  42 1.41  54 1.42  71 1.97
  54  0.553  0.774  0.503-  53 1.42  67 1.43  65 1.44
  55  0.667  0.661  0.510-  44 1.41  56 1.43  71 2.00
  56  0.720  0.772  0.504-  55 1.43  67 1.44  69 1.44
  57  0.836  0.667  0.501-  44 1.41  46 1.42  58 1.42
  58  0.890  0.778  0.500-  57 1.42  69 1.42  59 1.43
  59  0.001  0.834  0.498-  60 1.42  48 1.42  58 1.43
  60  0.057  0.946  0.498-  59 1.42   1 1.42   3 1.43
  61  0.167  0.835  0.498-  50 1.42  62 1.42  48 1.42
  62  0.223  0.946  0.498-  61 1.42   3 1.42   5 1.43
  63  0.333  0.835  0.498-  64 1.42  50 1.42  52 1.43
  64  0.389  0.946  0.498-  63 1.42   7 1.42   5 1.43
  65  0.499  0.832  0.500-  66 1.42  52 1.42  54 1.44
  66  0.555  0.943  0.498-   9 1.42  65 1.42   7 1.43
  67  0.665  0.830  0.502-  68 1.42  54 1.43  56 1.44
  68  0.721  0.941  0.499-  67 1.42  11 1.43   9 1.44
  69  0.832  0.831  0.500-  58 1.42  70 1.43  56 1.44
  70  0.888  0.943  0.498-  11 1.42  69 1.43   1 1.43
  71  0.525  0.556  0.556-  30 1.96  53 1.97  32 2.00  55 2.00
 

IMPORTANT INFORMATION: All symmetrisations will be switched off!
NOSYMM: (Re-)initialisation of all symmetry stuff for point group C_1.

 
 
 KPOINTS: K-Points                                

Automatic generation of k-mesh.
Space group operators:
 irot       det(A)        alpha          n_x          n_y          n_z        tau_x        tau_y        tau_z
    1     1.000000     0.000000     1.000000     0.000000     0.000000     0.000000     0.000000     0.000000
 
 Subroutine IBZKPT returns following result:
 ===========================================
 
 Found      4 irreducible k-points:
 
 Following reciprocal coordinates:
            Coordinates               Weight
  0.000000  0.000000  0.000000      1.000000
  0.500000 -0.000000  0.000000      1.000000
 -0.000000  0.500000  0.000000      1.000000
  0.500000  0.500000  0.000000      1.000000
 
 Following cartesian coordinates:
            Coordinates               Weight
  0.000000  0.000000  0.000000      1.000000
  0.033651  0.019610  0.000000      1.000000
  0.000008  0.039220  0.000000      1.000000
  0.033659  0.058830  0.000000      1.000000
 


--------------------------------------------------------------------------------------------------------




 Dimension of arrays:
   k-points           NKPTS =      4   k-points in BZ     NKDIM =      4   number of bands    NBANDS=    184
   number of dos      NEDOS =    301   number of ions     NIONS =     71
   non local maximal  LDIM  =      6   non local SUM 2l+1 LMDIM =     18
   total plane-waves  NPLWV = ******
   max r-space proj   IRMAX =   6647   max aug-charges    IRDMAX=  15623
   dimension x,y,z NGX =   108 NGY =  108 NGZ =  108
   dimension x,y,z NGXF=   216 NGYF=  216 NGZF=  216
   support grid    NGXF=   216 NGYF=  216 NGZF=  216
   ions per type =              32   1  37   1
   NGX,Y,Z   is equivalent  to a cutoff of  12.08, 12.17, 11.97 a.u.
   NGXF,Y,Z  is equivalent  to a cutoff of  24.16, 24.33, 23.94 a.u.

 SYSTEM =  unknown system                          
 POSCAR =  POSCAR-clean                            

 Startparameter for this run:
   NWRITE =      2    write-flag & timer
   PREC   = accura    normal or accurate (medium, high low for compatibility)
   ISTART =      0    job   : 0-new  1-cont  2-samecut
   ICHARG =      2    charge: 1-file 2-atom 10-const
   ISPIN  =      2    spin polarized calculation?
   LNONCOLLINEAR =      F non collinear calculations
   LSORBIT =      F    spin-orbit coupling
   INIWAV =      1    electr: 0-lowe 1-rand  2-diag
   LASPH  =      F    aspherical Exc in radial PAW
   METAGGA=      F    non-selfconsistent MetaGGA calc.

 Electronic Relaxation 1
   ENCUT  =  440.0 eV  32.34 Ry    5.69 a.u.  25.42 25.24 25.66*2*pi/ulx,y,z
   ENINI  =  440.0     initial cutoff
   ENAUG  =  644.9 eV  augmentation charge cutoff
   NELM   =     50;   NELMIN=  2; NELMDL= -5     # of ELM steps 
   EDIFF  = 0.1E-04   stopping-criterion for ELM
   LREAL  =      T    real-space projection
   NLSPLINE    = F    spline interpolate recip. space projectors
   LCOMPAT=      F    compatible to vasp.4.4
   GGA_COMPAT  = T    GGA compatible to vasp.4.4-vasp.4.6
   LMAXPAW     = -100 max onsite density
   LMAXMIX     =    2 max onsite mixed and CHGCAR
   VOSKOWN=      0    Vosko Wilk Nusair interpolation
   ROPT   =   -0.00025  -0.00025  -0.00025  -0.00025
 Ionic relaxation
   EDIFFG = -.5E-01   stopping-criterion for IOM
   NSW    =    400    number of steps for IOM
   NBLOCK =      1;   KBLOCK =    400    inner block; outer block 
   IBRION =      2    ionic relax: 0-MD 1-quasi-New 2-CG
   NFREE  =      1    steps in history (QN), initial steepest desc. (CG)
   ISIF   =      2    stress and relaxation
   IWAVPR =     11    prediction:  0-non 1-charg 2-wave 3-comb
   ISYM   =      0    0-nonsym 1-usesym 2-fastsym
   LCORR  =      T    Harris-Foulkes like correction to forces

   POTIM  = 0.3000    time-step for ionic-motion
   TEIN   =    0.0    initial temperature
   TEBEG  =    0.0;   TEEND  =   0.0 temperature during run
   SMASS  =  -3.00    Nose mass-parameter (am)
   estimated Nose-frequenzy (Omega)   =  0.10E-29 period in steps =****** mass=  -0.505E-26a.u.
   SCALEE = 1.0000    scale energy and forces
   NPACO  =    256;   APACO  = 16.0  distance and # of slots for P.C.
   PSTRESS=    0.0 pullay stress

  Mass of Ions in am
   POMASS =  12.01 14.00 12.01 52.00
  Ionic Valenz
   ZVAL   =   4.00  5.00  4.00 12.00
  Atomic Wigner-Seitz radii
   RWIGS  =  -1.00 -1.00 -1.00 -1.00
  virtual crystal weights 
   VCA    =   1.00  1.00  1.00  1.00
   NELECT =     293.0000    total number of electrons
   NUPDOWN=      -1.0000    fix difference up-down

 DOS related values:
   EMIN   =  10.00;   EMAX   =-10.00  energy-range for DOS
   EFERMI =   0.00
   ISMEAR =     0;   SIGMA  =   0.10  broadening in eV -4-tet -1-fermi 0-gaus

 Electronic relaxation 2 (details)
   IALGO  =     68    algorithm
   LDIAG  =      T    sub-space diagonalisation (order eigenvalues)
   LSUBROT=      F    optimize rotation matrix (better conditioning)
   TURBO    =      0    0=normal 1=particle mesh
   IRESTART =      0    0=no restart 2=restart with 2 vectors
   NREBOOT  =      0    no. of reboots
   NMIN     =      0    reboot dimension
   EREF     =   0.00    reference energy to select bands
   IMIX   =      4    mixing-type and parameters
     AMIX     =   0.40;   BMIX     =  1.00
     AMIX_MAG =   1.60;   BMIX_MAG =  1.00
     AMIN     =   0.10
     WC   =   100.;   INIMIX=   1;  MIXPRE=   1;  MAXMIX= -45

 Intra band minimization:
   WEIMIN = 0.0010     energy-eigenvalue tresh-hold
   EBREAK =  0.14E-07  absolut break condition
   DEPER  =   0.30     relativ break condition  

   TIME   =   0.40     timestep for ELM

  volume/ion in A,a.u.               =      40.02       270.09
  Fermi-wavevector in a.u.,A,eV,Ry     =   0.767665  1.450676  8.018042  0.589309
  Thomas-Fermi vector in A             =   1.868270
 
 Write flags
   LWAVE        =      F    write WAVECAR
   LDOWNSAMPLE  =      F    k-point downsampling of WAVECAR
   LCHARG       =      F    write CHGCAR
   LVTOT        =      F    write LOCPOT, total local potential
   LVHAR        =      F    write LOCPOT, Hartree potential only
   LELF         =      F    write electronic localiz. function (ELF)
   LORBIT       =      0    0 simple, 1 ext, 2 COOP (PROOUT), +10 PAW based schemes


 Dipole corrections
   LMONO  =      F    monopole corrections only (constant potential shift)
   LDIPOL =      F    correct potential (dipole corrections)
   IDIPOL =      0    1-x, 2-y, 3-z, 4-all directions 
   EPSILON=  1.0000000 bulk dielectric constant

 Exchange correlation treatment:
   GGA     =    --    GGA type
   LEXCH   =     8    internal setting for exchange type
   VOSKOWN=      0    Vosko Wilk Nusair interpolation
   LHFCALC =     F    Hartree Fock is set to
   LHFONE  =     F    Hartree Fock one center treatment
   AEXX    =    0.0000 exact exchange contribution

 Linear response parameters
   LEPSILON=     F    determine dielectric tensor
   LRPA    =     F    only Hartree local field effects (RPA)
   LNABLA  =     F    use nabla operator in PAW spheres
   LVEL    =     F    velocity operator in full k-point grid
   LINTERFAST=   F  fast interpolation
   KINTER  =     0    interpolate to denser k-point grid
   CSHIFT  =0.1000    complex shift for real part using Kramers Kronig
   OMEGAMAX=  -1.0    maximum frequency
   DEG_THRESHOLD= 0.2000000E-02 threshold for treating states as degnerate
   RTIME   =   -0.100 relaxation time in fs
  (WPLASMAI=    0.000 imaginary part of plasma frequency in eV, 0.658/RTIME)
   DFIELD  = 0.0000000 0.0000000 0.0000000 field for delta impulse in time
 
 Orbital magnetization related:
   ORBITALMAG=     F  switch on orbital magnetization
   LCHIMAG   =     F  perturbation theory with respect to B field
   DQ        =  0.001000  dq finite difference perturbation B field
   LLRAUG    =     F  two centre corrections for induced B field



--------------------------------------------------------------------------------------------------------


 conjugate gradient relaxation of ions
 charge density and potential will be updated during run
 spin polarized calculation
 RMM-DIIS sequential band-by-band and
  variant of blocked Davidson during initial phase
 perform sub-space diagonalisation
    before iterative eigenvector-optimisation
 modified Broyden-mixing scheme, WC =      100.0
 initial mixing is a Kerker type mixing with AMIX =  0.4000 and BMIX =      1.0000
 Hartree-type preconditioning will be used
 using additional bands           37
 real space projection scheme for non local part
 use partial core corrections
 calculate Harris-corrections to forces 
   (improved forces if not selfconsistent)
 use gradient corrections 
 use of overlap-Matrix (Vanderbilt PP)
 Gauss-broadening in eV      SIGMA  =   0.10


--------------------------------------------------------------------------------------------------------


  energy-cutoff  :      440.00
  volume of cell :     2841.69
      direct lattice vectors                 reciprocal lattice vectors
    14.860178904 -0.003145218  0.000000000     0.067302242  0.039220069  0.000000000
    -7.430089452 12.750147992  0.000000000     0.000016602  0.078440137  0.000000000
     0.000000000  0.000000000 15.000000000     0.000000000  0.000000000  0.066666667

  length of vectors
    14.860179237 14.757117032 15.000000000     0.077896120  0.078440139  0.066666667


 
 k-points in units of 2pi/SCALE and weight: K-Points                                
   0.00000000  0.00000000  0.00000000       0.250
   0.03365112  0.01961003  0.00000000       0.250
   0.00000830  0.03922007  0.00000000       0.250
   0.03365942  0.05883010  0.00000000       0.250
 
 k-points in reciprocal lattice and weights: K-Points                                
   0.00000000  0.00000000  0.00000000       0.250
   0.50000000 -0.00000000  0.00000000       0.250
  -0.00000000  0.50000000  0.00000000       0.250
   0.50000000  0.50000000  0.00000000       0.250
 
 position of ions in fractional coordinates (direct lattice) 
   0.99987806  0.99967855  0.49768328
   0.05578591  0.11132635  0.49778648
   0.16800285  0.00191354  0.49755674
   0.22386818  0.11345602  0.49828795
   0.33463613  0.00232690  0.49769921
   0.39063405  0.11407586  0.49832891
   0.50020497  0.00017200  0.49781671
   0.55576868  0.11136420  0.49769717
   0.66587603  0.99825581  0.49832623
   0.72174768  0.11000467  0.49761384
   0.83225555  0.99785424  0.49843400
   0.88786588  0.10935840  0.49768600
   0.99916603  0.16559584  0.49777790
   0.05444026  0.27686947  0.49847436
   0.16758876  0.16812492  0.49843943
   0.22346231  0.27974723  0.49998756
   0.33548394  0.17011713  0.49926388
   0.39176621  0.28156009  0.50227303
   0.50199071  0.16897477  0.49817012
   0.55806748  0.28043142  0.49957289
   0.66640861  0.16641405  0.49773544
   0.72207354  0.27747888  0.49840137
   0.83247210  0.16513322  0.49757562
   0.88766778  0.27638035  0.49772702
   0.99882027  0.33228744  0.49822403
   0.05449763  0.44378301  0.49870782
   0.16559040  0.33291963  0.50008441
   0.21945904  0.44392971  0.50190979
   0.33611182  0.33775725  0.50313682
   0.38869982  0.44877705  0.50905658
   0.50393165  0.33848185  0.50379404
   0.56124859  0.44989617  0.51193327
   0.66769412  0.33287278  0.49962989
   0.72426115  0.44300271  0.50058130
   0.83261573  0.33256623  0.49809899
   0.88979546  0.44401002  0.49830909
   0.99990153  0.49974734  0.49820613
   0.05571427  0.61137722  0.49818164
   0.16471992  0.49979633  0.50042554
   0.22050637  0.61136364  0.50049017
   0.32949723  0.49951196  0.50513583
   0.38559704  0.61169908  0.50510526
   0.67052952  0.49831275  0.50487680
   0.72660302  0.61067475  0.50475760
   0.83475041  0.49885008  0.49937418
   0.89042456  0.61060589  0.49949624
   0.00097076  0.66692318  0.49826273
   0.05649348  0.77865685  0.49791145
   0.16623056  0.66735991  0.49868364
   0.22245242  0.77896670  0.49821337
   0.33100819  0.66737417  0.50206596
   0.38821868  0.77839122  0.50015199
   0.49537864  0.66284785  0.50871845
   0.55344599  0.77377672  0.50294740
   0.66675998  0.66053122  0.51006800
   0.71986451  0.77233335  0.50372447
   0.83624158  0.66674322  0.50097870
   0.89013410  0.77788260  0.49972698
   0.00119609  0.83419692  0.49813070
   0.05662936  0.94550606  0.49756625
   0.16746393  0.83473461  0.49765615
   0.22340505  0.94639136  0.49757206
   0.33336035  0.83457981  0.49849189
   0.38925684  0.94581113  0.49778012
   0.49915987  0.83178211  0.49994968
   0.55514896  0.94343136  0.49846426
   0.66500694  0.82957413  0.50233099
   0.72071763  0.94126545  0.49939670
   0.83230936  0.83085875  0.50009398
   0.88821530  0.94284257  0.49843419
   0.52507034  0.55562186  0.55550931
 
 position of ions in cartesian coordinates  (Angst):
   7.43066585 12.74290461  7.46524916
   0.00182385  1.41925196  7.46679723
   2.48233468  0.02386948  7.46335116
   2.48373290  1.44587691  7.47431921
   4.95546372  0.02861581  7.46548814
   4.95729807  1.45325543  7.47493372
   7.43185735  0.00061973  7.46725059
   7.43137610  1.41816202  7.46545749
   2.47790698 12.72581498  7.47489344
   9.90795512  1.40030570  7.46420756
   4.95332001 12.72017167  7.47651007
  12.38130310  1.39154330  7.46528999
  13.61739404  2.10822884  7.46666850
  -1.24817284  3.52995547  7.47711542
   1.24121584  2.14309048  7.47659144
   1.24214300  3.56611571  7.49981347
   3.72136588  2.16796336  7.48895823
   3.72969930  3.58870059  7.53409545
   6.20417402  2.15287451  7.47255181
   6.20935205  3.57378686  7.49359340
   8.66647983  2.11970775  7.46603166
   8.66844908  3.53562569  7.47602053
  11.14372981  2.10285464  7.46363424
  11.13737132  3.52109851  7.46590530
  12.37372243  4.23357253  7.47336041
  -2.48750300  5.65812765  7.48061729
  -0.01291971  4.24425370  7.50126621
  -0.03723696  5.65947930  7.52864678
   2.48511517  4.30539784  7.54705232
   2.44169532  5.72075121  7.63584865
   4.97356408  4.31410870  7.55691062
   4.99748563  5.73447756  7.67899909
   7.44877952  4.24207715  7.49444833
   7.47110046  5.64607213  7.50871954
   9.90182190  4.23764995  7.47148489
   9.92348546  5.65839493  7.47463632
  11.14554826  6.36870758  7.47309199
  -3.71466344  7.79497479  7.47272456
  -1.26576390  6.37195910  7.50638305
  -1.26572243  7.79428338  7.50735260
   1.18496921  6.36781503  7.57703750
   1.18506205  7.79804102  7.57657893
   6.26168032  6.35145232  7.57315193
   6.26008285  7.78390816  7.57136405
   8.69803978  6.35778682  7.49061272
   8.69501184  7.78251493  7.49244355
  -4.94087322  8.50336619  7.47394093
  -4.94598690  9.92781245  7.46867170
  -2.48832807  8.50841484  7.48025455
  -2.48210951  9.93124111  7.47320057
  -0.03980886  8.50807828  7.53098946
  -0.01451730  9.92338220  7.50227988
   2.43639643  8.44985014  7.63077671
   2.47507625  9.86402693  7.54421096
   5.00036651  8.41977365  7.65102004
   4.95880955  9.84510044  7.55586704
   7.47273773  8.49844457  7.51468045
   7.44781471  9.91531864  7.49590463
  -6.18038359 10.63613039  7.47196049
  -6.18367225 12.05516411  7.46349379
  -3.71360877 10.64246305  7.46484218
  -3.71193340 12.06592721  7.46358093
  -1.24720829 10.63996764  7.47737833
  -1.24303494 12.05800756  7.46670175
   1.23738950 10.60377497  7.49924520
   1.23983345 12.02714342  7.47696385
   3.71831211 10.57510140  7.53496484
   3.71630647 11.99900695  7.49095047
   6.19491106 10.59095429  7.50140977
   6.19363366 12.01858863  7.47651292
   3.67431916  7.08260944  8.33263970
 


--------------------------------------------------------------------------------------------------------


 k-point  1 :   0.0000 0.0000 0.0000  plane waves:   59561
 k-point  2 :   0.5000-0.0000 0.0000  plane waves:   59530
 k-point  3 :  -0.0000 0.5000 0.0000  plane waves:   59618
 k-point  4 :   0.5000 0.5000 0.0000  plane waves:   59554

 maximum and minimum number of plane-waves per node :      4985     4940

 maximum number of plane-waves:     59618
 maximum index in each direction: 
   IXMAX=   25   IYMAX=   25   IZMAX=   25
   IXMIN=  -25   IYMIN=  -25   IZMIN=  -25


 real space projection operators:
  total allocation   :      18900.61 KBytes
  max/ min on nodes  :       1623.50       1538.48


 parallel 3D FFT for wavefunctions:
    minimum data exchange during FFTs selected (reduces bandwidth)
 parallel 3D FFT for charge:
    minimum data exchange during FFTs selected (reduces bandwidth)


 total amount of memory used by VASP MPI-rank0   111516. kBytes
=======================================================================

   base      :      30000. kBytes
   nonlr-proj:       9878. kBytes
   fftplans  :      10852. kBytes
   grid      :      30996. kBytes
   one-center:        186. kBytes
   wavefun   :      29604. kBytes
 
     INWAV:  cpu time    0.0000: real time    0.0000
 Broyden mixing: mesh for mixing (old mesh)
   NGX = 51   NGY = 51   NGZ = 51
  (NGX  =216   NGY  =216   NGZ  =216)
  gives a total of 132651 points

 initial charge density was supplied:
 charge density of overlapping atoms calculated
 number of electron     293.0000000 magnetization       1.0000000
 keeping initial charge density in first step


--------------------------------------------------------------------------------------------------------


 Maximum index for non-local projection operator          552
 Maximum index for augmentation-charges          334 (set IRDMAX)


--------------------------------------------------------------------------------------------------------


 First call to EWALD:  gamma=   0.125
 Maximum number of real-space cells 3x 3x 3
 Maximum number of reciprocal cells 3x 3x 3

    FEWALD:  cpu time    0.0046: real time    0.0049


--------------------------------------- Iteration      1(   1)  ---------------------------------------


    POTLOK:  cpu time    0.3940: real time    0.4333
    SETDIJ:  cpu time    0.0124: real time    0.0125
     EDDAV:  cpu time   11.4130: real time   11.5409
       DOS:  cpu time    0.0013: real time    0.0013
    --------------------------------------------
      LOOP:  cpu time   11.8208: real time   11.9880

 eigenvalue-minimisations  :  3336
 total energy-change (2. order) : 0.2498613E+04  (-0.1076081E+05)
 number of electron     293.0000000 magnetization       1.0000000
 augmentation part      293.0000000 magnetization       1.0000000

 Free energy of the ion-electron system (eV)
  ---------------------------------------------------
  alpha Z        PSCENC =       157.31041027
  Ewald energy   TEWEN  =     30461.87089030
  -Hartree energ DENC   =    -39624.72862651
  -exchange      EXHF   =         0.00000000
  -V(xc)+E(xc)   XCENC  =       982.94176588
  PAW double counting   =      9000.30529238    -9089.18527416
  entropy T*S    EENTRO =        -0.10741307
  eigenvalues    EBANDS =     -1455.07175150
  atomic energy  EATOM  =     12065.27733323
  Solvation  Ediel_sol  =         0.00000000
  ---------------------------------------------------
  free energy    TOTEN  =      2498.61262681 eV

  energy without entropy =     2498.72003989  energy(sigma->0) =     2498.66633335


--------------------------------------------------------------------------------------------------------




--------------------------------------- Iteration      1(   2)  ---------------------------------------


     EDDAV:  cpu time   14.8741: real time   15.1825
       DOS:  cpu time    0.0010: real time    0.0010
    --------------------------------------------
      LOOP:  cpu time   14.8751: real time   15.1835

 eigenvalue-minimisations  :  4224
 total energy-change (2. order) :-0.2723080E+04  (-0.2602286E+04)
 number of electron     293.0000000 magnetization       1.0000000
 augmentation part      293.0000000 magnetization       1.0000000

 Free energy of the ion-electron system (eV)
  ---------------------------------------------------
  alpha Z        PSCENC =       157.31041027
  Ewald energy   TEWEN  =     30461.87089030
  -Hartree energ DENC   =    -39624.72862651
  -exchange      EXHF   =         0.00000000
  -V(xc)+E(xc)   XCENC  =       982.94176588
  PAW double counting   =      9000.30529238    -9089.18527416
  entropy T*S    EENTRO =        -0.01904849
  eigenvalues    EBANDS =     -4178.24040239
  atomic energy  EATOM  =     12065.27733323
  Solvation  Ediel_sol  =         0.00000000
  ---------------------------------------------------
  free energy    TOTEN  =      -224.46765950 eV

  energy without entropy =     -224.44861101  energy(sigma->0) =     -224.45813525


--------------------------------------------------------------------------------------------------------




--------------------------------------- Iteration      1(   3)  ---------------------------------------


     EDDAV:  cpu time   12.3449: real time   12.4950
       DOS:  cpu time    0.0009: real time    0.0009
    --------------------------------------------
      LOOP:  cpu time   12.3458: real time   12.4960

 eigenvalue-minimisations  :  3552
 total energy-change (2. order) :-0.4621862E+03  (-0.4593094E+03)
 number of electron     293.0000000 magnetization       1.0000000
 augmentation part      293.0000000 magnetization       1.0000000

 Free energy of the ion-electron system (eV)
  ---------------------------------------------------
  alpha Z        PSCENC =       157.31041027
  Ewald energy   TEWEN  =     30461.87089030
  -Hartree energ DENC   =    -39624.72862651
  -exchange      EXHF   =         0.00000000
  -V(xc)+E(xc)   XCENC  =       982.94176588
  PAW double counting   =      9000.30529238    -9089.18527416
  entropy T*S    EENTRO =        -0.01273705
  eigenvalues    EBANDS =     -4640.43289396
  atomic energy  EATOM  =     12065.27733323
  Solvation  Ediel_sol  =         0.00000000
  ---------------------------------------------------
  free energy    TOTEN  =      -686.65383963 eV

  energy without entropy =     -686.64110258  energy(sigma->0) =     -686.64747110


--------------------------------------------------------------------------------------------------------




--------------------------------------- Iteration      1(   4)  ---------------------------------------


     EDDAV:  cpu time   13.0429: real time   13.2581
       DOS:  cpu time    0.0009: real time    0.0009
    --------------------------------------------
      LOOP:  cpu time   13.0438: real time   13.2590

 eigenvalue-minimisations  :  3584
 total energy-change (2. order) :-0.1705141E+02  (-0.1690945E+02)
 number of electron     293.0000000 magnetization       1.0000000
 augmentation part      293.0000000 magnetization       1.0000000

 Free energy of the ion-electron system (eV)
  ---------------------------------------------------
  alpha Z        PSCENC =       157.31041027
  Ewald energy   TEWEN  =     30461.87089030
  -Hartree energ DENC   =    -39624.72862651
  -exchange      EXHF   =         0.00000000
  -V(xc)+E(xc)   XCENC  =       982.94176588
  PAW double counting   =      9000.30529238    -9089.18527416
  entropy T*S    EENTRO =        -0.00924511
  eigenvalues    EBANDS =     -4657.48779248
  atomic energy  EATOM  =     12065.27733323
  Solvation  Ediel_sol  =         0.00000000
  ---------------------------------------------------
  free energy    TOTEN  =      -703.70524621 eV

  energy without entropy =     -703.69600109  energy(sigma->0) =     -703.70062365


--------------------------------------------------------------------------------------------------------




--------------------------------------- Iteration      1(   5)  ---------------------------------------


     EDDAV:  cpu time   13.8861: real time   14.0986
       DOS:  cpu time    0.0010: real time    0.0010
    CHARGE:  cpu time    0.4841: real time    0.4929
    MIXING:  cpu time    0.0070: real time    0.0086
    --------------------------------------------
      LOOP:  cpu time   14.3781: real time   14.6011

 eigenvalue-minimisations  :  4056
 total energy-change (2. order) :-0.5412883E+00  (-0.5393741E+00)
 number of electron     292.9999985 magnetization       0.7656762
 augmentation part       11.6751436 magnetization       0.7883935

 Broyden mixing:
  rms(total) = 0.46858E+01    rms(broyden)= 0.46853E+01
  rms(prec ) = 0.54323E+01
  weight for this iteration     100.00

 Free energy of the ion-electron system (eV)
  ---------------------------------------------------
  alpha Z        PSCENC =       157.31041027
  Ewald energy   TEWEN  =     30461.87089030
  -Hartree energ DENC   =    -39624.72862651
  -exchange      EXHF   =         0.00000000
  -V(xc)+E(xc)   XCENC  =       982.94176588
  PAW double counting   =      9000.30529238    -9089.18527416
  entropy T*S    EENTRO =        -0.00940840
  eigenvalues    EBANDS =     -4658.02891750
  atomic energy  EATOM  =     12065.27733323
  Solvation  Ediel_sol  =         0.00000000
  ---------------------------------------------------
  free energy    TOTEN  =      -704.24653451 eV

  energy without entropy =     -704.23712611  energy(sigma->0) =     -704.24183031


--------------------------------------------------------------------------------------------------------




--------------------------------------- Iteration      1(   6)  ---------------------------------------


    POTLOK:  cpu time    0.3942: real time    0.4046
    SETDIJ:  cpu time    0.0187: real time    0.0200
    EDDIAG:  cpu time    2.1557: real time    2.1811
  RMM-DIIS:  cpu time   11.6207: real time   11.7120
    ORTHCH:  cpu time    0.2327: real time    0.2413
       DOS:  cpu time    0.0010: real time    0.0010
    CHARGE:  cpu time    0.4544: real time    0.4640
    MIXING:  cpu time    0.0071: real time    0.0105
    --------------------------------------------
      LOOP:  cpu time   14.8845: real time   15.0344

 eigenvalue-minimisations  :  4065
 total energy-change (2. order) :-0.2577637E+02  (-0.5159143E+02)
 number of electron     292.9999992 magnetization       0.7082841
 augmentation part       17.3062477 magnetization       0.9797661

 Broyden mixing:
  rms(total) = 0.82927E+01    rms(broyden)= 0.82924E+01
  rms(prec ) = 0.91665E+01
  weight for this iteration     100.00

 eigenvalues of (default mixing * dielectric matrix)
  average eigenvalue GAMMA=   0.2181
  0.2181

 Free energy of the ion-electron system (eV)
  ---------------------------------------------------
  alpha Z        PSCENC =       157.31041027
  Ewald energy   TEWEN  =     30461.87089030
  -Hartree energ DENC   =    -39918.27180242
  -exchange      EXHF   =         0.00000000
  -V(xc)+E(xc)   XCENC  =       996.75671591
  PAW double counting   =     15333.56635127   -15422.27972504
  entropy T*S    EENTRO =        -0.05437795
  eigenvalues    EBANDS =     -4404.19870085
  atomic energy  EATOM  =     12065.27733323
  Solvation  Ediel_sol  =         0.00000000
  ---------------------------------------------------
  free energy    TOTEN  =      -730.02290529 eV

  energy without entropy =     -729.96852734  energy(sigma->0) =     -729.99571631


--------------------------------------------------------------------------------------------------------




--------------------------------------- Iteration      1(   7)  ---------------------------------------


    POTLOK:  cpu time    0.3956: real time    0.4086
    SETDIJ:  cpu time    0.0110: real time    0.0111
    EDDIAG:  cpu time    2.1230: real time    2.1419
  RMM-DIIS:  cpu time    8.7171: real time    8.7894
    ORTHCH:  cpu time    0.6196: real time    0.6346
       DOS:  cpu time    0.0007: real time    0.0007
    CHARGE:  cpu time    0.4538: real time    0.4616
    MIXING:  cpu time    0.0085: real time    0.0098
    --------------------------------------------
      LOOP:  cpu time   12.3293: real time   12.4577

 eigenvalue-minimisations  :  3040
 total energy-change (2. order) : 0.6821554E+02  (-0.5654740E+01)
 number of electron     292.9999992 magnetization       0.6040959
 augmentation part       15.1091991 magnetization       0.6168948

 Broyden mixing:
  rms(total) = 0.30900E+01    rms(broyden)= 0.30896E+01
  rms(prec ) = 0.36826E+01
  weight for this iteration     100.00

 eigenvalues of (default mixing * dielectric matrix)
  average eigenvalue GAMMA=   0.4774
  0.5698  0.3849

 Free energy of the ion-electron system (eV)
  ---------------------------------------------------
  alpha Z        PSCENC =       157.31041027
  Ewald energy   TEWEN  =     30461.87089030
  -Hartree energ DENC   =    -40040.94259112
  -exchange      EXHF   =         0.00000000
  -V(xc)+E(xc)   XCENC  =      1001.37454596
  PAW double counting   =     16964.19417050   -17059.69723481
  entropy T*S    EENTRO =        -0.00003680
  eigenvalues    EBANDS =     -4211.19485087
  atomic energy  EATOM  =     12065.27733323
  Solvation  Ediel_sol  =         0.00000000
  ---------------------------------------------------
  free energy    TOTEN  =      -661.80736334 eV

  energy without entropy =     -661.80732655  energy(sigma->0) =     -661.80734495


--------------------------------------------------------------------------------------------------------




--------------------------------------- Iteration      1(   8)  ---------------------------------------


    POTLOK:  cpu time    0.3988: real time    0.4075
    SETDIJ:  cpu time    0.0122: real time    0.0122
    EDDIAG:  cpu time    2.1523: real time    2.1681
  RMM-DIIS:  cpu time    8.7975: real time    8.8642
    ORTHCH:  cpu time    0.3837: real time    0.3850
       DOS:  cpu time    0.0011: real time    0.0011
    CHARGE:  cpu time    0.4924: real time    0.4994
    MIXING:  cpu time    0.0074: real time    0.0081
    --------------------------------------------
      LOOP:  cpu time   12.2453: real time   12.3456

 eigenvalue-minimisations  :  3103
 total energy-change (2. order) : 0.3744539E-01  (-0.2143086E+01)
 number of electron     292.9999986 magnetization       0.3442760
 augmentation part       11.2551844 magnetization       0.2713893

 Broyden mixing:
  rms(total) = 0.27953E+01    rms(broyden)= 0.27944E+01
  rms(prec ) = 0.34132E+01
  weight for this iteration     100.00

 eigenvalues of (default mixing * dielectric matrix)
  average eigenvalue GAMMA=   0.8620
  1.9029  0.3415  0.3415

 Free energy of the ion-electron system (eV)
  ---------------------------------------------------
  alpha Z        PSCENC =       157.31041027
  Ewald energy   TEWEN  =     30461.87089030
  -Hartree energ DENC   =    -40226.43013240
  -exchange      EXHF   =         0.00000000
  -V(xc)+E(xc)   XCENC  =      1008.28275370
  PAW double counting   =     20084.91347872   -20184.37263996
  entropy T*S    EENTRO =        -0.03388362
  eigenvalues    EBANDS =     -4028.58812818
  atomic energy  EATOM  =     12065.27733323
  Solvation  Ediel_sol  =         0.00000000
  ---------------------------------------------------
  free energy    TOTEN  =      -661.76991795 eV

  energy without entropy =     -661.73603433  energy(sigma->0) =     -661.75297614


--------------------------------------------------------------------------------------------------------




--------------------------------------- Iteration      1(   9)  ---------------------------------------


    POTLOK:  cpu time    0.4285: real time    0.4326
    SETDIJ:  cpu time    0.0149: real time    0.0150
    EDDIAG:  cpu time    2.0997: real time    2.1155
  RMM-DIIS:  cpu time    8.3424: real time    8.4007
    ORTHCH:  cpu time    0.2633: real time    0.2641
       DOS:  cpu time    0.0010: real time    0.0010
    CHARGE:  cpu time    0.4547: real time    0.4601
    MIXING:  cpu time    0.0086: real time    0.0088
    --------------------------------------------
      LOOP:  cpu time   11.6131: real time   11.6977

 eigenvalue-minimisations  :  2967
 total energy-change (2. order) : 0.1447945E+02  (-0.2019774E+01)
 number of electron     292.9999989 magnetization       0.2641560
 augmentation part       12.2584385 magnetization       0.2612563

 Broyden mixing:
  rms(total) = 0.11020E+01    rms(broyden)= 0.11015E+01
  rms(prec ) = 0.12269E+01
  weight for this iteration     100.00

 eigenvalues of (default mixing * dielectric matrix)
  average eigenvalue GAMMA=   0.9139
  2.2234  0.7278  0.3521  0.3521

 Free energy of the ion-electron system (eV)
  ---------------------------------------------------
  alpha Z        PSCENC =       157.31041027
  Ewald energy   TEWEN  =     30461.87089030
  -Hartree energ DENC   =    -40531.83384618
  -exchange      EXHF   =         0.00000000
  -V(xc)+E(xc)   XCENC  =      1021.06750869
  PAW double counting   =     28554.99323699   -28657.13889213
  entropy T*S    EENTRO =        -0.01426493
  eigenvalues    EBANDS =     -3718.82284573
  atomic energy  EATOM  =     12065.27733323
  Solvation  Ediel_sol  =         0.00000000
  ---------------------------------------------------
  free energy    TOTEN  =      -647.29046949 eV

  energy without entropy =     -647.27620456  energy(sigma->0) =     -647.28333703


--------------------------------------------------------------------------------------------------------




--------------------------------------- Iteration      1(  10)  ---------------------------------------


    POTLOK:  cpu time    0.4281: real time    0.4320
    SETDIJ:  cpu time    0.0122: real time    0.0122
    EDDIAG:  cpu time    2.1251: real time    2.1404
  RMM-DIIS:  cpu time    8.4814: real time    8.5443
    ORTHCH:  cpu time    0.4111: real time    0.4123
       DOS:  cpu time    0.0009: real time    0.0009
    CHARGE:  cpu time    0.4865: real time    0.4932
    MIXING:  cpu time    0.0096: real time    0.0097
    --------------------------------------------
      LOOP:  cpu time   11.9549: real time   12.0450

 eigenvalue-minimisations  :  2991
 total energy-change (2. order) :-0.6160261E+00  (-0.2661008E+00)
 number of electron     292.9999991 magnetization       0.2089786
 augmentation part       13.7407500 magnetization       0.2385061

 Broyden mixing:
  rms(total) = 0.14216E+01    rms(broyden)= 0.14197E+01
  rms(prec ) = 0.17608E+01
  weight for this iteration     100.00

 eigenvalues of (default mixing * dielectric matrix)
  average eigenvalue GAMMA=   0.9279
  2.3556  1.1015  0.3500  0.3500  0.4822

 Free energy of the ion-electron system (eV)
  ---------------------------------------------------
  alpha Z        PSCENC =       157.31041027
  Ewald energy   TEWEN  =     30461.87089030
  -Hartree energ DENC   =    -40573.28305274
  -exchange      EXHF   =         0.00000000
  -V(xc)+E(xc)   XCENC  =      1021.88929156
  PAW double counting   =     30019.01053395   -30119.99857509
  entropy T*S    EENTRO =        -0.00162233
  eigenvalues    EBANDS =     -3679.98170473
  atomic energy  EATOM  =     12065.27733323
  Solvation  Ediel_sol  =         0.00000000
  ---------------------------------------------------
  free energy    TOTEN  =      -647.90649558 eV

  energy without entropy =     -647.90487325  energy(sigma->0) =     -647.90568441


--------------------------------------------------------------------------------------------------------




--------------------------------------- Iteration      1(  11)  ---------------------------------------


    POTLOK:  cpu time    0.3813: real time    0.3848
    SETDIJ:  cpu time    0.0123: real time    0.0126
    EDDIAG:  cpu time    2.0497: real time    2.0669
  RMM-DIIS:  cpu time    8.6431: real time    8.7025
    ORTHCH:  cpu time    0.1743: real time    0.1751
       DOS:  cpu time    0.0010: real time    0.0010
    CHARGE:  cpu time    0.4498: real time    0.4572
    MIXING:  cpu time    0.0093: real time    0.0095
    --------------------------------------------
      LOOP:  cpu time   11.7208: real time   11.8096

 eigenvalue-minimisations  :  3074
 total energy-change (2. order) : 0.1123727E+01  (-0.4154273E-01)
 number of electron     292.9999990 magnetization       0.1566412
 augmentation part       12.5200005 magnetization       0.1108525

 Broyden mixing:
  rms(total) = 0.74669E+00    rms(broyden)= 0.74427E+00
  rms(prec ) = 0.79885E+00
  weight for this iteration     100.00

 eigenvalues of (default mixing * dielectric matrix)
  average eigenvalue GAMMA=   0.9779
  2.0853  2.0853  0.6236  0.3477  0.3477  0.3779

 Free energy of the ion-electron system (eV)
  ---------------------------------------------------
  alpha Z        PSCENC =       157.31041027
  Ewald energy   TEWEN  =     30461.87089030
  -Hartree energ DENC   =    -40607.16202702
  -exchange      EXHF   =         0.00000000
  -V(xc)+E(xc)   XCENC  =      1022.32803723
  PAW double counting   =     30708.90840812   -30809.21630607
  entropy T*S    EENTRO =        -0.04043811
  eigenvalues    EBANDS =     -3646.05907637
  atomic energy  EATOM  =     12065.27733323
  Solvation  Ediel_sol  =         0.00000000
  ---------------------------------------------------
  free energy    TOTEN  =      -646.78276843 eV

  energy without entropy =     -646.74233032  energy(sigma->0) =     -646.76254938


--------------------------------------------------------------------------------------------------------




--------------------------------------- Iteration      1(  12)  ---------------------------------------


    POTLOK:  cpu time    0.3972: real time    0.4029
    SETDIJ:  cpu time    0.0121: real time    0.0122
    EDDIAG:  cpu time    2.0390: real time    2.0544
  RMM-DIIS:  cpu time    8.3790: real time    8.4365
    ORTHCH:  cpu time    0.3832: real time    0.3838
       DOS:  cpu time    0.0010: real time    0.0010
    CHARGE:  cpu time    0.4868: real time    0.4938
    MIXING:  cpu time    0.0096: real time    0.0097
    --------------------------------------------
      LOOP:  cpu time   11.7079: real time   11.7943

 eigenvalue-minimisations  :  2944
 total energy-change (2. order) : 0.5918571E-02  (-0.1732166E-01)
 number of electron     292.9999990 magnetization       0.1764723
 augmentation part       13.0872091 magnetization      -0.1197469

 Broyden mixing:
  rms(total) = 0.70598E+00    rms(broyden)= 0.70475E+00
  rms(prec ) = 0.78691E+00
  weight for this iteration     100.00

 eigenvalues of (default mixing * dielectric matrix)
  average eigenvalue GAMMA=   0.8644
  2.1264  2.1264  0.3497  0.3497  0.5342  0.3926  0.1721

 Free energy of the ion-electron system (eV)
  ---------------------------------------------------
  alpha Z        PSCENC =       157.31041027
  Ewald energy   TEWEN  =     30461.87089030
  -Hartree energ DENC   =    -40631.59404515
  -exchange      EXHF   =         0.00000000
  -V(xc)+E(xc)   XCENC  =      1021.89027757
  PAW double counting   =     31118.81528246   -31217.66337032
  entropy T*S    EENTRO =        -0.04754082
  eigenvalues    EBANDS =     -3622.63608740
  atomic energy  EATOM  =     12065.27733323
  Solvation  Ediel_sol  =         0.00000000
  ---------------------------------------------------
  free energy    TOTEN  =      -646.77684986 eV

  energy without entropy =     -646.72930904  energy(sigma->0) =     -646.75307945


--------------------------------------------------------------------------------------------------------




--------------------------------------- Iteration      1(  13)  ---------------------------------------


    POTLOK:  cpu time    0.4002: real time    0.4036
    SETDIJ:  cpu time    0.0120: real time    0.0120
    EDDIAG:  cpu time    2.0433: real time    2.0625
  RMM-DIIS:  cpu time    8.6091: real time    8.6666
    ORTHCH:  cpu time    0.2476: real time    0.2489
       DOS:  cpu time    0.0010: real time    0.0010
    CHARGE:  cpu time    0.4973: real time    0.5066
    MIXING:  cpu time    0.0096: real time    0.0097
    --------------------------------------------
      LOOP:  cpu time   11.8201: real time   11.9108

 eigenvalue-minimisations  :  3023
 total energy-change (2. order) :-0.5788925E-01  (-0.2686371E-02)
 number of electron     292.9999990 magnetization       0.0711367
 augmentation part       12.9983581 magnetization      -0.3426550

 Broyden mixing:
  rms(total) = 0.70952E+00    rms(broyden)= 0.70928E+00
  rms(prec ) = 0.75326E+00
  weight for this iteration     100.00

 eigenvalues of (default mixing * dielectric matrix)
  average eigenvalue GAMMA=   0.8987
  2.2356  2.2356  0.7406  0.5724  0.3481  0.3481  0.3146  0.3945

 Free energy of the ion-electron system (eV)
  ---------------------------------------------------
  alpha Z        PSCENC =       157.31041027
  Ewald energy   TEWEN  =     30461.87089030
  -Hartree energ DENC   =    -40634.84103238
  -exchange      EXHF   =         0.00000000
  -V(xc)+E(xc)   XCENC  =      1021.93480085
  PAW double counting   =     31126.92787595   -31225.70728780
  entropy T*S    EENTRO =        -0.03080406
  eigenvalues    EBANDS =     -3619.57692548
  atomic energy  EATOM  =     12065.27733323
  Solvation  Ediel_sol  =         0.00000000
  ---------------------------------------------------
  free energy    TOTEN  =      -646.83473912 eV

  energy without entropy =     -646.80393506  energy(sigma->0) =     -646.81933709


--------------------------------------------------------------------------------------------------------




--------------------------------------- Iteration      1(  14)  ---------------------------------------


    POTLOK:  cpu time    0.4342: real time    0.4395
    SETDIJ:  cpu time    0.0121: real time    0.0122
    EDDIAG:  cpu time    1.9999: real time    2.0165
  RMM-DIIS:  cpu time    8.3880: real time    8.4462
    ORTHCH:  cpu time    0.2685: real time    0.2695
       DOS:  cpu time    0.0008: real time    0.0008
    CHARGE:  cpu time    0.4506: real time    0.4559
    MIXING:  cpu time    0.0092: real time    0.0093
    --------------------------------------------
      LOOP:  cpu time   11.5634: real time   11.6498

 eigenvalue-minimisations  :  2958
 total energy-change (2. order) : 0.2769732E+00  (-0.4019749E-02)
 number of electron     292.9999990 magnetization      -0.0054683
 augmentation part       12.9571521 magnetization      -0.2771867

 Broyden mixing:
  rms(total) = 0.60733E+00    rms(broyden)= 0.60717E+00
  rms(prec ) = 0.64300E+00
  weight for this iteration     100.00

 eigenvalues of (default mixing * dielectric matrix)
  average eigenvalue GAMMA=   0.8101
  2.2316  2.2316  0.4339  0.7416  0.5765  0.3481  0.3481  0.3138  0.0655

 Free energy of the ion-electron system (eV)
  ---------------------------------------------------
  alpha Z        PSCENC =       157.31041027
  Ewald energy   TEWEN  =     30461.87089030
  -Hartree energ DENC   =    -40641.76389281
  -exchange      EXHF   =         0.00000000
  -V(xc)+E(xc)   XCENC  =      1021.99707788
  PAW double counting   =     31238.38692125   -31336.98774927
  entropy T*S    EENTRO =        -0.06464158
  eigenvalues    EBANDS =     -3612.58411515
  atomic energy  EATOM  =     12065.27733323
  Solvation  Ediel_sol  =         0.00000000
  ---------------------------------------------------
  free energy    TOTEN  =      -646.55776589 eV

  energy without entropy =     -646.49312431  energy(sigma->0) =     -646.52544510


--------------------------------------------------------------------------------------------------------




--------------------------------------- Iteration      1(  15)  ---------------------------------------


    POTLOK:  cpu time    0.4261: real time    0.4316
    SETDIJ:  cpu time    0.0120: real time    0.0120
    EDDIAG:  cpu time    2.0421: real time    2.0573
  RMM-DIIS:  cpu time    8.3005: real time    8.3641
    ORTHCH:  cpu time    0.2039: real time    0.2046
       DOS:  cpu time    0.0010: real time    0.0010
    CHARGE:  cpu time    0.4490: real time    0.4568
    MIXING:  cpu time    0.0079: real time    0.0084
    --------------------------------------------
      LOOP:  cpu time   11.4424: real time   11.5358

 eigenvalue-minimisations  :  2973
 total energy-change (2. order) :-0.3928736E-01  (-0.1784550E-02)
 number of electron     292.9999990 magnetization       0.0313343
 augmentation part       12.9097650 magnetization       0.3186567

 Broyden mixing:
  rms(total) = 0.57318E+00    rms(broyden)= 0.57030E+00
  rms(prec ) = 0.59532E+00
  weight for this iteration     100.00

 eigenvalues of (default mixing * dielectric matrix)
  average eigenvalue GAMMA=   0.8332
  2.2192  2.2192  0.4704  0.7831  0.7831  0.3479  0.3479  0.4102  0.4102  0.3412

 Free energy of the ion-electron system (eV)
  ---------------------------------------------------
  alpha Z        PSCENC =       157.31041027
  Ewald energy   TEWEN  =     30461.87089030
  -Hartree energ DENC   =    -40646.97094675
  -exchange      EXHF   =         0.00000000
  -V(xc)+E(xc)   XCENC  =      1022.09027547
  PAW double counting   =     31228.16797129   -31326.80291300
  entropy T*S    EENTRO =        -0.05764494
  eigenvalues    EBANDS =     -3607.48242912
  atomic energy  EATOM  =     12065.27733323
  Solvation  Ediel_sol  =         0.00000000
  ---------------------------------------------------
  free energy    TOTEN  =      -646.59705325 eV

  energy without entropy =     -646.53940831  energy(sigma->0) =     -646.56823078


--------------------------------------------------------------------------------------------------------




--------------------------------------- Iteration      1(  16)  ---------------------------------------


    POTLOK:  cpu time    0.3480: real time    0.3562
    SETDIJ:  cpu time    0.0110: real time    0.0127
    EDDIAG:  cpu time    2.0603: real time    2.0759
  RMM-DIIS:  cpu time    8.3227: real time    8.3828
    ORTHCH:  cpu time    0.2356: real time    0.2384
       DOS:  cpu time    0.0010: real time    0.0010
    CHARGE:  cpu time    0.4532: real time    0.4594
    MIXING:  cpu time    0.0435: real time    0.0446
    --------------------------------------------
      LOOP:  cpu time   11.4752: real time   11.5709

 eigenvalue-minimisations  :  2945
 total energy-change (2. order) :-0.2204938E-01  (-0.4336506E-02)
 number of electron     292.9999990 magnetization       0.0395433
 augmentation part       12.8458174 magnetization       0.3721908

 Broyden mixing:
  rms(total) = 0.56099E+00    rms(broyden)= 0.56079E+00
  rms(prec ) = 0.57317E+00
  weight for this iteration     100.00

 eigenvalues of (default mixing * dielectric matrix)
  average eigenvalue GAMMA=   0.8587
  2.1847  2.1847  1.3090  0.4623  0.8524  0.5923  0.4172  0.4172  0.3328  0.3465
  0.3465

 Free energy of the ion-electron system (eV)
  ---------------------------------------------------
  alpha Z        PSCENC =       157.31041027
  Ewald energy   TEWEN  =     30461.87089030
  -Hartree energ DENC   =    -40664.49217824
  -exchange      EXHF   =         0.00000000
  -V(xc)+E(xc)   XCENC  =      1022.34236367
  PAW double counting   =     31173.21388522   -31271.87659567
  entropy T*S    EENTRO =        -0.05439759
  eigenvalues    EBANDS =     -3590.21081382
  atomic energy  EATOM  =     12065.27733323
  Solvation  Ediel_sol  =         0.00000000
  ---------------------------------------------------
  free energy    TOTEN  =      -646.61910263 eV

  energy without entropy =     -646.56470504  energy(sigma->0) =     -646.59190384


--------------------------------------------------------------------------------------------------------




--------------------------------------- Iteration      1(  17)  ---------------------------------------


    POTLOK:  cpu time    0.4037: real time    0.4074
    SETDIJ:  cpu time    0.0120: real time    0.0121
    EDDIAG:  cpu time    2.0174: real time    2.0323
  RMM-DIIS:  cpu time    8.2066: real time    8.2716
    ORTHCH:  cpu time    0.3586: real time    0.3598
       DOS:  cpu time    0.0016: real time    0.0019
    CHARGE:  cpu time    0.4820: real time    0.4894
    MIXING:  cpu time    0.0110: real time    0.0112
    --------------------------------------------
      LOOP:  cpu time   11.4930: real time   11.5857

 eigenvalue-minimisations  :  2960
 total energy-change (2. order) : 0.4909845E-01  (-0.2543588E-02)
 number of electron     292.9999990 magnetization       0.0581201
 augmentation part       12.7717323 magnetization       0.3302300

 Broyden mixing:
  rms(total) = 0.41896E+00    rms(broyden)= 0.41891E+00
  rms(prec ) = 0.42391E+00
  weight for this iteration     100.00

 eigenvalues of (default mixing * dielectric matrix)
  average eigenvalue GAMMA=   0.9355
  2.4246  2.4246  1.7886  0.4528  0.7452  0.7350  0.7350  0.3473  0.3473  0.4430
  0.4430  0.3395

 Free energy of the ion-electron system (eV)
  ---------------------------------------------------
  alpha Z        PSCENC =       157.31041027
  Ewald energy   TEWEN  =     30461.87089030
  -Hartree energ DENC   =    -40692.69217488
  -exchange      EXHF   =         0.00000000
  -V(xc)+E(xc)   XCENC  =      1022.65566563
  PAW double counting   =     31088.51030841   -31187.07213224
  entropy T*S    EENTRO =        -0.06344919
  eigenvalues    EBANDS =     -3562.36685571
  atomic energy  EATOM  =     12065.27733323
  Solvation  Ediel_sol  =         0.00000000
  ---------------------------------------------------
  free energy    TOTEN  =      -646.57000418 eV

  energy without entropy =     -646.50655499  energy(sigma->0) =     -646.53827959


--------------------------------------------------------------------------------------------------------




--------------------------------------- Iteration      1(  18)  ---------------------------------------


    POTLOK:  cpu time    0.4006: real time    0.4044
    SETDIJ:  cpu time    0.0121: real time    0.0121
    EDDIAG:  cpu time    2.0146: real time    2.0286
  RMM-DIIS:  cpu time    8.3244: real time    8.3841
    ORTHCH:  cpu time    0.2814: real time    0.2821
       DOS:  cpu time    0.0010: real time    0.0010
    CHARGE:  cpu time    0.4882: real time    0.4942
    MIXING:  cpu time    0.0097: real time    0.0103
    --------------------------------------------
      LOOP:  cpu time   11.5321: real time   11.6168

 eigenvalue-minimisations  :  2973
 total energy-change (2. order) : 0.2016710E-01  (-0.2428150E-02)
 number of electron     292.9999990 magnetization       0.0394105
 augmentation part       12.6354117 magnetization       0.0857574

 Broyden mixing:
  rms(total) = 0.17607E+00    rms(broyden)= 0.17419E+00
  rms(prec ) = 0.21211E+00
  weight for this iteration     100.00

 eigenvalues of (default mixing * dielectric matrix)
  average eigenvalue GAMMA=   0.9369
  2.4682  2.4682  1.8537  0.4518  0.8565  0.8565  0.7923  0.5771  0.3471  0.3471
  0.3362  0.4125  0.4125

 Free energy of the ion-electron system (eV)
  ---------------------------------------------------
  alpha Z        PSCENC =       157.31041027
  Ewald energy   TEWEN  =     30461.87089030
  -Hartree energ DENC   =    -40728.66629620
  -exchange      EXHF   =         0.00000000
  -V(xc)+E(xc)   XCENC  =      1022.95731798
  PAW double counting   =     31029.91149371   -31128.21734928
  entropy T*S    EENTRO =        -0.07174517
  eigenvalues    EBANDS =     -3526.92189193
  atomic energy  EATOM  =     12065.27733323
  Solvation  Ediel_sol  =         0.00000000
  ---------------------------------------------------
  free energy    TOTEN  =      -646.54983708 eV

  energy without entropy =     -646.47809192  energy(sigma->0) =     -646.51396450


--------------------------------------------------------------------------------------------------------




--------------------------------------- Iteration      1(  19)  ---------------------------------------


    POTLOK:  cpu time    0.4038: real time    0.4074
    SETDIJ:  cpu time    0.0121: real time    0.0121
    EDDIAG:  cpu time    2.0693: real time    2.0841
  RMM-DIIS:  cpu time    8.3090: real time    8.3721
    ORTHCH:  cpu time    0.1682: real time    0.1691
       DOS:  cpu time    0.0010: real time    0.0010
    CHARGE:  cpu time    0.4880: real time    0.4947
    MIXING:  cpu time    0.0103: real time    0.0104
    --------------------------------------------
      LOOP:  cpu time   11.4618: real time   11.5509

 eigenvalue-minimisations  :  2950
 total energy-change (2. order) :-0.4438238E-01  (-0.1195796E-02)
 number of electron     292.9999990 magnetization       0.0261950
 augmentation part       12.7817276 magnetization       0.0255228

 Broyden mixing:
  rms(total) = 0.82766E-01    rms(broyden)= 0.81512E-01
  rms(prec ) = 0.94766E-01
  weight for this iteration     100.00

 eigenvalues of (default mixing * dielectric matrix)
  average eigenvalue GAMMA=   0.9197
  2.4693  2.4693  1.8097  0.9279  0.9279  0.4500  0.5510  0.7993  0.5979  0.3471
  0.3471  0.4211  0.4211  0.3368

 Free energy of the ion-electron system (eV)
  ---------------------------------------------------
  alpha Z        PSCENC =       157.31041027
  Ewald energy   TEWEN  =     30461.87089030
  -Hartree energ DENC   =    -40741.04566527
  -exchange      EXHF   =         0.00000000
  -V(xc)+E(xc)   XCENC  =      1023.01773947
  PAW double counting   =     31013.23260336   -31111.47404160
  entropy T*S    EENTRO =        -0.07879312
  eigenvalues    EBANDS =     -3514.70469609
  atomic energy  EATOM  =     12065.27733323
  Solvation  Ediel_sol  =         0.00000000
  ---------------------------------------------------
  free energy    TOTEN  =      -646.59421946 eV

  energy without entropy =     -646.51542634  energy(sigma->0) =     -646.55482290


--------------------------------------------------------------------------------------------------------




--------------------------------------- Iteration      1(  20)  ---------------------------------------


    POTLOK:  cpu time    0.4039: real time    0.4076
    SETDIJ:  cpu time    0.0121: real time    0.0122
    EDDIAG:  cpu time    2.0387: real time    2.0539
  RMM-DIIS:  cpu time    8.4322: real time    8.4928
    ORTHCH:  cpu time    0.2181: real time    0.2190
       DOS:  cpu time    0.0010: real time    0.0010
    CHARGE:  cpu time    0.4492: real time    0.4560
    MIXING:  cpu time    0.0110: real time    0.0111
    --------------------------------------------
      LOOP:  cpu time   11.5662: real time   11.6535

 eigenvalue-minimisations  :  2980
 total energy-change (2. order) :-0.1038944E-01  (-0.6872192E-03)
 number of electron     292.9999990 magnetization       0.0388128
 augmentation part       12.6901890 magnetization       0.0622857

 Broyden mixing:
  rms(total) = 0.93406E-01    rms(broyden)= 0.93129E-01
  rms(prec ) = 0.11188E+00
  weight for this iteration     100.00

 eigenvalues of (default mixing * dielectric matrix)
  average eigenvalue GAMMA=   0.9931
  2.5862  2.5862  1.9041  1.3781  1.0232  1.0232  0.4514  0.7386  0.7019  0.6201
  0.3471  0.3471  0.4259  0.4259  0.3370

 Free energy of the ion-electron system (eV)
  ---------------------------------------------------
  alpha Z        PSCENC =       157.31041027
  Ewald energy   TEWEN  =     30461.87089030
  -Hartree energ DENC   =    -40750.15940146
  -exchange      EXHF   =         0.00000000
  -V(xc)+E(xc)   XCENC  =      1023.08009260
  PAW double counting   =     30986.18169044   -31084.38487022
  entropy T*S    EENTRO =        -0.07239714
  eigenvalues    EBANDS =     -3505.70835692
[...]
  Kinetic  4383.16915  4370.27977  4984.49691     0.29489    -0.44063     0.32750
  Fock        0.00000     0.00000     0.00000     0.00000     0.00000     0.00000
  vdW        -1.52187    -1.66261    -0.04099     0.00429    -0.00115     0.02459
  -------------------------------------------------------------------------------------
  Total      -2.20964    -1.77987    -3.50761     0.07021    -0.00031    -0.01323
  in kB      -1.24582    -1.00351    -1.97763     0.03958    -0.00018    -0.00746
  external pressure =       -1.41 kB  Pullay stress =        0.00 kB


 VOLUME and BASIS-vectors are now :
 -----------------------------------------------------------------------------
  energy-cutoff  :      440.00
  volume of cell :     2841.69
      direct lattice vectors                 reciprocal lattice vectors
    14.860178904 -0.003145218  0.000000000     0.067302242  0.039220069  0.000000000
    -7.430089452 12.750147992  0.000000000     0.000016602  0.078440137  0.000000000
     0.000000000  0.000000000 15.000000000     0.000000000  0.000000000  0.066666667

  length of vectors
    14.860179237 14.757117032 15.000000000     0.077896120  0.078440139  0.066666667


 FORCES acting on ions
    electron-ion (+dipol)            ewald-force                    non-local-force                 convergence-correction
 -----------------------------------------------------------------------------------------------
   0.189E+01 0.706E-01 0.774E+01   -.198E+01 -.119E+00 -.777E+01   0.940E-01 0.505E-01 0.315E-01   -.510E-03 0.383E-03 -.866E-04
   -.211E+01 0.305E+00 0.728E+01   0.218E+01 -.304E+00 -.730E+01   -.645E-01 -.729E-02 0.162E-01   0.228E-03 -.102E-03 -.165E-03
   0.166E+01 0.112E+01 0.726E+01   -.170E+01 -.105E+01 -.728E+01   0.359E-01 -.781E-01 0.242E-01   -.725E-03 0.717E-03 -.248E-03
   -.481E+00 0.130E+01 0.757E+01   0.405E+00 -.128E+01 -.759E+01   0.820E-01 -.323E-01 0.133E-01   -.827E-03 0.451E-03 -.365E-03
   0.158E+01 0.194E+01 0.678E+01   -.171E+01 -.202E+01 -.680E+01   0.129E+00 0.799E-01 0.185E-01   0.371E-03 0.603E-03 -.332E-03
   0.258E+01 0.382E+01 0.732E+01   -.323E+01 -.403E+01 -.732E+01   0.657E+00 0.207E+00 -.130E-01   0.436E-04 -.445E-03 -.297E-03
   -.167E+01 0.352E+01 0.718E+01   0.175E+01 -.408E+01 -.720E+01   -.756E-01 0.560E+00 0.206E-01   0.374E-03 -.905E-04 -.252E-03
   0.178E+01 0.863E+01 0.785E+01   -.191E+01 -.941E+01 -.788E+01   0.130E+00 0.777E+00 0.280E-01   -.451E-03 -.118E-02 -.165E-03
   -.388E+01 0.366E+00 0.744E+01   0.406E+01 -.691E+00 -.745E+01   -.175E+00 0.332E+00 0.159E-01   -.140E-03 -.134E-02 -.192E-03
   -.794E+00 0.264E+01 0.707E+01   0.139E+01 -.312E+01 -.710E+01   -.603E+00 0.481E+00 0.248E-01   0.113E-04 -.124E-02 -.579E-04
   0.606E+00 0.705E-01 0.683E+01   -.598E+00 -.224E+00 -.683E+01   -.887E-02 0.162E+00 -.639E-02   0.583E-03 -.719E-03 -.117E-03
   -.112E+01 -.146E+00 0.702E+01   0.130E+01 -.432E-01 -.705E+01   -.175E+00 0.191E+00 0.270E-01   0.913E-03 -.995E-03 -.383E-04
   0.111E+01 0.448E+01 0.715E+01   -.104E+01 -.452E+01 -.716E+01   -.682E-01 0.538E-01 0.114E-01   0.147E-02 0.373E-04 -.954E-04
   0.136E+01 0.274E+01 0.669E+01   -.118E+01 -.282E+01 -.672E+01   -.189E+00 0.734E-01 0.224E-01   0.144E-02 0.702E-03 -.122E-03
   0.322E+01 0.582E+01 0.816E+01   -.322E+01 -.570E+01 -.818E+01   -.113E-01 -.137E+00 0.184E-01   -.573E-03 0.222E-03 -.390E-03
   -.795E+00 0.658E+01 0.107E+02   0.122E+01 -.636E+01 -.108E+02   -.440E+00 -.236E+00 0.131E+00   -.124E-02 -.632E-03 -.550E-03
   0.375E+01 0.792E+01 0.796E+01   -.403E+01 -.761E+01 -.800E+01   0.280E+00 -.323E+00 0.335E-01   -.769E-03 -.869E-03 -.366E-03
   0.221E+01 0.730E+01 0.709E+01   -.271E+01 -.688E+01 -.672E+01   0.499E+00 -.422E+00 -.367E+00   -.382E-03 -.145E-02 -.276E-03
   0.543E+01 0.133E+02 0.985E+01   -.587E+01 -.145E+02 -.987E+01   0.440E+00 0.122E+01 0.237E-01   0.406E-03 -.134E-02 -.147E-03
   0.263E+02 0.192E+02 0.126E+02   -.324E+02 -.219E+02 -.128E+02   0.610E+01 0.268E+01 0.246E+00   0.650E-03 0.525E-03 0.215E-03
   -.892E+01 0.129E+02 0.686E+01   0.929E+01 -.143E+02 -.687E+01   -.357E+00 0.142E+01 0.126E-01   -.104E-02 -.612E-03 -.802E-04
   -.253E+02 0.166E+02 0.633E+01   0.307E+02 -.196E+02 -.638E+01   -.536E+01 0.309E+01 0.530E-01   -.927E-03 0.776E-03 -.768E-04
   -.403E+01 0.444E+01 0.628E+01   0.431E+01 -.464E+01 -.627E+01   -.274E+00 0.203E+00 -.115E-01   0.394E-03 -.566E-03 -.184E-04
   -.384E+01 0.159E+01 0.626E+01   0.439E+01 -.191E+01 -.629E+01   -.546E+00 0.326E+00 0.295E-01   0.558E-03 0.167E-03 -.745E-04
   -.239E+00 0.482E+01 0.582E+01   0.527E+00 -.483E+01 -.581E+01   -.285E+00 0.975E-02 -.179E-01   0.175E-02 0.950E-03 -.359E-04
   0.122E+01 0.305E+01 0.606E+01   -.994E+00 -.306E+01 -.610E+01   -.232E+00 0.272E-03 0.413E-01   0.161E-02 0.702E-03 -.446E-04
   0.429E+01 0.109E+02 0.667E+01   -.406E+01 -.110E+02 -.665E+01   -.231E+00 0.300E-01 -.222E-01   -.386E-03 0.161E-03 -.410E-03
   0.121E+02 0.679E+01 0.427E+01   -.119E+02 -.673E+01 -.432E+01   -.241E+00 -.690E-01 0.561E-01   -.139E-02 0.184E-04 -.450E-03
   0.164E+01 0.196E+02 0.149E+02   -.148E+01 -.187E+02 -.151E+02   -.169E+00 -.960E+00 0.227E+00   -.220E-02 -.241E-02 -.762E-03
   -.437E+01 0.376E+02 0.326E+02   0.106E+02 -.341E+02 -.319E+02   -.621E+01 -.348E+01 -.770E+00   -.300E-02 -.187E-02 -.131E-02
   0.104E+02 0.184E+02 0.105E+02   -.121E+02 -.167E+02 -.106E+02   0.173E+01 -.173E+01 0.957E-01   0.109E-02 -.113E-02 0.285E-03
   0.125E+02 0.287E+02 0.911E+01   -.199E+02 -.241E+02 -.737E+01   0.738E+01 -.457E+01 -.171E+01   0.196E-02 -.266E-02 0.352E-03
   -.503E+01 0.119E+02 0.966E+01   0.470E+01 -.120E+02 -.953E+01   0.334E+00 0.175E+00 -.132E+00   0.303E-03 0.649E-03 0.169E-03
   -.129E+02 -.202E+02 0.108E+02   0.124E+02 0.267E+02 -.110E+02   0.434E+00 -.647E+01 0.200E+00   0.108E-02 -.687E-03 0.242E-04
   -.123E+02 0.509E+01 0.576E+01   0.137E+02 -.468E+01 -.576E+01   -.133E+01 -.410E+00 -.119E-01   -.586E-03 0.713E-03 -.213E-03
   -.107E+02 -.649E-01 0.717E+01   0.114E+02 0.468E+00 -.719E+01   -.636E+00 -.401E+00 0.197E-01   -.245E-03 0.882E-03 -.408E-03
   -.344E+01 -.128E+01 0.662E+01   0.384E+01 0.152E+01 -.663E+01   -.400E+00 -.249E+00 0.139E-01   0.554E-03 0.421E-03 -.276E-03
   -.195E+01 -.182E+01 0.666E+01   0.200E+01 0.197E+01 -.669E+01   -.573E-01 -.144E+00 0.267E-01   0.266E-03 -.207E-03 -.296E-03
   0.524E+01 0.845E+00 0.355E+01   -.506E+01 -.824E+00 -.351E+01   -.195E+00 -.172E-01 -.376E-01   0.791E-03 0.335E-04 -.936E-04
   0.560E+01 -.113E+01 0.328E+01   -.549E+01 0.113E+01 -.321E+01   -.116E+00 0.370E-02 -.585E-01   0.123E-02 -.220E-03 -.755E-04
   0.274E+02 0.103E+02 0.152E+02   -.266E+02 -.109E+02 -.159E+02   -.727E+00 0.525E+00 0.703E+00   -.411E-02 0.112E-03 -.993E-03
   0.276E+02 -.103E+02 0.150E+02   -.269E+02 0.108E+02 -.158E+02   -.731E+00 -.486E+00 0.760E+00   -.444E-02 0.523E-03 -.987E-03
   -.169E+02 -.828E+00 0.141E+02   0.148E+02 0.140E+01 -.143E+02   0.217E+01 -.567E+00 0.258E+00   0.285E-02 -.119E-02 0.540E-03
   -.205E+02 -.127E+02 0.148E+02   0.194E+02 0.137E+02 -.152E+02   0.114E+01 -.963E+00 0.419E+00   0.314E-02 0.209E-02 0.239E-03
   -.873E+01 -.843E+01 0.782E+01   0.966E+01 0.941E+01 -.781E+01   -.919E+00 -.967E+00 -.123E-01   -.842E-05 0.375E-03 -.437E-03
   -.759E+01 -.454E+01 0.706E+01   0.747E+01 0.517E+01 -.703E+01   0.120E+00 -.641E+00 -.424E-01   -.251E-03 0.567E-03 -.538E-03
   -.274E+01 -.586E+01 0.720E+01   0.281E+01 0.606E+01 -.724E+01   -.691E-01 -.197E+00 0.315E-01   -.628E-03 -.226E-03 -.484E-03
   -.175E+01 -.418E+01 0.644E+01   0.172E+01 0.430E+01 -.643E+01   0.401E-01 -.124E+00 -.162E-01   -.853E-03 -.458E-03 -.327E-03
   0.275E+01 -.387E+01 0.623E+01   -.264E+01 0.395E+01 -.628E+01   -.112E+00 -.860E-01 0.488E-01   0.121E-02 -.309E-03 -.713E-04
   0.119E+01 -.363E+01 0.577E+01   -.118E+01 0.369E+01 -.575E+01   -.662E-02 -.463E-01 -.182E-01   0.114E-02 -.829E-03 -.124E-03
   0.120E+02 -.676E+01 0.318E+01   -.118E+02 0.664E+01 -.324E+01   -.235E+00 0.125E+00 0.568E-01   -.703E-03 -.134E-03 -.408E-03
   0.441E+01 -.962E+01 0.629E+01   -.421E+01 0.961E+01 -.628E+01   -.202E+00 0.203E-01 -.152E-01   -.162E-03 -.942E-03 -.367E-03
   -.693E+01 -.375E+02 0.339E+02   0.132E+02 0.341E+02 -.331E+02   -.624E+01 0.339E+01 -.815E+00   -.315E-02 0.159E-02 -.134E-02
   -.519E+00 -.189E+02 0.155E+02   0.883E+00 0.180E+02 -.157E+02   -.376E+00 0.887E+00 0.224E+00   -.178E-02 0.256E-02 -.856E-03
   0.665E+01 -.348E+02 0.213E+02   -.130E+02 0.311E+02 -.201E+02   0.634E+01 0.369E+01 -.110E+01   0.227E-02 0.264E-02 -.222E-03
   0.653E+00 -.177E+02 0.106E+02   -.930E+00 0.167E+02 -.108E+02   0.284E+00 0.109E+01 0.231E+00   0.150E-02 0.195E-02 -.234E-03
   -.111E+02 -.110E+02 0.886E+01   0.107E+02 0.112E+02 -.900E+01   0.395E+00 -.139E+00 0.132E+00   0.102E-02 0.116E-02 -.263E-03
   -.412E+01 -.112E+02 0.748E+01   0.387E+01 0.114E+02 -.743E+01   0.260E+00 -.180E+00 -.548E-01   0.163E-03 -.255E-03 -.283E-03
   -.159E+01 -.372E+01 0.737E+01   0.152E+01 0.379E+01 -.740E+01   0.733E-01 -.782E-01 0.245E-01   -.105E-02 -.409E-03 -.257E-03
   -.166E+01 -.436E+01 0.744E+01   0.164E+01 0.442E+01 -.745E+01   0.186E-01 -.713E-01 0.839E-02   -.106E-02 0.380E-03 -.154E-03
   0.721E+00 -.267E+01 0.642E+01   -.732E+00 0.269E+01 -.645E+01   0.126E-01 -.299E-01 0.273E-01   0.544E-04 -.442E-03 -.219E-03
   -.116E+00 -.132E+01 0.615E+01   -.524E-02 0.130E+01 -.614E+01   0.123E+00 0.214E-01 -.169E-01   -.203E-03 0.414E-03 -.279E-03
   0.228E+01 -.218E+01 0.655E+01   -.227E+01 0.210E+01 -.657E+01   -.186E-01 0.763E-01 0.186E-01   0.106E-02 -.112E-02 -.194E-03
   0.237E+01 -.214E+01 0.705E+01   -.248E+01 0.201E+01 -.707E+01   0.111E+00 0.129E+00 0.176E-01   0.104E-02 -.511E-04 -.281E-03
   -.126E+01 -.643E+01 0.107E+02   0.179E+01 0.608E+01 -.108E+02   -.539E+00 0.352E+00 0.136E+00   -.991E-03 0.501E-03 -.521E-03
   0.164E+01 -.321E+01 0.803E+01   -.148E+01 0.294E+01 -.805E+01   -.167E+00 0.293E+00 0.187E-01   -.172E-03 -.562E-03 -.327E-03
   -.265E+01 -.805E+01 0.661E+01   0.274E+01 0.735E+01 -.623E+01   -.856E-01 0.697E+00 -.382E+00   0.196E-03 0.223E-02 -.525E-03
   -.372E+00 -.555E+01 0.721E+01   0.470E+00 0.505E+01 -.723E+01   -.978E-01 0.515E+00 0.217E-01   -.105E-04 0.112E-03 -.281E-03
   0.263E+01 -.797E+01 0.956E+01   -.318E+01 0.772E+01 -.966E+01   0.557E+00 0.251E+00 0.966E-01   0.859E-03 0.451E-03 -.163E-03
   -.196E+01 -.409E+01 0.828E+01   0.195E+01 0.392E+01 -.830E+01   0.221E-01 0.175E+00 0.209E-01   0.369E-03 0.514E-03 -.134E-03
   -.342E+01 -.679E+01 -.642E+03   0.529E+01 0.656E+01 0.624E+03   -.192E+01 0.235E+00 0.185E+02   0.970E-03 0.617E-03 0.165E-02
 -----------------------------------------------------------------------------------------------
   0.911E+00 -.269E+00 -.176E+02   0.106E-12 0.348E-12 -.227E-12   -.911E+00 0.266E+00 0.176E+02   0.963E-03 0.214E-03 -.167E-01
 
 
 POSITION                                       TOTAL-FORCE (eV/Angst)
 -----------------------------------------------------------------------------------
      7.43075     12.74244      7.46548         0.000298      0.002987      0.002723
      0.00172      1.41872      7.46688         0.002794     -0.006784      0.000767
      2.48262      0.02416      7.46317        -0.000555     -0.006787     -0.001774
      2.48312      1.44487      7.47342         0.004332     -0.006927     -0.003844
      4.95524      0.02947      7.46490        -0.002301     -0.005386     -0.004950
      4.95718      1.45220      7.47379         0.001657     -0.006728     -0.004563
      7.43191      0.00014      7.46710        -0.000243      0.002827     -0.000764
      7.43109      1.41920      7.46508         0.004836     -0.004676     -0.001270
      2.47844     12.72637      7.47451         0.003339      0.004536      0.000160
      9.90836      1.39964      7.46458        -0.001985      0.001604      0.001782
      4.95366     12.72056      7.47604        -0.000388      0.006663     -0.000007
     12.38213      1.39049      7.46516        -0.001077     -0.000884     -0.000286
     13.61823      2.10816      7.46660         0.002707      0.005378     -0.000774
     -1.24691      3.52965      7.47674        -0.005699     -0.012055     -0.000232
      1.24126      2.14310      7.47648        -0.009461     -0.008378     -0.004746
      1.24235      3.56509      7.49923        -0.008457     -0.013023     -0.007118
      3.72120      2.16913      7.48873        -0.003173     -0.005547     -0.004151
      3.72883      3.58658      7.53506         0.000633      0.005658      0.002212
      6.20439      2.15323      7.47216         0.001758      0.004606     -0.003247
      6.20851      3.57379      7.49476         0.010021     -0.006480      0.004054
      8.66660      2.11968      7.46628         0.000438      0.007755     -0.000104
      8.66768      3.53550      7.47553         0.005068     -0.002570     -0.001350
     11.14451      2.10284      7.46394         0.006528      0.000502      0.002057
     11.13791      3.52079      7.46612         0.001230      0.001787      0.000876
     12.37444      4.23420      7.47333         0.004629      0.001264      0.000185
     -2.48688      5.65783      7.48057        -0.009770     -0.000844      0.001906
     -0.01222      4.24456      7.50115        -0.006887     -0.005106     -0.002273
     -0.03636      5.66032      7.53013        -0.005870     -0.007109     -0.000991
      2.48513      4.30535      7.54476        -0.002015      0.001533     -0.001793
      2.43722      5.71667      7.63254         0.009918      0.007095      0.001745
      4.97302      4.31686      7.55862        -0.006132     -0.014094      0.019218
      4.99879      5.72846      7.67994         0.005741      0.007883      0.035405
      7.44882      4.24303      7.49404         0.005190     -0.014290      0.002193
      7.46984      5.64603      7.50975         0.004484      0.007371     -0.001202
      9.90301      4.23835      7.47128         0.003219      0.001569     -0.002676
      9.92310      5.65804      7.47372         0.008723      0.000612     -0.006728
     -3.71359      6.37270      7.47297         0.003219     -0.005371     -0.002511
     -3.71463      7.79445      7.47267        -0.003718      0.006255     -0.002124
     -1.26470      6.37264      7.50693        -0.010790      0.003133      0.004810
     -1.26541      7.79377      7.50768        -0.011765      0.002284      0.005306
      1.18483      6.36671      7.57750        -0.003618     -0.002881     -0.005859
      1.18412      7.79955      7.57732         0.000491      0.004183     -0.004746
      6.26111      6.35156      7.57710         0.001428     -0.008874      0.019217
      6.25958      7.78542      7.57400         0.002044      0.003549      0.013819
      8.69886      6.35881      7.48886         0.009112      0.002536     -0.009229
      8.69493      7.78214      7.49075         0.009306     -0.003661     -0.011852
     -4.94073      8.50361      7.47321         0.007872     -0.003624     -0.006314
     -4.94600      9.92727      7.46859         0.001555      0.002537     -0.001779
     -2.48751      8.50906      7.48015         0.000989     -0.006034      0.001543
     -2.48219      9.93041      7.47311        -0.002056      0.007952     -0.000335
     -0.03814      8.50720      7.53246        -0.014376      0.006424     -0.000630
     -0.01429      9.92353      7.50215        -0.006746      0.015473     -0.000724
      2.43211      8.45316      7.62765         0.009841     -0.003794      0.005441
      2.47523      9.86403      7.54195        -0.000770     -0.007169     -0.002279
      5.00171      8.42434      7.65240        -0.003303     -0.003169      0.024899
      4.95831      9.84331      7.55575        -0.003756      0.008252      0.010926
      7.47176      8.49822      7.51420         0.004653      0.000010     -0.007383
      7.44722      9.91531      7.49521         0.004648      0.013284     -0.003973
     -6.18100     10.63625      7.47175         0.002784      0.000214     -0.001126
     -6.18407     12.05469      7.46393        -0.000115     -0.007898      0.001127
     -3.71352     10.64270      7.46490         0.001951     -0.006614     -0.000157
     -3.71222     12.06563      7.46332         0.000967      0.004388     -0.001933
     -1.24629     10.64006      7.47711        -0.002915      0.000863      0.000301
     -1.24275     12.05789      7.46666         0.002690      0.001080     -0.002474
      1.23789     10.60448      7.49891        -0.012333      0.004186     -0.005911
      1.23956     12.02682      7.47698        -0.007635      0.019117     -0.003784
      3.71836     10.57709      7.53538        -0.000637     -0.007678     -0.003134
      3.71642     11.99784      7.49101         0.000260      0.015995     -0.002374
      6.19436     10.59114      7.50167         0.007161      0.000196     -0.001283
      6.19359     12.01747      7.47668         0.006465      0.001265     -0.000641
      3.67428      7.08426      8.33742        -0.016435     -0.000372     -0.025275
 -----------------------------------------------------------------------------------
    total drift:                                0.000453     -0.002484      0.001719


--------------------------------------------------------------------------------------------------------



  FREE ENERGIE OF THE ION-ELECTRON SYSTEM (eV)
  ---------------------------------------------------
  free  energy   TOTEN  =      -653.58356548 eV

  energy  without entropy=     -653.54642813  energy(sigma->0) =     -653.56499680
 
 d Force = 0.2956401E-03[ 0.138E-03, 0.453E-03]  d Energy = 0.2167273E-03 0.789E-04
 d Force =-0.1533985E+00[-0.153E+00,-0.153E+00]  d Ewald  =-0.1533984E+00-0.673E-07


--------------------------------------------------------------------------------------------------------


    POTLOK:  cpu time    0.4044: real time    0.4056


--------------------------------------------------------------------------------------------------------


 stress matrix after NEB project (eV)
     -2.20964      0.07021     -0.01323
      0.07021     -1.77987     -0.00031
     -0.01323     -0.00031     -3.50761
  FORCES: max atom, RMS     0.036723    0.012041
  FORCE total and by dimension    0.101456    0.035405
  Stress total and by dimension    4.512649    3.507613
 Conjugate gradient step on ions:
 trial-energy change:   -0.000217  1 .order   -0.000296   -0.000453   -0.000138
  (g-gl).g = 0.604E-03      g.g   = 0.600E-03  gl.gl    = 0.115E-02
 g(Force)  = 0.600E-03   g(Stress)= 0.000E+00 ortho     =-0.788E-05
 gamma     =   0.52463
 trial     =   0.76073
 opt step  =   1.09389  (harmonic =   1.09389) maximal distance =0.00206614
 next E    =  -653.583675   (d E  =  -0.00033)


--------------------------------------------------------------------------------------------------------


  
 reached required accuracy - stopping structural energy minimisation
     LOOP+:  cpu time   64.2702: real time   64.7252
    4ORBIT:  cpu time    0.0000: real time    0.0000

 total amount of memory used by VASP MPI-rank0   111516. kBytes
=======================================================================

   base      :      30000. kBytes
   nonlr-proj:       9878. kBytes
   fftplans  :      10852. kBytes
   grid      :      30996. kBytes
   one-center:        186. kBytes
   wavefun   :      29604. kBytes
 
  
  
 General timing and accounting informations for this job:
 ========================================================
  
                  Total CPU time used (sec):     1791.705
                            User time (sec):     1780.060
                          System time (sec):       11.645
                         Elapsed time (sec):     1811.451
  
                   Maximum memory used (kb):      487472.
                   Average memory used (kb):           0.
  
                          Minor page faults:      2106379
                          Major page faults:            0
                 Voluntary context switches:        12024
