       N       E                     dE             d eps       ncg     rms          rms(c)
DAV:   1     0.302759670985E+04    0.30276E+04   -0.12191E+05  4096   0.129E+03
DAV:   2    -0.245452660904E+02   -0.30521E+04   -0.29578E+04  4528   0.361E+02
DAV:   3    -0.456688437357E+03   -0.43214E+03   -0.42853E+03  4068   0.155E+02
DAV:   4    -0.471193780933E+03   -0.14505E+02   -0.14183E+02  4264   0.394E+01
DAV:   5    -0.471697974735E+03   -0.50419E+00   -0.49855E+00  4480   0.560E+00    0.628E+01
DAV:   6    -0.409889312041E+03    0.61809E+02   -0.65893E+01  4752   0.316E+01    0.429E+01
DAV:   7    -0.383069234616E+03    0.26820E+02   -0.11614E+02  4368   0.331E+01    0.225E+01
DAV:   8    -0.381644621562E+03    0.14246E+01   -0.17528E+01  4384   0.153E+01    0.158E+01
DAV:   9    -0.381788818572E+03   -0.14420E+00   -0.11224E+01  5440   0.212E+01    0.641E+00
DAV:  10    -0.381193069122E+03    0.59575E+00   -0.75636E+00  5576   0.150E+01    0.316E+00
DAV:  11    -0.381091759416E+03    0.10131E+00   -0.85780E-01  4368   0.341E+00    0.158E+00
DAV:  12    -0.381064605308E+03    0.27154E-01   -0.20331E-01  4560   0.169E+00    0.837E-01
DAV:  13    -0.381058574852E+03    0.60305E-02   -0.89662E-02  4328   0.979E-01    0.405E-01
DAV:  14    -0.381058075215E+03    0.49964E-03   -0.21394E-02  4432   0.563E-01    0.306E-01
DAV:  15    -0.381057837210E+03    0.23800E-03   -0.42454E-03  5144   0.339E-01    0.166E-01
DAV:  16    -0.381057839070E+03   -0.18592E-05   -0.76387E-04  3872   0.101E-01
   1 F= -.38577989E+03 E0= -.38577989E+03  d E =0.000000E+00  mag=     0.0000
