       N       E                     dE             d eps       ncg     rms          rms(c)
DAV:   1     0.267344973202E+04    0.26734E+04   -0.10725E+05  3928   0.119E+03
DAV:   2    -0.287615353626E+02   -0.27022E+04   -0.25937E+04  4632   0.317E+02
DAV:   3    -0.493703855322E+03   -0.46494E+03   -0.46065E+03  3984   0.149E+02
DAV:   4    -0.510397797477E+03   -0.16694E+02   -0.16298E+02  4152   0.402E+01
DAV:   5    -0.511030581964E+03   -0.63278E+00   -0.62658E+00  4704   0.614E+00    0.477E+01
DAV:   6    -0.475139851820E+03    0.35891E+02   -0.51241E+01  4448   0.327E+01    0.312E+01
DAV:   7    -0.464270037781E+03    0.10870E+02   -0.61184E+01  4032   0.229E+01    0.183E+01
DAV:   8    -0.462196673653E+03    0.20734E+01   -0.12448E+01  3984   0.136E+01    0.130E+01
DAV:   9    -0.462470874805E+03   -0.27420E+00   -0.10885E+01  5024   0.156E+01    0.682E+00
DAV:  10    -0.461724275352E+03    0.74660E+00   -0.63595E+00  4856   0.106E+01    0.332E+00
DAV:  11    -0.461652409080E+03    0.71866E-01   -0.13609E+00  4800   0.477E+00    0.191E+00
DAV:  12    -0.461605953180E+03    0.46456E-01   -0.80115E-01  4576   0.269E+00    0.127E+00
DAV:  13    -0.461574532436E+03    0.31421E-01   -0.26304E-01  4048   0.159E+00    0.524E-01
DAV:  14    -0.461575257776E+03   -0.72534E-03   -0.48863E-02  3800   0.680E-01    0.308E-01
DAV:  15    -0.461574589139E+03    0.66864E-03   -0.69844E-03  4728   0.322E-01    0.208E-01
DAV:  16    -0.461574582904E+03    0.62353E-05   -0.15767E-03  4352   0.128E-01    0.121E-01
DAV:  17    -0.461574594965E+03   -0.12061E-04   -0.20147E-04  2464   0.644E-02
   1 F= -.46569313E+03 E0= -.46569313E+03  d E =0.000000E+00  mag=    -0.0000
