 vasp.5.4.4.18Apr17-6-g9f103f2a35 (build Nov  8 2022 18:58:45) complex           
 executed on             LinuxGNU date 2023.04.13  15:54:34
 running on   48 total cores
 distrk:  each k-point on   48 cores,    1 groups
 distr:  one band on NCORES_PER_BAND=  12 cores,    4 groups


--------------------------------------------------------------------------------------------------------


 INCAR:
 POTCAR:    PAW_PBE C 08Apr2002                   
 POTCAR:    PAW_PBE N 08Apr2002                   
 POTCAR:    PAW_PBE Ge_d 03Jul2007                
 POTCAR:    PAW_PBE C 08Apr2002                   
 POTCAR:    PAW_PBE O 08Apr2002                   
 POTCAR:    PAW_PBE C 08Apr2002                   
   SHA256 =  253f7b50bb8d59471dbedb8285d89021f4a42ed1a2c5d38a03a736e69125dd95 C/
   COPYR  = (c) Copyright 08Apr2002 Georg Kresse                                
   COPYR  = This file is part of the software VASP. Any use, copying, and all ot
   COPYR  = If you do not have a valid VASP license, you may not use, copy or di
   VRHFIN =C: s2p2                                                              
   LEXCH  = PE                                                                  
   EATOM  =   147.1560 eV,   10.8157 Ry                                         
                                                                                
   TITEL  = PAW_PBE C 08Apr2002                                                 
   LULTRA =        F    use ultrasoft PP ?                                      
   IUNSCR =        1    unscreen: 0-lin 1-nonlin 2-no                           
   RPACOR =    1.200    partial core radius                                     
   POMASS =   12.011; ZVAL   =    4.000    mass and valenz                      
   RCORE  =    1.500    outmost cutoff radius                                   
   RWIGS  =    1.630; RWIGS  =    0.863    wigner-seitz radius (au A)           
   ENMAX  =  400.000; ENMIN  =  300.000 eV                                      
   ICORE  =        2    local potential                                         
   LCOR   =        T    correct aug charges                                     
   LPAW   =        T    paw PP                                                  
   EAUG   =  644.873                                                            
   DEXC   =    0.000                                                            
   RMAX   =    1.529    core radius for proj-oper                               
   RAUG   =    1.300    factor for augmentation sphere                          
   RDEP   =    1.501    radius for radial grids                                 
   RDEPT  =    1.300    core radius for aug-charge                              
                                                                                
   Atomic configuration                                                         
    4 entries                                                                   
     n  l   j            E        occ.                                          
     1  0  0.50      -273.3789   2.0000                                         
     2  0  0.50       -13.7508   2.0000                                         
     2  1  0.50        -5.2854   2.0000                                         
     3  2  1.50        -5.4423   0.0000                                         
   Description                                                                  
     l       E           TYP  RCUT    TYP  RCUT                                 
     0    -13.7508458     23  1.200                                             
     0     -8.2022199     23  1.200                                             
     1     -5.2854383     23  1.500                                             
     1     34.0145650     23  1.500                                             
     2     -5.4423304      7  1.500                                             
  local pseudopotential read in
  partial core-charges read in
  partial kinetic energy density read in
  atomic valenz-charges read in
  non local Contribution for L=           0  read in
    real space projection operators read in
  non local Contribution for L=           0  read in
    real space projection operators read in
  non local Contribution for L=           1  read in
    real space projection operators read in
  non local Contribution for L=           1  read in
    real space projection operators read in
    PAW grid and wavefunctions read in

   number of l-projection  operators is LMAX  =           4
   number of lm-projection operators is LMMAX =           8

 POTCAR:    PAW_PBE N 08Apr2002                   
   SHA256 =  e053789ff3a61a86a1b75d8a110fcc91f86041011e7b0817c7c99e4e8a6349d7 N/
   COPYR  = (c) Copyright 08Apr2002 Georg Kresse                                
   COPYR  = This file is part of the software VASP. Any use, copying, and all ot
   COPYR  = If you do not have a valid VASP license, you may not use, copy or di
   VRHFIN =N: s2p3                                                              
   LEXCH  = PE                                                                  
   EATOM  =   264.5486 eV,   19.4438 Ry                                         
                                                                                
   TITEL  = PAW_PBE N 08Apr2002                                                 
   LULTRA =        F    use ultrasoft PP ?                                      
   IUNSCR =        1    unscreen: 0-lin 1-nonlin 2-no                           
   RPACOR =    1.200    partial core radius                                     
   POMASS =   14.001; ZVAL   =    5.000    mass and valenz                      
   RCORE  =    1.500    outmost cutoff radius                                   
   RWIGS  =    1.400; RWIGS  =    0.741    wigner-seitz radius (au A)           
   ENMAX  =  400.000; ENMIN  =  300.000 eV                                      
   ICORE  =        2    local potential                                         
   LCOR   =        T    correct aug charges                                     
   LPAW   =        T    paw PP                                                  
   EAUG   =  627.112                                                            
   DEXC   =    0.000                                                            
   RMAX   =    1.529    core radius for proj-oper                               
   RAUG   =    1.300    factor for augmentation sphere                          
   RDEP   =    1.514    radius for radial grids                                 
   RDEPT  =    1.338    core radius for aug-charge                              
                                                                                
   Atomic configuration                                                         
    4 entries                                                                   
     n  l   j            E        occ.                                          
     1  0  0.50      -384.7179   2.0000                                         
     2  0  0.50       -18.5828   2.0000                                         
     2  1  0.50        -7.0898   3.0000                                         
     3  2  1.50        -6.8029   0.0000                                         
   Description                                                                  
     l       E           TYP  RCUT    TYP  RCUT                                 
     0    -18.5828119     23  1.200                                             
     0    -13.5018863     23  1.200                                             
     1     -7.0897853     23  1.500                                             
     1      9.5240782     23  1.500                                             
     2     -6.8029130      7  1.500                                             
  local pseudopotential read in
  partial core-charges read in
  partial kinetic energy density read in
  atomic valenz-charges read in
  non local Contribution for L=           0  read in
    real space projection operators read in
  non local Contribution for L=           0  read in
    real space projection operators read in
  non local Contribution for L=           1  read in
    real space projection operators read in
  non local Contribution for L=           1  read in
    real space projection operators read in
    PAW grid and wavefunctions read in

   number of l-projection  operators is LMAX  =           4
   number of lm-projection operators is LMMAX =           8

 POTCAR:    PAW_PBE Ge_d 03Jul2007                
   SHA256 =  944b26c40d2d7c4f4eb1ff3a2e8dbfdd7129146276cd341854bfd5c0e57780ed Ge
   COPYR  = (c) Copyright 03Jul2007 Georg Kresse                                
   COPYR  = This file is part of the software VASP. Any use, copying, and all ot
   COPYR  = If you do not have a valid VASP license, you may not use, copy or di
   VRHFIN =Ge: 3d4s4p                                                           
   LEXCH  = PE                                                                  
   EATOM  =  2596.2402 eV,  190.8183 Ry                                         
                                                                                
   TITEL  = PAW_PBE Ge_d 03Jul2007                                              
   LULTRA =        F    use ultrasoft PP ?                                      
   IUNSCR =        1    unscreen: 0-lin 1-nonlin 2-no                           
   RPACOR =    2.000    partial core radius                                     
   POMASS =   72.610; ZVAL   =   14.000    mass and valenz                      
   RCORE  =    2.300    outmost cutoff radius                                   
   RWIGS  =    2.300; RWIGS  =    1.217    wigner-seitz radius (au A)           
   ENMAX  =  310.294; ENMIN  =  232.720 eV                                      
   ICORE  =        3    local potential                                         
   LCOR   =        T    correct aug charges                                     
   LPAW   =        T    paw PP                                                  
   EAUG   =  531.356                                                            
   DEXC   =    0.000                                                            
   RMAX   =    2.342    core radius for proj-oper                               
   RAUG   =    1.300    factor for augmentation sphere                          
   RDEP   =    2.318    radius for radial grids                                 
   RDEPT  =    1.783    core radius for aug-charge                              
                                                                                
   Atomic configuration                                                         
    9 entries                                                                   
     n  l   j            E        occ.                                          
     1  0  0.50    -10959.8463   2.0000                                         
     2  0  0.50     -1371.6056   2.0000                                         
     2  1  1.50     -1198.4791   6.0000                                         
     3  0  0.50      -168.4733   2.0000                                         
     3  1  1.50      -115.6019   6.0000                                         
     3  2  2.50       -29.3106  10.0000                                         
     4  0  0.50       -11.7309   2.0000                                         
     4  1  0.50        -3.8952   2.0000                                         
     4  3  2.50        -4.0817   0.0000                                         
   Description                                                                  
     l       E           TYP  RCUT    TYP  RCUT                                 
     2    -29.3105938     23  2.200                                             
     2    -13.6058260     23  2.200                                             
     0    -11.7309493     23  2.300                                             
     0     -7.4578696     23  2.300                                             
     1     -3.8952261     23  2.300                                             
     1      6.1178114     23  2.300                                             
     3     -1.3605826     23  2.300                                             
  local pseudopotential read in
  partial core-charges read in
  partial kinetic energy density read in
  atomic valenz-charges read in
  non local Contribution for L=           2  read in
    real space projection operators read in
  non local Contribution for L=           2  read in
    real space projection operators read in
  non local Contribution for L=           0  read in
    real space projection operators read in
  non local Contribution for L=           0  read in
    real space projection operators read in
  non local Contribution for L=           1  read in
    real space projection operators read in
  non local Contribution for L=           1  read in
    real space projection operators read in
    PAW grid and wavefunctions read in

   number of l-projection  operators is LMAX  =           6
   number of lm-projection operators is LMMAX =          18

 POTCAR:    PAW_PBE C 08Apr2002                   
   SHA256 =  253f7b50bb8d59471dbedb8285d89021f4a42ed1a2c5d38a03a736e69125dd95 C/
   COPYR  = (c) Copyright 08Apr2002 Georg Kresse                                
   COPYR  = This file is part of the software VASP. Any use, copying, and all ot
   COPYR  = If you do not have a valid VASP license, you may not use, copy or di
   VRHFIN =C: s2p2                                                              
   LEXCH  = PE                                                                  
   EATOM  =   147.1560 eV,   10.8157 Ry                                         
                                                                                
   TITEL  = PAW_PBE C 08Apr2002                                                 
   LULTRA =        F    use ultrasoft PP ?                                      
   IUNSCR =        1    unscreen: 0-lin 1-nonlin 2-no                           
   RPACOR =    1.200    partial core radius                                     
   POMASS =   12.011; ZVAL   =    4.000    mass and valenz                      
   RCORE  =    1.500    outmost cutoff radius                                   
   RWIGS  =    1.630; RWIGS  =    0.863    wigner-seitz radius (au A)           
   ENMAX  =  400.000; ENMIN  =  300.000 eV                                      
   ICORE  =        2    local potential                                         
   LCOR   =        T    correct aug charges                                     
   LPAW   =        T    paw PP                                                  
   EAUG   =  644.873                                                            
   DEXC   =    0.000                                                            
   RMAX   =    1.529    core radius for proj-oper                               
   RAUG   =    1.300    factor for augmentation sphere                          
   RDEP   =    1.501    radius for radial grids                                 
   RDEPT  =    1.300    core radius for aug-charge                              
                                                                                
   Atomic configuration                                                         
    4 entries                                                                   
     n  l   j            E        occ.                                          
     1  0  0.50      -273.3789   2.0000                                         
     2  0  0.50       -13.7508   2.0000                                         
     2  1  0.50        -5.2854   2.0000                                         
     3  2  1.50        -5.4423   0.0000                                         
   Description                                                                  
     l       E           TYP  RCUT    TYP  RCUT                                 
     0    -13.7508458     23  1.200                                             
     0     -8.2022199     23  1.200                                             
     1     -5.2854383     23  1.500                                             
     1     34.0145650     23  1.500                                             
     2     -5.4423304      7  1.500                                             
  local pseudopotential read in
  partial core-charges read in
  partial kinetic energy density read in
  atomic valenz-charges read in
  non local Contribution for L=           0  read in
    real space projection operators read in
  non local Contribution for L=           0  read in
    real space projection operators read in
  non local Contribution for L=           1  read in
    real space projection operators read in
  non local Contribution for L=           1  read in
    real space projection operators read in
    PAW grid and wavefunctions read in

   number of l-projection  operators is LMAX  =           4
   number of lm-projection operators is LMMAX =           8

 POTCAR:    PAW_PBE O 08Apr2002                   
   SHA256 =  818f92134a0a090dccd8ba1447fa70422a3b330e708bb4f08108d8ae51209ddf O/
   COPYR  = (c) Copyright 08Apr2002 Georg Kresse                                
   COPYR  = This file is part of the software VASP. Any use, copying, and all ot
   COPYR  = If you do not have a valid VASP license, you may not use, copy or di
   VRHFIN =O: s2p4                                                              
   LEXCH  = PE                                                                  
   EATOM  =   432.3788 eV,   31.7789 Ry                                         
                                                                                
   TITEL  = PAW_PBE O 08Apr2002                                                 
   LULTRA =        F    use ultrasoft PP ?                                      
   IUNSCR =        1    unscreen: 0-lin 1-nonlin 2-no                           
   RPACOR =    1.200    partial core radius                                     
   POMASS =   16.000; ZVAL   =    6.000    mass and valenz                      
   RCORE  =    1.520    outmost cutoff radius                                   
   RWIGS  =    1.550; RWIGS  =    0.820    wigner-seitz radius (au A)           
   ENMAX  =  400.000; ENMIN  =  300.000 eV                                      
   ICORE  =        2    local potential                                         
   LCOR   =        T    correct aug charges                                     
   LPAW   =        T    paw PP                                                  
   EAUG   =  605.392                                                            
   DEXC   =    0.000                                                            
   RMAX   =    1.553    core radius for proj-oper                               
   RAUG   =    1.300    factor for augmentation sphere                          
   RDEP   =    1.550    radius for radial grids                                 
   RDEPT  =    1.329    core radius for aug-charge                              
                                                                                
   Atomic configuration                                                         
    4 entries                                                                   
     n  l   j            E        occ.                                          
     1  0  0.50      -514.6923   2.0000                                         
     2  0  0.50       -23.9615   2.0000                                         
     2  1  0.50        -9.0305   4.0000                                         
     3  2  1.50        -9.5241   0.0000                                         
   Description                                                                  
     l       E           TYP  RCUT    TYP  RCUT                                 
     0    -23.9615318     23  1.200                                             
     0     -9.5240782     23  1.200                                             
     1     -9.0304911     23  1.520                                             
     1      8.1634956     23  1.520                                             
     2     -9.5240782      7  1.500                                             
  local pseudopotential read in
  partial core-charges read in
  partial kinetic energy density read in
  kinetic energy density of atom read in
  atomic valenz-charges read in
  non local Contribution for L=           0  read in
    real space projection operators read in
  non local Contribution for L=           0  read in
    real space projection operators read in
  non local Contribution for L=           1  read in
    real space projection operators read in
  non local Contribution for L=           1  read in
    real space projection operators read in
    PAW grid and wavefunctions read in

   number of l-projection  operators is LMAX  =           4
   number of lm-projection operators is LMMAX =           8


 ----------------------------------------------------------------------------- 
|                                                                             |
|  ADVICE TO THIS USER RUNNING 'VASP/VAMP'   (HEAR YOUR MASTER'S VOICE ...):  |
|                                                                             |
|      You have a (more or less) 'large supercell' and for larger cells       |
|      it might be more efficient to use real space projection opertators     |
|      So try LREAL= Auto  in the INCAR   file.                               |
|      Mind:          For very  accurate calculation you might also keep the  |
|      reciprocal projection scheme          (i.e. LREAL=.FALSE.)             |
|                                                                             |
 ----------------------------------------------------------------------------- 

  PAW_PBE C 08Apr2002                   :
 energy of atom  1       EATOM= -147.1560
 kinetic energy error for atom=    0.0132 (will be added to EATOM!!)
  PAW_PBE N 08Apr2002                   :
 energy of atom  2       EATOM= -264.5486
 kinetic energy error for atom=    0.0298 (will be added to EATOM!!)
  PAW_PBE Ge_d 03Jul2007                :
 energy of atom  3       EATOM=-2596.2402
 kinetic energy error for atom=    0.0090 (will be added to EATOM!!)
  PAW_PBE C 08Apr2002                   :
 energy of atom  4       EATOM= -147.1560
 kinetic energy error for atom=    0.0132 (will be added to EATOM!!)
  PAW_PBE O 08Apr2002                   :
 energy of atom  5       EATOM= -432.3788
 kinetic energy error for atom=    0.0458 (will be added to EATOM!!)


 POSCAR: POSCAR-c3n4                             
  positions in direct lattice
  velocities in cartesian coordinates
 exchange correlation table for  LEXCH =        8
   RHO(1)=    0.500       N(1)  =     2000
   RHO(2)=  100.500       N(2)  =     4000



--------------------------------------------------------------------------------------------------------


 ion  position               nearest neighbor table
   1  0.104  0.202  0.403-  26 1.33  25 1.35  46 1.36
   2  0.288  0.418  0.432-  29 1.30  35 1.38  25 1.41
   3  0.080  0.383  0.402-  44 1.30  39 1.36  25 1.37
   4  0.453  0.051  0.490-  30 1.31  27 1.33  48 1.46
   5  0.485  0.463  0.404-  28 1.30  29 1.33  56 1.39
   6  0.137  0.065  0.483-  31 1.30  26 1.31  32 1.42
   7  0.057  0.697  0.533-  54 1.32  34 1.34  33 1.42
   8  0.282  0.861  0.544-  27 1.33  37 1.35  33 1.40
   9  0.134  0.914  0.581-  31 1.32  52 1.32  33 1.40
  10  0.434  0.533  0.559-  38 1.32  35 1.35  56 1.37
  11  0.439  0.844  0.478-  36 1.33  48 1.35  37 1.37
  12  0.023  0.502  0.492-  39 1.32  34 1.33  40 1.34
  13  0.633  0.221  0.421-  42 1.34  30 1.37  41 1.40
  14  0.776  0.428  0.314-  41 1.34  45 1.36  51 1.42
  15  0.635  0.419  0.425-  55 1.33  28 1.33  41 1.42
  16  0.936  0.039  0.480-  46 1.32  43 1.32  32 1.42
  17  0.943  0.420  0.323-  45 1.29  44 1.34  40 1.44
  18  0.639  0.052  0.484-  42 1.33  47 1.33  48 1.47
  19  0.610  0.688  0.632-  50 1.35  38 1.38  49 1.38
  20  0.800  0.900  0.598-  53 1.31  43 1.35  49 1.43
  21  0.605  0.872  0.563-  47 1.33  36 1.35  49 1.41
  22  0.920  0.595  0.400-  51 1.31  54 1.36  40 1.43
  23  0.999  0.969  0.630-  52 1.34  53 1.34  32 1.37
  24  0.633  0.541  0.549-  50 1.32  55 1.33  56 1.42
  25  0.160  0.334  0.401-   1 1.35   3 1.37   2 1.41
  26  0.183  0.157  0.413-   6 1.31   1 1.33
  27  0.358  0.989  0.557-   8 1.33   4 1.33
  28  0.557  0.427  0.359-   5 1.30  15 1.33
  29  0.371  0.429  0.364-   2 1.30   5 1.33
  30  0.513  0.174  0.461-   4 1.31  13 1.37
  31  0.170  0.979  0.494-   6 1.30   9 1.32
  32  0.033  0.045  0.544-  23 1.37   6 1.42  16 1.42
  33  0.158  0.811  0.581-   8 1.40   9 1.40   7 1.42
  34  0.056  0.590  0.565-  12 1.33   7 1.34  57 2.34
  35  0.310  0.472  0.527-  10 1.35   2 1.38  57 2.16
  36  0.502  0.786  0.508-  11 1.33  21 1.35
  37  0.310  0.778  0.496-   8 1.35  11 1.37
  38  0.478  0.612  0.638-  10 1.32  19 1.38
  39  0.076  0.430  0.495-  12 1.32   3 1.36
  40  0.959  0.502  0.409-  12 1.34  22 1.43  17 1.44
  41  0.686  0.347  0.380-  14 1.34  13 1.40  15 1.42
  42  0.707  0.173  0.447-  18 1.33  13 1.34
  43  0.819  0.939  0.500-  16 1.32  20 1.35
  44  0.027  0.381  0.316-   3 1.30  17 1.34
  45  0.847  0.386  0.263-  17 1.29  14 1.36
  46  0.974  0.127  0.408-  16 1.32   1 1.36
  47  0.670  0.002  0.561-  18 1.33  21 1.33
  48  0.504  0.972  0.453-  11 1.35   4 1.46  18 1.47
  49  0.666  0.821  0.622-  19 1.38  21 1.41  20 1.43
  50  0.684  0.636  0.616-  24 1.32  19 1.35
  51  0.828  0.563  0.334-  22 1.31  14 1.42
  52  0.069  0.918  0.659-   9 1.32  23 1.34
  53  0.882  0.922  0.670-  20 1.31  23 1.34
  54  0.988  0.704  0.459-   7 1.32  22 1.36
  55  0.680  0.469  0.516-  15 1.33  24 1.33
  56  0.517  0.515  0.502-  10 1.37   5 1.39  24 1.42
  57  0.240  0.583  0.603-  35 2.16  34 2.34
  58  0.249  0.570  0.853-  59 1.14
  59  0.235  0.486  0.905-  58 1.14


IMPORTANT INFORMATION: All symmetrisations will be switched off!
NOSYMM: (Re-)initialisation of all symmetry stuff for point group C_1.



 KPOINTS: K-Points                                

Automatic generation of k-mesh.
Space group operators:
 irot       det(A)        alpha          n_x          n_y          n_z        tau_x        tau_y        tau_z
    1     1.000000     0.000000     1.000000     0.000000     0.000000     0.000000     0.000000     0.000000
 
 Subroutine IBZKPT returns following result:
 ===========================================
 
 Found      5 irreducible k-points:
 
 Following reciprocal coordinates:
            Coordinates               Weight
  0.000000  0.000000  0.000000      1.000000
  0.333333  0.000000  0.000000      2.000000
  0.000000  0.333333  0.000000      2.000000
  0.333333  0.333333  0.000000      2.000000
 -0.333333  0.333333  0.000000      2.000000
 
 Following cartesian coordinates:
            Coordinates               Weight
  0.000000  0.000000  0.000000      1.000000
  0.024277  0.014368  0.000000      2.000000
  0.000396  0.028736  0.000000      2.000000
  0.024673  0.043104  0.000000      2.000000
 -0.023881  0.014368  0.000000      2.000000
 
 TETIRR: Found     24 inequivalent tetrahedra from       54


--------------------------------------------------------------------------------------------------------




 Dimension of arrays:
   k-points           NKPTS =      5   k-points in BZ     NKDIM =      5   number of bands    NBANDS=    172
   number of dos      NEDOS =   4000   number of ions     NIONS =     59
   non local maximal  LDIM  =      6   non local SUM 2l+1 LMDIM =     18
   total plane-waves  NPLWV = 286720
   max r-space proj   IRMAX =      1   max aug-charges    IRDMAX=   6073
   dimension x,y,z NGX =    64 NGY =   64 NGZ =   70
   dimension x,y,z NGXF=   128 NGYF=  128 NGZF=  140
   support grid    NGXF=   128 NGYF=  128 NGZF=  140
   ions per type =              24  32   1   1   1
   NGX,Y,Z   is equivalent  to a cutoff of   8.73,  8.90,  8.82 a.u.
   NGXF,Y,Z  is equivalent  to a cutoff of  17.47, 17.79, 17.63 a.u.

 SYSTEM =  unknown system                          
 POSCAR =  POSCAR-c3n4                             

 Startparameter for this run:
   NWRITE =      2    write-flag & timer
   PREC   = normal    normal or accurate (medium, high low for compatibility)
   ISTART =      0    job   : 0-new  1-cont  2-samecut
   ICHARG =      2    charge: 1-file 2-atom 10-const
   ISPIN  =      2    spin polarized calculation?
   LNONCOLLINEAR =      F non collinear calculations
   LSORBIT =      F    spin-orbit coupling
   INIWAV =      1    electr: 0-lowe 1-rand  2-diag
   LASPH  =      F    aspherical Exc in radial PAW
   METAGGA=      F    non-selfconsistent MetaGGA calc.

 Electronic Relaxation 1
   ENCUT  =  440.0 eV  32.34 Ry    5.69 a.u.  20.84 20.45 22.58*2*pi/ulx,y,z
   ENINI  =  440.0     initial cutoff
   ENAUG  =  644.9 eV  augmentation charge cutoff
   NELM   =    100;   NELMIN=  2; NELMDL= -5     # of ELM steps 
   EDIFF  = 0.1E-03   stopping-criterion for ELM
   LREAL  =      F    real-space projection
   NLSPLINE    = F    spline interpolate recip. space projectors
   LCOMPAT=      F    compatible to vasp.4.4
   GGA_COMPAT  = T    GGA compatible to vasp.4.4-vasp.4.6
   LMAXPAW     = -100 max onsite density
   LMAXMIX     =    2 max onsite mixed and CHGCAR
   VOSKOWN=      0    Vosko Wilk Nusair interpolation
   ROPT   =    0.00000   0.00000   0.00000   0.00000
   ROPT   =    0.00000
 Ionic relaxation
   EDIFFG = -.1E-01   stopping-criterion for IOM
   NSW    =      0    number of steps for IOM
   NBLOCK =      1;   KBLOCK =      1    inner block; outer block 
   IBRION =     -1    ionic relax: 0-MD 1-quasi-New 2-CG
   NFREE  =      0    steps in history (QN), initial steepest desc. (CG)
   ISIF   =      2    stress and relaxation
   IWAVPR =     10    prediction:  0-non 1-charg 2-wave 3-comb
   ISYM   =      0    0-nonsym 1-usesym 2-fastsym
   LCORR  =      T    Harris-Foulkes like correction to forces

   POTIM  = 0.5000    time-step for ionic-motion
   TEIN   =    0.0    initial temperature
   TEBEG  =    0.0;   TEEND  =   0.0 temperature during run
   SMASS  =  -3.00    Nose mass-parameter (am)
   estimated Nose-frequenzy (Omega)   =  0.10E-29 period in steps =****** mass=  -0.339E-26a.u.
   SCALEE = 1.0000    scale energy and forces
   NPACO  =    256;   APACO  = 16.0  distance and # of slots for P.C.
   PSTRESS=    0.0 pullay stress

  Mass of Ions in am
   POMASS =  12.01 14.00 72.61 12.01 16.00
  Ionic Valenz
   ZVAL   =   4.00  5.00 14.00  4.00  6.00
  Atomic Wigner-Seitz radii
   RWIGS  =  -1.00 -1.00 -1.00 -1.00 -1.00
  virtual crystal weights 
   VCA    =   1.00  1.00  1.00  1.00  1.00
   NELECT =     280.0000    total number of electrons
   NUPDOWN=      -1.0000    fix difference up-down

 DOS related values:
   EMIN   = -14.00;   EMAX   =  6.00  energy-range for DOS
   EFERMI =   0.00
   ISMEAR =    -5;   SIGMA  =   0.20  broadening in eV -4-tet -1-fermi 0-gaus

 Electronic relaxation 2 (details)
   IALGO  =     38    algorithm
   LDIAG  =      T    sub-space diagonalisation (order eigenvalues)
   LSUBROT=      F    optimize rotation matrix (better conditioning)
   TURBO    =      0    0=normal 1=particle mesh
   IRESTART =      0    0=no restart 2=restart with 2 vectors
   NREBOOT  =      0    no. of reboots
   NMIN     =      0    reboot dimension
   EREF     =   0.00    reference energy to select bands
   IMIX   =      4    mixing-type and parameters
     AMIX     =   0.25;   BMIX     =  0.00
     AMIX_MAG =   1.00;   BMIX_MAG =  0.00
     AMIN     =   0.10
     WC   =   100.;   INIMIX=   1;  MIXPRE=   1;  MAXMIX= -45

 Intra band minimization:
   WEIMIN = 0.0000     energy-eigenvalue tresh-hold
   EBREAK =  0.15E-06  absolut break condition
   DEPER  =   0.30     relativ break condition  

   TIME   =   0.40     timestep for ELM

  volume/ion in A,a.u.               =      27.82       187.75
  Fermi-wavevector in a.u.,A,eV,Ry     =   0.907924  1.715728 11.215635  0.824326
  Thomas-Fermi vector in A             =   2.031789

 Write flags
   LWAVE        =      F    write WAVECAR
   LDOWNSAMPLE  =      F    k-point downsampling of WAVECAR
   LCHARG       =      F    write CHGCAR
   LVTOT        =      F    write LOCPOT, total local potential
   LVHAR        =      F    write LOCPOT, Hartree potential only
   LELF         =      F    write electronic localiz. function (ELF)
   LORBIT       =     11    0 simple, 1 ext, 2 COOP (PROOUT), +10 PAW based schemes


 Dipole corrections
   LMONO  =      F    monopole corrections only (constant potential shift)
   LDIPOL =      F    correct potential (dipole corrections)
   IDIPOL =      0    1-x, 2-y, 3-z, 4-all directions 
   EPSILON=  1.0000000 bulk dielectric constant

 Exchange correlation treatment:
   GGA     =    --    GGA type
   LEXCH   =     8    internal setting for exchange type
   VOSKOWN=      0    Vosko Wilk Nusair interpolation
   LHFCALC =     F    Hartree Fock is set to
   LHFONE  =     F    Hartree Fock one center treatment
   AEXX    =    0.0000 exact exchange contribution

 Linear response parameters
   LEPSILON=     F    determine dielectric tensor
   LRPA    =     F    only Hartree local field effects (RPA)
   LNABLA  =     F    use nabla operator in PAW spheres
   LVEL    =     F    velocity operator in full k-point grid
   LINTERFAST=   F  fast interpolation
   KINTER  =     0    interpolate to denser k-point grid
   CSHIFT  =0.1000    complex shift for real part using Kramers Kronig
   OMEGAMAX=  -1.0    maximum frequency
   DEG_THRESHOLD= 0.2000000E-02 threshold for treating states as degnerate
   RTIME   =   -0.100 relaxation time in fs
  (WPLASMAI=    0.000 imaginary part of plasma frequency in eV, 0.658/RTIME)
   DFIELD  = 0.0000000 0.0000000 0.0000000 field for delta impulse in time

 Orbital magnetization related:
   ORBITALMAG=     F  switch on orbital magnetization
   LCHIMAG   =     F  perturbation theory with respect to B field
   DQ        =  0.001000  dq finite difference perturbation B field
   LLRAUG    =     F  two centre corrections for induced B field



--------------------------------------------------------------------------------------------------------


 Static calculation
 charge density and potential will be updated during run
 spin polarized calculation
 Variant of blocked Davidson
 Davidson routine will perform the subspace rotation
 perform sub-space diagonalisation
    after iterative eigenvector-optimisation
 modified Broyden-mixing scheme, WC =      100.0
 initial mixing is a Kerker type mixing with AMIX =  0.2500 and BMIX =      0.0001
 Hartree-type preconditioning will be used
 using additional bands           32
 reciprocal scheme for non local part
 use partial core corrections
 calculate Harris-corrections to forces   (improved forces if not selfconsistent)
 use gradient corrections 
 use of overlap-Matrix (Vanderbilt PP)
 Fermi weights with tetrahedron method with Bloechl corrections


--------------------------------------------------------------------------------------------------------


  energy-cutoff  :      440.00
  volume of cell :     1641.47
      direct lattice vectors                 reciprocal lattice vectors
    12.182213326 -0.167851617  0.000000000     0.082761783  0.048981948 -0.000000000
    -6.091106663 10.291768075  0.000000000     0.001349787  0.097963896 -0.000000000
     0.000000000  0.000000000 13.200000000    -0.000000000 -0.000000000  0.075757576

  length of vectors
    12.183369636 11.959183521 13.200000000     0.096170391  0.097973195  0.075757576



 k-points in units of 2pi/SCALE and weight: K-Points                                
   0.00000000  0.00000000  0.00000000       0.111
   0.02427679  0.01436804  0.00000000       0.222
   0.00039594  0.02873608  0.00000000       0.222
   0.02467273  0.04310411  0.00000000       0.222
  -0.02388085  0.01436804  0.00000000       0.222

 k-points in reciprocal lattice and weights: K-Points                                
   0.00000000  0.00000000  0.00000000       0.111
   0.33333333  0.00000000  0.00000000       0.222
   0.00000000  0.33333333  0.00000000       0.222
   0.33333333  0.33333333  0.00000000       0.222
  -0.33333333  0.33333333  0.00000000       0.222

 position of ions in fractional coordinates (direct lattice) 
   0.10411895  0.20215769  0.40290930
   0.28785514  0.41817331  0.43163207
   0.08035224  0.38334157  0.40219088
   0.45318803  0.05115190  0.48996560
   0.48484086  0.46303832  0.40422567
   0.13714219  0.06513479  0.48263936
   0.05697971  0.69709943  0.53286999
   0.28228463  0.86073212  0.54356087
   0.13449066  0.91423972  0.58064455
   0.43380952  0.53258096  0.55925850
   0.43945165  0.84368823  0.47843337
   0.02253945  0.50211794  0.49152275
   0.63285244  0.22091103  0.42124812
   0.77639617  0.42752905  0.31375901
   0.63521159  0.41870550  0.42455117
   0.93556007  0.03856389  0.48025223
   0.94318406  0.42016221  0.32304394
   0.63932643  0.05243975  0.48426768
   0.60987665  0.68772024  0.63198204
   0.79973367  0.89960166  0.59766433
   0.60504932  0.87192937  0.56336778
   0.91975091  0.59489910  0.40049399
   0.99939290  0.96889854  0.62965616
   0.63267651  0.54056537  0.54928596
   0.15998156  0.33388856  0.40051357
   0.18250026  0.15668711  0.41295945
   0.35821835  0.98910727  0.55709713
   0.55676777  0.42714324  0.35922761
   0.37111607  0.42890176  0.36430467
   0.51255994  0.17373279  0.46067448
   0.17020106  0.97882949  0.49392105
   0.03291515  0.04527420  0.54416974
   0.15760407  0.81082863  0.58098948
   0.05629906  0.59019945  0.56503469
   0.31046308  0.47212664  0.52716309
   0.50216426  0.78586426  0.50846537
   0.30982969  0.77787825  0.49632156
   0.47790388  0.61220835  0.63784370
   0.07595280  0.43005065  0.49471830
   0.95851338  0.50153490  0.40909541
   0.68553722  0.34701889  0.38011396
   0.70733446  0.17310077  0.44703106
   0.81880624  0.93855630  0.50011403
   0.02717444  0.38054089  0.31600762
   0.84680156  0.38641849  0.26331599
   0.97405129  0.12720834  0.40772937
   0.66982929  0.00224678  0.56147449
   0.50414552  0.97225086  0.45349347
   0.66576884  0.82143286  0.62210979
   0.68396772  0.63632406  0.61608708
   0.82827933  0.56256128  0.33392756
   0.06913100  0.91806891  0.65931518
   0.88219068  0.92174749  0.67039436
   0.98774576  0.70439823  0.45869397
   0.68008776  0.46942388  0.51551273
   0.51696933  0.51491990  0.50165532
   0.24004273  0.58294705  0.60309919
   0.24858271  0.57003781  0.85340066
   0.23462129  0.48648244  0.90459957

 position of ions in cartesian coordinates  (Angst):
   0.03703514  2.06308357  5.31840273
   0.95957451  4.25542581  5.69754336
  -1.35610625  3.93177531  5.30891967
   5.20926156  0.45037513  6.46754598
   3.08601898  4.68410168  5.33577882
   1.27395238  0.64733265  6.37083949
  -3.55196804  7.16482150  7.03388386
  -1.80395949  8.81107338  7.17500346
  -3.93033778  9.38656869  7.66450806
   2.04075270  5.40838410  7.38221219
   0.21449873  8.60928089  6.31532052
  -2.78387358  5.16389808  6.48810033
   6.36395082  2.16733976  5.56047514
   6.85409878  4.26971042  4.14161898
   5.18790318  4.20259861  5.60407540
  11.16229562  0.23985537  6.33932947
   8.93081655  4.16589704  4.26418001
   7.46899485  0.43238578  6.39233334
   3.24067006  6.97548847  8.34216298
   4.26295647  9.12425510  7.88916914
   2.05982506  8.87213637  7.43645476
   7.58100794  5.96818189  5.28652068
   6.27315312  9.80392934  8.31146130
   4.41475889  5.45717766  7.25057468
  -0.08482140  3.40945048  5.28677912
   1.26885923  1.58195442  5.45106473
  -1.66086551 10.11953513  7.35368206
   4.18088873  4.30260481  4.74180439
   1.90852878  4.35186506  4.80882171
   5.18588953  1.70198357  6.08090319
  -3.88872925 10.04531760  6.51975790
   0.12520936  0.46042671  7.18304051
  -3.01887728  8.31840615  7.66906109
  -2.90912067  6.06474602  7.45845789
   0.90635375  4.80690610  6.95855285
   1.33068914  8.00364358  6.71174293
  -0.96372806  7.95373715  6.55144465
   2.09290069  6.22048944  8.41953682
  -1.69421111  4.41323273  6.53028151
   8.62191192  5.00079288  5.40005940
   6.23763151  3.45636944  5.01750423
   7.56252401  1.66278574  5.90080998
   4.25802577  9.52196579  6.60150514
  -1.98687032  3.91187730  4.17130056
   7.96220104  3.83479244  3.47577104
  11.09126102  1.14570267  5.38202763
   8.14631784 -0.08930854  7.41146331
   0.21952463  9.92155871  5.98611375
   3.10710285  8.34224614  8.21184919
   4.45632295  6.43409460  8.13234951
   6.66365475  5.65072218  4.40784377
  -4.74988705  9.43694851  8.70296042
   5.13257279  9.33833431  8.84920553
   7.74236482  7.08370852  6.05476042
   5.42566326  4.71704785  6.80476797
   3.16139861  5.21266202  6.62185016
  -0.62654097  5.95926432  7.96090925
  -0.44387349  5.82497190 11.26488866
  -0.10500989  4.96738290 11.94071436



--------------------------------------------------------------------------------------------------------


 k-point  1 :   0.0000 0.0000 0.0000  plane waves:   34455
 k-point  2 :   0.3333 0.0000 0.0000  plane waves:   34436
 k-point  3 :   0.0000 0.3333 0.0000  plane waves:   34397
 k-point  4 :   0.3333 0.3333 0.0000  plane waves:   34411
 k-point  5 :  -0.3333 0.3333 0.0000  plane waves:   34416

 maximum and minimum number of plane-waves per node :      2892     2842

 maximum number of plane-waves:     34455
 maximum index in each direction: 
   IXMAX=   21   IYMAX=   20   IZMAX=   22
   IXMIN=  -21   IYMIN=  -20   IZMIN=  -22


 parallel 3D FFT for wavefunctions:
    minimum data exchange during FFTs selected (reduces bandwidth)
 parallel 3D FFT for charge:
    minimum data exchange during FFTs selected (reduces bandwidth)


 total amount of memory used by VASP MPI-rank0    73995. kBytes
=======================================================================

   base      :      30000. kBytes
   nonl-proj :      13141. kBytes
   fftplans  :       2624. kBytes
   grid      :       7821. kBytes
   one-center:        155. kBytes
   wavefun   :      20254. kBytes

     INWAV:  cpu time    0.0000: real time    0.0000
 Broyden mixing: mesh for mixing (old mesh)
   NGX = 41   NGY = 41   NGZ = 45
  (NGX  =128   NGY  =128   NGZ  =140)
  gives a total of  75645 points

 initial charge density was supplied:
 charge density of overlapping atoms calculated
 number of electron     280.0000000 magnetization       2.0000000
 keeping initial charge density in first step


--------------------------------------------------------------------------------------------------------


 Maximum index for augmentation-charges          179 (set IRDMAX)


--------------------------------------------------------------------------------------------------------


 First call to EWALD:  gamma=   0.150
 Maximum number of real-space cells 3x 3x 3
 Maximum number of reciprocal cells 3x 3x 3

    FEWALD:  cpu time    0.0023: real time    0.0023


--------------------------------------- Iteration      1(   1)  ---------------------------------------


    POTLOK:  cpu time    0.0763: real time    0.0826
    SETDIJ:  cpu time    0.0092: real time    0.0093
     EDDAV:  cpu time    7.5137: real time    7.5316
 BZINTS: Fermi energy: 11.318540;280.000000 electrons
         Band energy:***********;  BLOECHL correction: -0.031679
       DOS:  cpu time    0.3126: real time    0.3131
    --------------------------------------------
      LOOP:  cpu time    7.9117: real time    7.9366

 eigenvalue-minimisations  :  3816
 total energy-change (2. order) : 0.2579574E+04  (-0.1123994E+05)
 number of electron     280.0000000 magnetization       2.0000000
 augmentation part      280.0000000 magnetization       2.0000000

 Free energy of the ion-electron system (eV)
  ---------------------------------------------------
  alpha Z        PSCENC =       227.00334759
  Ewald energy   TEWEN  =     19350.89221385
  -Hartree energ DENC   =    -31612.57435127
  -exchange      EXHF   =         0.00000000
  -V(xc)+E(xc)   XCENC  =      1071.35856681
  PAW double counting   =     11453.83848114   -11942.90478952
  entropy T*S    EENTRO =         0.00000000
  eigenvalues    EBANDS =     -1139.77523127
  atomic energy  EATOM  =     15171.73615219
  Solvation  Ediel_sol  =         0.00000000
  ---------------------------------------------------
  free energy    TOTEN  =      2579.57438952 eV

  energy without entropy =     2579.57438952  energy(sigma->0) =     2579.57438952


--------------------------------------------------------------------------------------------------------




--------------------------------------- Iteration      1(   2)  ---------------------------------------


     EDDAV:  cpu time    8.5729: real time    8.5841
 BZINTS: Fermi energy: -0.246249;280.000000 electrons
         Band energy:***********;  BLOECHL correction:  0.000000
       DOS:  cpu time    0.0154: real time    0.0154
    --------------------------------------------
      LOOP:  cpu time    8.5884: real time    8.5995

 eigenvalue-minimisations  :  4552
 total energy-change (2. order) :-0.2667439E+04  (-0.2581232E+04)
 number of electron     280.0000000 magnetization       2.0000000
 augmentation part      280.0000000 magnetization       2.0000000

 Free energy of the ion-electron system (eV)
  ---------------------------------------------------
  alpha Z        PSCENC =       227.00334759
  Ewald energy   TEWEN  =     19350.89221385
  -Hartree energ DENC   =    -31612.57435127
  -exchange      EXHF   =         0.00000000
  -V(xc)+E(xc)   XCENC  =      1071.35856681
  PAW double counting   =     11453.83848114   -11942.90478952
  entropy T*S    EENTRO =         0.00000000
  eigenvalues    EBANDS =     -3807.21433091
  atomic energy  EATOM  =     15171.73615219
  Solvation  Ediel_sol  =         0.00000000
  ---------------------------------------------------
  free energy    TOTEN  =       -87.86471013 eV

  energy without entropy =      -87.86471013  energy(sigma->0) =      -87.86471013


--------------------------------------------------------------------------------------------------------




--------------------------------------- Iteration      1(   3)  ---------------------------------------


     EDDAV:  cpu time    7.6262: real time    7.6449
 BZINTS: Fermi energy: -3.111965;280.000000 electrons
         Band energy:***********;  BLOECHL correction:  0.000000
       DOS:  cpu time    0.0167: real time    0.0167
    --------------------------------------------
      LOOP:  cpu time    7.6428: real time    7.6615

 eigenvalue-minimisations  :  3932
 total energy-change (2. order) :-0.4137369E+03  (-0.4094257E+03)
 number of electron     280.0000000 magnetization       2.0000000
 augmentation part      280.0000000 magnetization       2.0000000

 Free energy of the ion-electron system (eV)
  ---------------------------------------------------
  alpha Z        PSCENC =       227.00334759
  Ewald energy   TEWEN  =     19350.89221385
  -Hartree energ DENC   =    -31612.57435127
  -exchange      EXHF   =         0.00000000
  -V(xc)+E(xc)   XCENC  =      1071.35856681
  PAW double counting   =     11453.83848114   -11942.90478952
  entropy T*S    EENTRO =         0.00000000
  eigenvalues    EBANDS =     -4220.95119487
  atomic energy  EATOM  =     15171.73615219
  Solvation  Ediel_sol  =         0.00000000
  ---------------------------------------------------
  free energy    TOTEN  =      -501.60157409 eV

  energy without entropy =     -501.60157409  energy(sigma->0) =     -501.60157409


--------------------------------------------------------------------------------------------------------




--------------------------------------- Iteration      1(   4)  ---------------------------------------


     EDDAV:  cpu time    8.9268: real time    8.9870
 BZINTS: Fermi energy: -3.399850;280.000000 electrons
         Band energy:***********;  BLOECHL correction:  0.000000
       DOS:  cpu time    0.0163: real time    0.0163
    --------------------------------------------
      LOOP:  cpu time    8.9431: real time    9.0033

 eigenvalue-minimisations  :  4456
 total energy-change (2. order) :-0.1691344E+02  (-0.1660815E+02)
 number of electron     280.0000000 magnetization       2.0000000
 augmentation part      280.0000000 magnetization       2.0000000

 Free energy of the ion-electron system (eV)
  ---------------------------------------------------
  alpha Z        PSCENC =       227.00334759
  Ewald energy   TEWEN  =     19350.89221385
  -Hartree energ DENC   =    -31612.57435127
  -exchange      EXHF   =         0.00000000
  -V(xc)+E(xc)   XCENC  =      1071.35856681
  PAW double counting   =     11453.83848114   -11942.90478952
  entropy T*S    EENTRO =         0.00000000
  eigenvalues    EBANDS =     -4237.86463061
  atomic energy  EATOM  =     15171.73615219
  Solvation  Ediel_sol  =         0.00000000
  ---------------------------------------------------
  free energy    TOTEN  =      -518.51500983 eV

  energy without entropy =     -518.51500983  energy(sigma->0) =     -518.51500983


--------------------------------------------------------------------------------------------------------




--------------------------------------- Iteration      1(   5)  ---------------------------------------


     EDDAV:  cpu time    8.9593: real time    8.9815
 BZINTS: Fermi energy: -3.406102;280.000000 electrons
         Band energy:***********;  BLOECHL correction:  0.000000
       DOS:  cpu time    0.0160: real time    0.0160
    CHARGE:  cpu time    0.1300: real time    0.1300
    MIXING:  cpu time    0.0019: real time    0.0020
    --------------------------------------------
      LOOP:  cpu time    9.1072: real time    9.1295

 eigenvalue-minimisations  :  4752
 total energy-change (2. order) :-0.5846292E+00  (-0.5802563E+00)
 number of electron     280.0000027 magnetization       0.0000001
 augmentation part       20.2263461 magnetization       0.0300718

 Broyden mixing:
  rms(total) = 0.42055E+01    rms(broyden)= 0.42026E+01
  rms(prec ) = 0.47537E+01
  weight for this iteration     100.00

 Free energy of the ion-electron system (eV)
  ---------------------------------------------------
  alpha Z        PSCENC =       227.00334759
  Ewald energy   TEWEN  =     19350.89221385
  -Hartree energ DENC   =    -31612.57435127
  -exchange      EXHF   =         0.00000000
  -V(xc)+E(xc)   XCENC  =      1071.35856681
  PAW double counting   =     11453.83848114   -11942.90478952
  entropy T*S    EENTRO =         0.00000000
  eigenvalues    EBANDS =     -4238.44925981
  atomic energy  EATOM  =     15171.73615219
  Solvation  Ediel_sol  =         0.00000000
  ---------------------------------------------------
  free energy    TOTEN  =      -519.09963902 eV

  energy without entropy =     -519.09963902  energy(sigma->0) =     -519.09963902


--------------------------------------------------------------------------------------------------------




--------------------------------------- Iteration      1(   6)  ---------------------------------------


    POTLOK:  cpu time    0.0725: real time    0.0731
    SETDIJ:  cpu time    0.0086: real time    0.0086
     EDDAV:  cpu time    8.0913: real time    8.1000
 BZINTS: Fermi energy: -2.620905;280.000000 electrons
         Band energy:***********;  BLOECHL correction:  0.000000
       DOS:  cpu time    0.0159: real time    0.0159
    CHARGE:  cpu time    0.1303: real time    0.1304
    MIXING:  cpu time    0.0021: real time    0.0054
    --------------------------------------------
      LOOP:  cpu time    8.3207: real time    8.3333

 eigenvalue-minimisations  :  4280
 total energy-change (2. order) : 0.2637003E+02  (-0.5055679E+01)
 number of electron     280.0000019 magnetization      -0.0000000
 augmentation part       19.1695025 magnetization       0.0090414

 Broyden mixing:
  rms(total) = 0.26210E+01    rms(broyden)= 0.26206E+01
  rms(prec ) = 0.28693E+01
  weight for this iteration     100.00

 eigenvalues of (default mixing * dielectric matrix)
  average eigenvalue GAMMA=   1.4181
  1.4181

 Free energy of the ion-electron system (eV)
  ---------------------------------------------------
  alpha Z        PSCENC =       227.00334759
  Ewald energy   TEWEN  =     19350.89221385
  -Hartree energ DENC   =    -31870.46936485
  -exchange      EXHF   =         0.00000000
  -V(xc)+E(xc)   XCENC  =      1086.14244858
  PAW double counting   =     15046.52935922   -15537.58924202
  entropy T*S    EENTRO =         0.00000000
  eigenvalues    EBANDS =     -3966.97452740
  atomic energy  EATOM  =     15171.73615219
  Solvation  Ediel_sol  =         0.00000000
  ---------------------------------------------------
  free energy    TOTEN  =      -492.72961284 eV

  energy without entropy =     -492.72961284  energy(sigma->0) =     -492.72961284


--------------------------------------------------------------------------------------------------------




--------------------------------------- Iteration      1(   7)  ---------------------------------------


    POTLOK:  cpu time    0.0708: real time    0.0712
    SETDIJ:  cpu time    0.0090: real time    0.0090
     EDDAV:  cpu time    7.8614: real time    7.8674
 BZINTS: Fermi energy: -2.759690;280.000000 electrons
         Band energy:***********;  BLOECHL correction:  0.000000
       DOS:  cpu time    0.0153: real time    0.0153
    CHARGE:  cpu time    0.1308: real time    0.1308
    MIXING:  cpu time    0.0014: real time    0.0014
    --------------------------------------------
      LOOP:  cpu time    8.0887: real time    8.0951

 eigenvalue-minimisations  :  4128
 total energy-change (2. order) : 0.4826466E+01  (-0.4939669E+01)
 number of electron     280.0000022 magnetization      -0.0000000
 augmentation part       18.7374884 magnetization       0.0009487

 Broyden mixing:
  rms(total) = 0.16964E+01    rms(broyden)= 0.16960E+01
  rms(prec ) = 0.18695E+01
  weight for this iteration     100.00

 eigenvalues of (default mixing * dielectric matrix)
  average eigenvalue GAMMA=   1.5057
  0.9038  2.1076

 Free energy of the ion-electron system (eV)
  ---------------------------------------------------
  alpha Z        PSCENC =       227.00334759
  Ewald energy   TEWEN  =     19350.89221385
  -Hartree energ DENC   =    -32122.38247948
  -exchange      EXHF   =         0.00000000
  -V(xc)+E(xc)   XCENC  =      1097.31882714
  PAW double counting   =     19741.15000805   -20235.09848779
  entropy T*S    EENTRO =         0.00000000
  eigenvalues    EBANDS =     -3718.52272874
  atomic energy  EATOM  =     15171.73615219
  Solvation  Ediel_sol  =         0.00000000
  ---------------------------------------------------
  free energy    TOTEN  =      -487.90314719 eV

  energy without entropy =     -487.90314719  energy(sigma->0) =     -487.90314719


--------------------------------------------------------------------------------------------------------




--------------------------------------- Iteration      1(   8)  ---------------------------------------


    POTLOK:  cpu time    0.0706: real time    0.0712
    SETDIJ:  cpu time    0.0090: real time    0.0090
     EDDAV:  cpu time    7.6999: real time    7.7086
 BZINTS: Fermi energy: -1.740685;280.000000 electrons
         Band energy:***********;  BLOECHL correction:  0.000000
       DOS:  cpu time    0.0162: real time    0.0162
    CHARGE:  cpu time    0.1298: real time    0.1298
    MIXING:  cpu time    0.0015: real time    0.0015
    --------------------------------------------
      LOOP:  cpu time    7.9270: real time    7.9362

 eigenvalue-minimisations  :  4016
 total energy-change (2. order) : 0.2500752E+01  (-0.9891226E+00)
 number of electron     280.0000021 magnetization       0.0000000
 augmentation part       18.5559665 magnetization      -0.0008411

 Broyden mixing:
  rms(total) = 0.11607E+01    rms(broyden)= 0.11606E+01
  rms(prec ) = 0.12182E+01
  weight for this iteration     100.00

 eigenvalues of (default mixing * dielectric matrix)
  average eigenvalue GAMMA=   1.7078
  3.1217  1.2718  0.7299

 Free energy of the ion-electron system (eV)
  ---------------------------------------------------
  alpha Z        PSCENC =       227.00334759
  Ewald energy   TEWEN  =     19350.89221385
  -Hartree energ DENC   =    -32216.91044776
  -exchange      EXHF   =         0.00000000
  -V(xc)+E(xc)   XCENC  =      1102.44010729
  PAW double counting   =     23255.11392109   -23751.35316496
  entropy T*S    EENTRO =         0.00000000
  eigenvalues    EBANDS =     -3624.32452462
  atomic energy  EATOM  =     15171.73615219
  Solvation  Ediel_sol  =         0.00000000
  ---------------------------------------------------
  free energy    TOTEN  =      -485.40239533 eV

  energy without entropy =     -485.40239533  energy(sigma->0) =     -485.40239533


--------------------------------------------------------------------------------------------------------




--------------------------------------- Iteration      1(   9)  ---------------------------------------


    POTLOK:  cpu time    0.0703: real time    0.0709
    SETDIJ:  cpu time    0.0090: real time    0.0090
     EDDAV:  cpu time    7.7518: real time    7.7609
 BZINTS: Fermi energy: -1.685671;280.000000 electrons
         Band energy:***********;  BLOECHL correction:  0.000000
       DOS:  cpu time    0.0156: real time    0.0156
    CHARGE:  cpu time    0.1310: real time    0.1310
    MIXING:  cpu time    0.0016: real time    0.0015
    --------------------------------------------
      LOOP:  cpu time    7.9793: real time    7.9890

 eigenvalue-minimisations  :  4064
 total energy-change (2. order) :-0.5387893E+00  (-0.1267424E+01)
 number of electron     280.0000019 magnetization       0.0000000
 augmentation part       18.5383214 magnetization      -0.0007968

 Broyden mixing:
  rms(total) = 0.65712E+00    rms(broyden)= 0.65650E+00
  rms(prec ) = 0.92001E+00
  weight for this iteration     100.00

 eigenvalues of (default mixing * dielectric matrix)
  average eigenvalue GAMMA=   1.6074
  3.5951  1.3523  0.7410  0.7410

 Free energy of the ion-electron system (eV)
  ---------------------------------------------------
  alpha Z        PSCENC =       227.00334759
  Ewald energy   TEWEN  =     19350.89221385
  -Hartree energ DENC   =    -32276.09657832
  -exchange      EXHF   =         0.00000000
  -V(xc)+E(xc)   XCENC  =      1105.30100124
  PAW double counting   =     27816.89870403   -28316.45394162
  entropy T*S    EENTRO =         0.00000000
  eigenvalues    EBANDS =     -3565.22208359
  atomic energy  EATOM  =     15171.73615219
  Solvation  Ediel_sol  =         0.00000000
  ---------------------------------------------------
  free energy    TOTEN  =      -485.94118463 eV

  energy without entropy =     -485.94118463  energy(sigma->0) =     -485.94118463


--------------------------------------------------------------------------------------------------------




--------------------------------------- Iteration      1(  10)  ---------------------------------------


    POTLOK:  cpu time    0.0701: real time    0.0707
    SETDIJ:  cpu time    0.0091: real time    0.0091
     EDDAV:  cpu time    7.8717: real time    7.8807
 BZINTS: Fermi energy: -1.445611;280.000000 electrons
         Band energy:***********;  BLOECHL correction:  0.000000
       DOS:  cpu time    0.0169: real time    0.0169
    CHARGE:  cpu time    0.1370: real time    0.1379
    MIXING:  cpu time    0.0018: real time    0.0018
    --------------------------------------------
      LOOP:  cpu time    8.1065: real time    8.1169

 eigenvalue-minimisations  :  4144
 total energy-change (2. order) : 0.8512250E+00  (-0.8080888E+00)
 number of electron     280.0000020 magnetization       0.0000000
 augmentation part       18.5203468 magnetization      -0.0005442

 Broyden mixing:
  rms(total) = 0.30349E+00    rms(broyden)= 0.30284E+00
  rms(prec ) = 0.35291E+00
  weight for this iteration     100.00

 eigenvalues of (default mixing * dielectric matrix)
  average eigenvalue GAMMA=   1.5243
  3.8248  1.5408  0.9855  0.6353  0.6353

 Free energy of the ion-electron system (eV)
  ---------------------------------------------------
  alpha Z        PSCENC =       227.00334759
  Ewald energy   TEWEN  =     19350.89221385
  -Hartree energ DENC   =    -32283.92333059
  -exchange      EXHF   =         0.00000000
  -V(xc)+E(xc)   XCENC  =      1105.99726778
  PAW double counting   =     29548.18276491   -30048.52048703
  entropy T*S    EENTRO =         0.00000000
  eigenvalues    EBANDS =     -3556.45788829
  atomic energy  EATOM  =     15171.73615219
  Solvation  Ediel_sol  =         0.00000000
  ---------------------------------------------------
  free energy    TOTEN  =      -485.08995959 eV

  energy without entropy =     -485.08995959  energy(sigma->0) =     -485.08995959


--------------------------------------------------------------------------------------------------------




--------------------------------------- Iteration      1(  11)  ---------------------------------------


    POTLOK:  cpu time    0.0744: real time    0.0792
    SETDIJ:  cpu time    0.0090: real time    0.0090
     EDDAV:  cpu time    7.6570: real time    7.6639
 BZINTS: Fermi energy: -1.524381;280.000000 electrons
         Band energy:***********;  BLOECHL correction:  0.000000
       DOS:  cpu time    0.0159: real time    0.0159
    CHARGE:  cpu time    0.1306: real time    0.1306
    MIXING:  cpu time    0.0018: real time    0.0018
    --------------------------------------------
      LOOP:  cpu time    7.8886: real time    7.9004

 eigenvalue-minimisations  :  3992
 total energy-change (2. order) : 0.6444155E-01  (-0.9368956E-01)
 number of electron     280.0000021 magnetization      -0.0000000
 augmentation part       18.5254999 magnetization      -0.0002127

 Broyden mixing:
  rms(total) = 0.18742E+00    rms(broyden)= 0.18728E+00
  rms(prec ) = 0.22899E+00
  weight for this iteration     100.00

 eigenvalues of (default mixing * dielectric matrix)
  average eigenvalue GAMMA=   1.4816
  3.8738  1.7953  1.1581  0.6868  0.6868  0.6889

 Free energy of the ion-electron system (eV)
  ---------------------------------------------------
  alpha Z        PSCENC =       227.00334759
  Ewald energy   TEWEN  =     19350.89221385
  -Hartree energ DENC   =    -32263.40633488
  -exchange      EXHF   =         0.00000000
  -V(xc)+E(xc)   XCENC  =      1105.53605471
  PAW double counting   =     30262.18408824   -30762.41007096
  entropy T*S    EENTRO =         0.00000000
  eigenvalues    EBANDS =     -3576.56096879
  atomic energy  EATOM  =     15171.73615219
  Solvation  Ediel_sol  =         0.00000000
  ---------------------------------------------------
  free energy    TOTEN  =      -485.02551805 eV

  energy without entropy =     -485.02551805  energy(sigma->0) =     -485.02551805


--------------------------------------------------------------------------------------------------------




--------------------------------------- Iteration      1(  12)  ---------------------------------------


    POTLOK:  cpu time    0.0644: real time    0.0705
    SETDIJ:  cpu time    0.0092: real time    0.0092
     EDDAV:  cpu time    7.6605: real time    7.6703
 BZINTS: Fermi energy: -1.545636;280.000000 electrons
         Band energy:***********;  BLOECHL correction:  0.000000
       DOS:  cpu time    0.0152: real time    0.0152
    CHARGE:  cpu time    0.1310: real time    0.1310
    MIXING:  cpu time    0.0018: real time    0.0018
    --------------------------------------------
      LOOP:  cpu time    7.8822: real time    7.8982

 eigenvalue-minimisations  :  4000
 total energy-change (2. order) : 0.4731107E-01  (-0.5485389E-01)
 number of electron     280.0000020 magnetization       0.0000000
 augmentation part       18.5338184 magnetization      -0.0000550

 Broyden mixing:
  rms(total) = 0.98811E-01    rms(broyden)= 0.98680E-01
  rms(prec ) = 0.12561E+00
  weight for this iteration     100.00

 eigenvalues of (default mixing * dielectric matrix)
  average eigenvalue GAMMA=   1.4826
  3.8314  2.2524  1.4130  1.0025  0.6439  0.6439  0.5910

 Free energy of the ion-electron system (eV)
  ---------------------------------------------------
  alpha Z        PSCENC =       227.00334759
  Ewald energy   TEWEN  =     19350.89221385
  -Hartree energ DENC   =    -32242.40921267
  -exchange      EXHF   =         0.00000000
  -V(xc)+E(xc)   XCENC  =      1104.84812512
  PAW double counting   =     30607.13531883   -31107.04479663
  entropy T*S    EENTRO =         0.00000000
  eigenvalues    EBANDS =     -3597.13935527
  atomic energy  EATOM  =     15171.73615219
  Solvation  Ediel_sol  =         0.00000000
  ---------------------------------------------------
  free energy    TOTEN  =      -484.97820698 eV

  energy without entropy =     -484.97820698  energy(sigma->0) =     -484.97820698


--------------------------------------------------------------------------------------------------------




--------------------------------------- Iteration      1(  13)  ---------------------------------------


    POTLOK:  cpu time    0.0687: real time    0.0712
    SETDIJ:  cpu time    0.0091: real time    0.0091
     EDDAV:  cpu time    7.7273: real time    7.7374
 BZINTS: Fermi energy: -1.619405;280.000000 electrons
         Band energy:***********;  BLOECHL correction:  0.000000
       DOS:  cpu time    0.0151: real time    0.0151
    CHARGE:  cpu time    0.1321: real time    0.1321
    MIXING:  cpu time    0.0020: real time    0.0020
    --------------------------------------------
      LOOP:  cpu time    7.9542: real time    7.9668

 eigenvalue-minimisations  :  4048
 total energy-change (2. order) : 0.5540094E-02  (-0.2939459E-01)
 number of electron     280.0000021 magnetization      -0.0000000
 augmentation part       18.5435132 magnetization       0.0000487

 Broyden mixing:
  rms(total) = 0.66257E-01    rms(broyden)= 0.66150E-01
  rms(prec ) = 0.93851E-01
  weight for this iteration     100.00

 eigenvalues of (default mixing * dielectric matrix)
  average eigenvalue GAMMA=   1.4432
  3.8127  2.4467  1.3496  1.0621  1.0621  0.6271  0.6271  0.5580

 Free energy of the ion-electron system (eV)
  ---------------------------------------------------
  alpha Z        PSCENC =       227.00334759
  Ewald energy   TEWEN  =     19350.89221385
  -Hartree energ DENC   =    -32232.01304781
  -exchange      EXHF   =         0.00000000
  -V(xc)+E(xc)   XCENC  =      1104.41862291
  PAW double counting   =     30722.53600779   -31222.22667586
  entropy T*S    EENTRO =         0.00000000
  eigenvalues    EBANDS =     -3607.31928755
  atomic energy  EATOM  =     15171.73615219
  Solvation  Ediel_sol  =         0.00000000
  ---------------------------------------------------
  free energy    TOTEN  =      -484.97266689 eV

  energy without entropy =     -484.97266689  energy(sigma->0) =     -484.97266689


--------------------------------------------------------------------------------------------------------




--------------------------------------- Iteration      1(  14)  ---------------------------------------


    POTLOK:  cpu time    0.0697: real time    0.0706
    SETDIJ:  cpu time    0.0092: real time    0.0092
     EDDAV:  cpu time    7.7852: real time    7.7941
 BZINTS: Fermi energy: -1.595649;280.000000 electrons
         Band energy:***********;  BLOECHL correction:  0.000000
       DOS:  cpu time    0.0152: real time    0.0152
    CHARGE:  cpu time    0.1313: real time    0.1313
    MIXING:  cpu time    0.0020: real time    0.0020
    --------------------------------------------
      LOOP:  cpu time    8.0126: real time    8.0224

 eigenvalue-minimisations  :  4080
 total energy-change (2. order) : 0.5474581E-02  (-0.1515566E-01)
 number of electron     280.0000020 magnetization       0.0000000
 augmentation part       18.5443524 magnetization       0.0000227

 Broyden mixing:
  rms(total) = 0.43107E-01    rms(broyden)= 0.42998E-01
  rms(prec ) = 0.60855E-01
  weight for this iteration     100.00

 eigenvalues of (default mixing * dielectric matrix)
  average eigenvalue GAMMA=   1.4399
  3.7587  2.6178  1.5899  1.3354  1.0250  0.8240  0.6425  0.6425  0.5237

 Free energy of the ion-electron system (eV)
  ---------------------------------------------------
  alpha Z        PSCENC =       227.00334759
  Ewald energy   TEWEN  =     19350.89221385
  -Hartree energ DENC   =    -32229.96820902
  -exchange      EXHF   =         0.00000000
  -V(xc)+E(xc)   XCENC  =      1104.33201958
  PAW double counting   =     30765.30615827   -31264.90706955
  entropy T*S    EENTRO =         0.00000000
  eigenvalues    EBANDS =     -3609.36180521
  atomic energy  EATOM  =     15171.73615219
  Solvation  Ediel_sol  =         0.00000000
  ---------------------------------------------------
  free energy    TOTEN  =      -484.96719231 eV

  energy without entropy =     -484.96719231  energy(sigma->0) =     -484.96719231


--------------------------------------------------------------------------------------------------------




--------------------------------------- Iteration      1(  15)  ---------------------------------------


    POTLOK:  cpu time    0.0713: real time    0.0717
    SETDIJ:  cpu time    0.0092: real time    0.0092
     EDDAV:  cpu time    7.4848: real time    7.4934
 BZINTS: Fermi energy: -1.600650;280.000000 electrons
         Band energy:***********;  BLOECHL correction:  0.000000
       DOS:  cpu time    0.0152: real time    0.0152
    CHARGE:  cpu time    0.1325: real time    0.1325
    MIXING:  cpu time    0.0021: real time    0.0021
    --------------------------------------------
      LOOP:  cpu time    7.7151: real time    7.7241

 eigenvalue-minimisations  :  3896
 total energy-change (2. order) : 0.2615474E-02  (-0.2520477E-02)
 number of electron     280.0000020 magnetization      -0.0000000
 augmentation part       18.5455374 magnetization       0.0000108

 Broyden mixing:
  rms(total) = 0.19768E-01    rms(broyden)= 0.19752E-01
  rms(prec ) = 0.21168E-01
  weight for this iteration     100.00

 eigenvalues of (default mixing * dielectric matrix)
  average eigenvalue GAMMA=   1.4689
  3.6433  2.8351  1.8860  1.3885  1.3885  0.9715  0.6355  0.6355  0.7828  0.5219

 Free energy of the ion-electron system (eV)
  ---------------------------------------------------
  alpha Z        PSCENC =       227.00334759
  Ewald energy   TEWEN  =     19350.89221385
  -Hartree energ DENC   =    -32230.66670440
  -exchange      EXHF   =         0.00000000
  -V(xc)+E(xc)   XCENC  =      1104.32020503
  PAW double counting   =     30776.76340524   -31276.34275494
  entropy T*S    EENTRO =         0.00000000
  eigenvalues    EBANDS =     -3608.67044138
  atomic energy  EATOM  =     15171.73615219
  Solvation  Ediel_sol  =         0.00000000
  ---------------------------------------------------
  free energy    TOTEN  =      -484.96457683 eV

  energy without entropy =     -484.96457683  energy(sigma->0) =     -484.96457683


--------------------------------------------------------------------------------------------------------




--------------------------------------- Iteration      1(  16)  ---------------------------------------


    POTLOK:  cpu time    0.0679: real time    0.0712
    SETDIJ:  cpu time    0.0095: real time    0.0095
     EDDAV:  cpu time    7.7590: real time    7.7678
 BZINTS: Fermi energy: -1.600650;280.000000 electrons
         Band energy:***********;  BLOECHL correction:  0.000000
       DOS:  cpu time    0.0153: real time    0.0153
    CHARGE:  cpu time    0.1312: real time    0.1312
    MIXING:  cpu time    0.0023: real time    0.0023
    --------------------------------------------
      LOOP:  cpu time    7.9850: real time    7.9973

 eigenvalue-minimisations  :  4072
 total energy-change (2. order) :-0.1440689E-03  (-0.2544554E-03)
 number of electron     280.0000020 magnetization       0.0000000
 augmentation part       18.5446789 magnetization      -0.0000015

 Broyden mixing:
  rms(total) = 0.11146E-01    rms(broyden)= 0.11139E-01
  rms(prec ) = 0.11706E-01
  weight for this iteration     100.00

 eigenvalues of (default mixing * dielectric matrix)
  average eigenvalue GAMMA=   1.4830
  3.5610  2.6496  2.6496  1.5786  1.1036  1.1036  0.9783  0.8925  0.6362  0.6362
  0.5235

 Free energy of the ion-electron system (eV)
  ---------------------------------------------------
  alpha Z        PSCENC =       227.00334759
  Ewald energy   TEWEN  =     19350.89221385
  -Hartree energ DENC   =    -32231.26965229
  -exchange      EXHF   =         0.00000000
  -V(xc)+E(xc)   XCENC  =      1104.33643963
  PAW double counting   =     30775.32722448   -31274.90414470
  entropy T*S    EENTRO =         0.00000000
  eigenvalues    EBANDS =     -3608.08630165
  atomic energy  EATOM  =     15171.73615219
  Solvation  Ediel_sol  =         0.00000000
  ---------------------------------------------------
  free energy    TOTEN  =      -484.96472090 eV

  energy without entropy =     -484.96472090  energy(sigma->0) =     -484.96472090


--------------------------------------------------------------------------------------------------------




--------------------------------------- Iteration      1(  17)  ---------------------------------------


    POTLOK:  cpu time    0.0643: real time    0.0733
    SETDIJ:  cpu time    0.0094: real time    0.0094
     EDDAV:  cpu time    6.8464: real time    6.8562
 BZINTS: Fermi energy: -1.600650;280.000000 electrons
         Band energy:***********;  BLOECHL correction:  0.000000
       DOS:  cpu time    0.0150: real time    0.0150
    --------------------------------------------
      LOOP:  cpu time    6.9352: real time    6.9539

 eigenvalue-minimisations  :  3456
 total energy-change (2. order) :-0.4754376E-05  (-0.5434549E-04)
 number of electron     280.0000020 magnetization       0.0000000
 augmentation part       18.5446789 magnetization      -0.0000015

 Free energy of the ion-electron system (eV)
  ---------------------------------------------------
  alpha Z        PSCENC =       227.00334759
  Ewald energy   TEWEN  =     19350.89221385
  -Hartree energ DENC   =    -32231.89875223
  -exchange      EXHF   =         0.00000000
  -V(xc)+E(xc)   XCENC  =      1104.35894358
  PAW double counting   =     30772.36724471   -31271.95343231
  entropy T*S    EENTRO =         0.00000000
  eigenvalues    EBANDS =     -3607.47044303
  atomic energy  EATOM  =     15171.73615219
  Solvation  Ediel_sol  =         0.00000000
  ---------------------------------------------------
  free energy    TOTEN  =      -484.96472566 eV

  energy without entropy =     -484.96472566  energy(sigma->0) =     -484.96472566


--------------------------------------------------------------------------------------------------------




 average (electrostatic) potential at core
  the test charge radii are     0.6991  0.7089  0.9911  0.6991  0.7215
  (the norm of the test charge is              1.0000)
       1 -60.0775       2 -60.1940       3 -60.1010       4 -59.1411       5 -59.9471
       6 -59.7860       7 -60.1810       8 -59.8026       9 -59.7076      10 -60.4155
      11 -59.9495      12 -60.5074      13 -59.0680      14 -59.7827      15 -59.6922
      16 -59.8476      17 -60.0153      18 -59.0240      19 -60.0525      20 -59.7726
      21 -59.4903      22 -60.0000      23 -59.9991      24 -59.9643      25 -73.6773
      26 -71.5299      27 -71.3148      28 -71.6072      29 -71.9083      30 -71.1057
      31 -71.5516      32 -73.8550      33 -73.1250      34 -72.3750      35 -72.7651
      36 -71.4766      37 -72.2271      38 -71.9565      39 -72.5279      40 -74.1700
      41 -73.6321      42 -71.1245      43 -71.3968      44 -71.9333      45 -71.7410
      46 -71.5283      47 -71.3209      48 -73.1461      49 -73.4786      50 -71.8268
      51 -71.5364      52 -71.6577      53 -71.6056      54 -71.9124      55 -71.7925
      56 -74.0978      57 -82.2819      58 -58.9581      59 -80.7420



 E-fermi :  -1.6007     XC(G=0):  -4.3626     alpha+bet : -3.4095


 spin component 1

 k-point     1 :       0.0000    0.0000    0.0000
  band No.  band energies     occupation 
      1     -27.5754      1.00000
      2     -27.5709      1.00000
      3     -27.5446      1.00000
      4     -27.5429      1.00000
      5     -27.5289      1.00000
      6     -26.4738      1.00000
      7     -25.9959      1.00000
      8     -25.7225      1.00000
      9     -25.5990      1.00000
     10     -25.1652      1.00000
     11     -24.8761      1.00000
     12     -24.6835      1.00000
     13     -24.6063      1.00000
     14     -23.6443      1.00000
     15     -23.5437      1.00000
     16     -23.4523      1.00000
     17     -23.4215      1.00000
     18     -23.0550      1.00000
     19     -22.8559      1.00000
     20     -22.4469      1.00000
     21     -22.3527      1.00000
     22     -22.0964      1.00000
     23     -21.5988      1.00000
     24     -21.4646      1.00000
     25     -21.3077      1.00000
     26     -21.2723      1.00000
     27     -21.1116      1.00000
     28     -20.9848      1.00000
     29     -20.7668      1.00000
     30     -20.6025      1.00000
     31     -20.5775      1.00000
     32     -20.4576      1.00000
     33     -20.3155      1.00000
     34     -20.0694      1.00000
     35     -20.0104      1.00000
     36     -19.9217      1.00000
     37     -19.7991      1.00000
     38     -19.3003      1.00000
     39     -16.8832      1.00000
     40     -16.8306      1.00000
     41     -16.5511      1.00000
     42     -16.3549      1.00000
     43     -16.1619      1.00000
     44     -16.1172      1.00000
     45     -15.8739      1.00000
     46     -15.2370      1.00000
     47     -14.9596      1.00000
     48     -14.8023      1.00000
     49     -14.6062      1.00000
     50     -14.4119      1.00000
     51     -14.2078      1.00000
     52     -13.9979      1.00000
     53     -13.7943      1.00000
     54     -13.7682      1.00000
     55     -13.5687      1.00000
     56     -13.2187      1.00000
     57     -13.1505      1.00000
     58     -13.0116      1.00000
     59     -12.9085      1.00000
     60     -12.8174      1.00000
     61     -12.6943      1.00000
     62     -12.5960      1.00000
     63     -12.0711      1.00000
     64     -12.0355      1.00000
     65     -11.8988      1.00000
     66     -11.7655      1.00000
     67     -11.6569      1.00000
     68     -11.5376      1.00000
     69     -11.3545      1.00000
     70     -11.2445      1.00000
     71     -11.1518      1.00000
     72     -11.0726      1.00000
     73     -10.9251      1.00000
     74     -10.7669      1.00000
     75     -10.6988      1.00000
     76     -10.5810      1.00000
     77     -10.5412      1.00000
     78     -10.4786      1.00000
     79     -10.1167      1.00000
     80     -10.0333      1.00000
     81      -9.9325      1.00000
     82      -9.8106      1.00000
     83      -9.5193      1.00000
     84      -9.2230      1.00000
     85      -8.9803      1.00000
     86      -8.9561      1.00000
     87      -8.8652      1.00000
     88      -8.8497      1.00000
     89      -8.6163      1.00000
     90      -8.5078      1.00000
     91      -8.4939      1.00000
     92      -8.2740      1.00000
     93      -8.2638      1.00000
     94      -8.0370      1.00000
     95      -7.9536      1.00000
     96      -7.6866      1.00000
     97      -7.5772      1.00000
     98      -7.4675      1.00000
     99      -7.2669      1.00000
[...]
   0.449E+01 -.341E+02 0.247E+03   -.417E+01 0.334E+02 -.250E+03   -.286E+00 0.720E+00 0.321E+01   -.595E-02 0.712E-02 0.204E-01
   -.719E+02 -.380E+02 0.575E+02   0.744E+02 0.381E+02 -.592E+02   -.263E+01 -.883E-01 0.175E+01   -.887E-03 0.105E-01 -.813E-02
   0.904E+02 -.177E+02 -.118E+03   -.907E+02 0.164E+02 0.116E+03   0.413E+00 0.123E+01 0.217E+01   -.121E-01 -.311E-02 -.286E-02
   -.644E+01 -.389E+02 -.105E+03   0.747E+01 0.411E+02 0.102E+03   -.978E+00 -.211E+01 0.260E+01   -.103E-01 -.888E-02 0.988E-02
   -.213E+02 -.426E+02 -.210E+03   0.193E+02 0.446E+02 0.210E+03   0.202E+01 -.198E+01 -.120E+00   -.143E-01 0.498E-02 -.124E-02
   -.241E+02 0.854E+02 -.156E+03   0.227E+02 -.844E+02 0.158E+03   0.144E+01 -.924E+00 -.178E+01   0.295E-01 0.198E-02 -.134E-01
   -.610E+01 0.193E+02 0.197E+03   0.688E+01 -.204E+02 -.195E+03   -.737E+00 0.118E+01 -.194E+01   0.569E-02 -.375E-01 0.101E-01
   0.714E+02 0.787E+02 -.817E+02   -.703E+02 -.787E+02 0.835E+02   -.987E+00 -.229E-01 -.187E+01   0.483E-02 -.888E-04 0.189E-03
   0.563E+01 0.459E+02 0.155E+03   -.515E+01 -.506E+02 -.154E+03   -.510E+00 0.457E+01 -.954E+00   -.116E-01 0.212E-01 -.332E-02
   0.942E+02 0.112E+02 0.411E+03   -.936E+02 -.953E+01 -.414E+03   -.483E+00 -.166E+01 0.316E+01   -.110E-02 0.204E-01 0.124E-02
   0.290E+02 0.338E+02 0.793E+02   -.316E+02 -.328E+02 -.778E+02   0.270E+01 -.932E+00 -.142E+01   -.297E-01 0.272E-01 0.118E-01
   0.660E+02 0.469E+01 0.931E+02   -.686E+02 -.554E+01 -.949E+02   0.273E+01 0.808E+00 0.180E+01   0.859E-02 0.144E-02 -.267E-02
   -.508E+02 0.136E+02 0.327E+03   0.516E+02 -.158E+02 -.329E+03   -.777E+00 0.219E+01 0.259E+01   0.105E-01 0.240E-02 -.474E-02
   -.669E+02 -.412E+02 0.524E+02   0.699E+02 0.419E+02 -.536E+02   -.308E+01 -.800E+00 0.115E+01   0.211E-01 0.203E-02 0.164E-01
   -.472E+02 0.226E+01 -.340E+03   0.475E+02 -.463E+01 0.338E+03   -.269E+00 0.235E+01 0.136E+01   0.162E-01 -.168E-01 -.887E-02
   0.292E+01 -.168E+02 -.192E+03   -.522E+00 0.188E+02 0.191E+03   -.234E+01 -.192E+01 0.684E+00   0.448E-02 -.199E-01 0.600E-02
   0.172E+02 -.409E+02 -.147E+03   -.187E+02 0.428E+02 0.144E+03   0.140E+01 -.171E+01 0.290E+01   0.242E-01 -.310E-01 0.154E-01
   0.488E+02 -.137E+03 0.173E+03   -.522E+02 0.139E+03 -.172E+03   0.345E+01 -.166E+01 -.268E+00   -.132E-01 0.586E-02 -.562E-03
   -.992E+01 -.708E+02 -.330E+03   0.100E+02 0.683E+02 0.332E+03   -.133E+00 0.254E+01 -.205E+01   -.521E-02 -.768E-02 0.138E-03
   -.846E+02 0.398E+02 -.165E+03   0.877E+02 -.396E+02 0.166E+03   -.309E+01 -.129E+00 -.127E+01   -.197E-01 0.148E-01 -.554E-02
   -.453E+02 0.299E+02 0.297E+03   0.475E+02 -.293E+02 -.304E+03   -.220E+01 -.689E+00 0.776E+01   0.277E-01 0.193E-02 0.641E-02
   -.222E+03 0.889E+01 0.341E+03   0.251E+03 0.190E+01 -.359E+03   -.292E+02 -.108E+02 0.182E+02   -.521E-02 0.182E-01 0.182E-03
   0.365E+02 -.205E+03 -.321E+03   -.547E+02 0.223E+03 0.344E+03   0.183E+02 -.182E+02 -.226E+02   -.258E-01 0.705E-02 0.284E-01
   0.476E+02 0.328E+02 0.514E+03   -.443E+02 -.447E+02 -.551E+03   -.336E+01 0.120E+02 0.367E+02   -.232E-01 0.201E-01 0.310E-01
   -.150E+02 -.184E+01 0.540E+03   0.115E+02 -.876E+01 -.576E+03   0.337E+01 0.106E+02 0.367E+02   0.114E-01 0.209E-02 0.273E-01
   0.188E+03 -.668E+02 0.330E+02   -.214E+03 0.874E+02 -.301E+02   0.258E+02 -.207E+02 -.289E+01   -.381E-01 0.447E-01 0.301E-02
   -.113E+03 -.405E+02 0.211E+03   0.139E+03 0.335E+02 -.236E+03   -.261E+02 0.704E+01 0.248E+02   -.185E-01 0.107E-01 -.359E-02
   0.542E+01 -.127E+03 -.178E+03   -.712E+01 0.138E+03 0.182E+03   0.171E+01 -.102E+02 -.395E+01   0.340E-02 -.367E-02 -.614E-02
   0.850E+01 0.132E+02 -.348E+03   -.552E+01 -.186E+02 0.368E+03   -.300E+01 0.541E+01 -.195E+02   -.178E-01 -.193E-02 0.435E-02
   0.116E+03 0.812E+02 -.408E+03   -.106E+03 -.829E+02 0.438E+03   -.104E+02 0.176E+01 -.295E+02   0.770E-03 -.708E-02 0.188E-02
   0.170E+02 0.135E+03 -.147E+03   -.377E+02 -.140E+03 0.161E+03   0.207E+02 0.501E+01 -.144E+02   0.277E-01 -.564E-02 -.210E-01
   -.659E+02 0.944E+02 0.147E+03   0.743E+02 -.128E+03 -.150E+03   -.844E+01 0.334E+02 0.343E+01   0.284E-01 -.412E-01 0.120E-01
   0.242E+02 0.609E+02 0.186E+03   -.301E+02 -.881E+02 -.195E+03   0.590E+01 0.272E+02 0.840E+01   0.332E-02 -.300E-01 0.353E-02
   0.470E+02 0.422E+02 -.524E+03   -.705E+02 -.362E+02 0.547E+03   0.234E+02 -.606E+01 -.232E+02   0.361E-01 0.161E-02 -.161E-01
   0.233E+01 0.171E+03 -.173E+03   0.141E+02 -.179E+03 0.197E+03   -.165E+02 0.814E+01 -.243E+02   0.172E-01 -.184E-02 -.318E-02
   0.117E+02 -.142E+02 0.169E+03   -.163E+02 0.119E+02 -.172E+03   0.464E+01 0.224E+01 0.296E+01   0.263E-03 0.610E-02 -.320E-02
   0.306E+02 0.128E+03 0.249E+03   -.287E+02 -.132E+03 -.248E+03   -.178E+01 0.380E+01 -.832E+00   -.237E-01 0.432E-01 0.567E-02
   -.180E+03 -.482E+02 0.911E+02   0.209E+03 0.667E+02 -.917E+02   -.290E+02 -.185E+02 0.596E+00   0.252E-01 0.308E-01 -.573E-02
   0.659E+02 0.713E+02 0.233E+03   -.890E+02 -.849E+02 -.256E+03   0.232E+02 0.137E+02 0.232E+02   0.108E-01 -.199E-01 0.132E-01
   -.900E+02 0.735E+02 0.564E+03   0.104E+03 -.866E+02 -.596E+03   -.145E+02 0.132E+02 0.320E+02   0.142E-01 -.186E-02 -.515E-02
   0.828E+01 0.137E+03 0.639E+03   -.735E+01 -.157E+03 -.670E+03   -.961E+00 0.199E+02 0.312E+02   0.556E-02 0.637E-02 -.966E-02
   0.180E+03 0.693E+02 0.365E+03   -.208E+03 -.644E+02 -.386E+03   0.282E+02 -.494E+01 0.200E+02   0.203E-01 0.895E-02 -.283E-02
   -.464E+02 -.220E+03 -.312E+03   0.651E+02 0.240E+03 0.334E+03   -.187E+02 -.197E+02 -.218E+02   0.327E-01 -.130E-01 0.302E-01
   0.103E+00 -.160E+02 0.327E+03   -.312E+00 0.200E+02 -.346E+03   0.186E+00 -.405E+01 0.181E+02   -.194E-04 -.262E-01 0.150E-01
   0.104E+02 -.613E+02 -.406E+03   -.131E+02 0.668E+02 0.419E+03   0.272E+01 -.546E+01 -.127E+02   0.254E-01 -.445E-01 0.645E-02
   -.243E+03 0.143E+02 -.395E+03   0.272E+03 -.178E+01 0.408E+03   -.292E+02 -.126E+02 -.132E+02   -.224E-01 0.118E-02 -.113E-01
   0.178E+03 -.253E+03 0.470E+03   -.204E+03 0.272E+03 -.483E+03   0.265E+02 -.191E+02 0.138E+02   -.169E-01 0.850E-02 0.496E-02
   -.590E+02 0.180E+02 -.578E+03   0.653E+02 -.353E+02 0.612E+03   -.631E+01 0.173E+02 -.339E+02   -.125E-01 -.634E-03 -.165E-03
   0.173E+02 -.236E+02 -.584E+03   -.216E+02 0.134E+02 0.620E+03   0.431E+01 0.102E+02 -.358E+02   -.677E-02 -.159E-01 -.543E-02
   0.165E+03 -.181E+03 0.173E+03   -.182E+03 0.210E+03 -.181E+03   0.175E+02 -.285E+02 0.777E+01   -.213E-01 0.208E-02 -.470E-02
   -.156E+03 0.582E+02 -.282E+03   0.187E+03 -.624E+02 0.300E+03   -.313E+02 0.418E+01 -.171E+02   -.355E-01 0.249E-01 -.589E-02
   -.477E+02 0.246E+02 0.561E+01   0.501E+02 -.228E+02 -.732E+01   -.242E+01 -.180E+01 0.167E+01   0.645E-02 0.722E-02 -.715E-02
   0.588E+02 0.585E+02 -.984E+03   -.569E+02 -.526E+02 0.101E+04   -.199E+01 -.583E+01 -.217E+02   0.324E-01 -.265E-01 0.108E-01
   0.796E+02 -.161E+03 -.107E+03   -.878E+02 0.182E+03 0.911E+02   0.821E+01 -.207E+02 0.161E+02   0.420E-02 -.458E-02 -.245E-02
   -.574E+02 0.176E+03 -.334E+03   0.751E+02 -.221E+03 0.369E+03   -.177E+02 0.448E+02 -.356E+02   0.375E-02 -.109E-02 -.613E-02
 -----------------------------------------------------------------------------------------------
   0.388E+02 -.337E+02 0.190E+02   -.995E-13 0.284E-13 -.966E-12   -.389E+02 0.337E+02 -.191E+02   0.947E-01 0.127E-01 0.137E+00


 POSITION                                       TOTAL-FORCE (eV/Angst)
 -----------------------------------------------------------------------------------
      0.03704      2.06308      5.31840        -0.003402      0.013431      0.004995
      0.95957      4.25543      5.69754         0.024917      0.043194      0.056379
     -1.35611      3.93178      5.30892        -0.056389      0.014896      0.010232
      5.20926      0.45038      6.46755        -0.019784      0.041137      0.043629
      3.08602      4.68410      5.33578         0.056450     -0.011073      0.043325
      1.27395      0.64733      6.37084         0.010764     -0.043772      0.036879
     -3.55197      7.16482      7.03388         0.001248      0.013990      0.004640
     -1.80396      8.81107      7.17500         0.002951      0.000465      0.040306
     -3.93034      9.38657      7.66451        -0.007774     -0.004686      0.026777
      2.04075      5.40838      7.38221        -0.010882      0.066079      0.050087
      0.21450      8.60928      6.31532         0.045743      0.002999      0.003391
     -2.78387      5.16390      6.48810         0.016986     -0.027502     -0.025358
      6.36395      2.16734      5.56048        -0.031796     -0.010390     -0.009916
      6.85410      4.26971      4.14162         0.000493     -0.003042      0.038854
      5.18790      4.20260      5.60408         0.069326      0.019546      0.051095
     11.16230      0.23986      6.33933        -0.009861     -0.058358      0.034742
      8.93082      4.16590      4.26418         0.097034     -0.027524      0.016076
      7.46899      0.43239      6.39233         0.014221     -0.011314      0.003546
      3.24067      6.97549      8.34216        -0.015003      0.063308      0.029955
      4.26296      9.12426      7.88917         0.014506      0.007061      0.036282
      2.05983      8.87214      7.43645         0.003307      0.066030      0.021826
      7.58101      5.96818      5.28652         0.005510      0.010509     -0.032723
      6.27315      9.80393      8.31146        -0.017305     -0.002562      0.021299
      4.41476      5.45718      7.25057        -0.010619      0.045809      0.033467
     -0.08482      3.40945      5.28678         0.050382     -0.011454     -0.024417
      1.26886      1.58195      5.45106        -0.000886      0.033408      0.001911
     -1.66087     10.11954      7.35368         0.038321      0.006179      0.002594
      4.18089      4.30260      4.74180        -0.072180      0.027983      0.025722
      1.90853      4.35187      4.80882        -0.060217     -0.015908      0.014916
      5.18589      1.70198      6.08090         0.003819     -0.012990      0.007380
     -3.88873     10.04532      6.51976        -0.048914      0.050357      0.007825
      0.12521      0.46043      7.18304         0.016310      0.040863     -0.048560
     -3.01888      8.31841      7.66906        -0.032515     -0.004882      0.011769
     -2.90912      6.06475      7.45846        -0.001034      0.003426     -0.010760
      0.90635      4.80691      6.95855         0.006335     -0.044380     -0.098968
      1.33069      8.00364      6.71174        -0.041104     -0.030266     -0.035318
     -0.96373      7.95374      6.55144        -0.022685     -0.014192     -0.038171
      2.09290      6.22049      8.41954        -0.034081     -0.022571     -0.020683
     -1.69421      4.41323      6.53028        -0.017822      0.004151     -0.008681
      8.62191      5.00079      5.40006        -0.037361      0.027094      0.029336
      6.23763      3.45637      5.01750         0.026514     -0.005102     -0.011686
      7.56252      1.66279      5.90081         0.026036      0.037982     -0.018445
      4.25803      9.52197      6.60151         0.066836      0.037125     -0.060029
     -1.98687      3.91188      4.17130        -0.021601      0.023088     -0.010232
      7.96220      3.83479      3.47577        -0.030699     -0.035524     -0.035852
     11.09126      1.14570      5.38203        -0.019636      0.028645     -0.026995
      8.14632     -0.08931      7.41146         0.033592     -0.046726     -0.029938
      0.21952      9.92156      5.98611        -0.020935     -0.056160     -0.015493
      3.10710      8.34225      8.21185        -0.003036     -0.052341     -0.001434
      4.45632      6.43409      8.13235         0.060778     -0.051243     -0.021611
      6.66365      5.65072      4.40784         0.034027     -0.011172      0.016366
     -4.74989      9.43695      8.70296         0.022995      0.004606     -0.018950
      5.13257      9.33833      8.84921        -0.021865     -0.015366     -0.028652
      7.74236      7.08371      6.05476        -0.003026     -0.010662     -0.019576
      5.42566      4.71705      6.80477        -0.038066     -0.045826     -0.044457
      3.16140      5.21266      6.62185        -0.030478     -0.036849     -0.057868
     -0.62654      5.95926      7.96091        -0.010735     -0.014008      0.027276
     -0.44387      5.82497     11.26489        -0.011012      0.021425     -0.009516
     -0.10501      4.96738     11.94071         0.013299     -0.016941      0.011411
 -----------------------------------------------------------------------------------
    total drift:                                0.002416      0.007628      0.002581


--------------------------------------------------------------------------------------------------------



  FREE ENERGIE OF THE ION-ELECTRON SYSTEM (eV)
  ---------------------------------------------------
  free  energy   TOTEN  =      -489.47810538 eV

  energy  without entropy=     -489.47810538  energy(sigma->0) =     -489.47810538



--------------------------------------------------------------------------------------------------------


    POTLOK:  cpu time    0.0783: real time    0.0783


--------------------------------------------------------------------------------------------------------


     LOOP+:  cpu time  143.7892: real time  144.0908
    4ORBIT:  cpu time    0.0000: real time    0.0000



 total charge     

# of ion       s       p       d       tot
------------------------------------------
    1        0.868   1.750   0.000   2.618
    2        0.854   1.747   0.000   2.601
    3        0.869   1.780   0.000   2.649
    4        0.862   1.741   0.000   2.603
    5        0.874   1.776   0.000   2.650
    6        0.878   1.778   0.000   2.656
    7        0.855   1.730   0.000   2.585
    8        0.862   1.737   0.000   2.599
    9        0.873   1.761   0.000   2.634
   10        0.865   1.761   0.000   2.627
   11        0.865   1.756   0.000   2.620
   12        0.881   1.803   0.000   2.684
   13        0.839   1.733   0.000   2.572
   14        0.852   1.717   0.000   2.570
   15        0.868   1.751   0.000   2.619
   16        0.867   1.737   0.000   2.605
   17        0.871   1.747   0.000   2.618
   18        0.860   1.732   0.000   2.591
   19        0.850   1.721   0.000   2.571
   20        0.861   1.727   0.000   2.587
   21        0.861   1.742   0.000   2.603
   22        0.858   1.719   0.000   2.577
   23        0.869   1.748   0.000   2.618
   24        0.863   1.745   0.000   2.608
   25        1.226   2.826   0.000   4.052
   26        1.274   2.679   0.000   3.953
   27        1.267   2.672   0.000   3.939
   28        1.293   2.655   0.000   3.948
   29        1.289   2.648   0.000   3.937
   30        1.261   2.648   0.000   3.909
   31        1.292   2.687   0.000   3.978
   32        1.235   2.749   0.000   3.984
   33        1.230   2.753   0.000   3.983
   34        1.269   2.679   0.000   3.949
   35        1.247   2.665   0.000   3.912
   36        1.269   2.666   0.000   3.935
   37        1.256   2.633   0.000   3.889
   38        1.259   2.647   0.000   3.906
   39        1.265   2.679   0.000   3.944
   40        1.231   2.771   0.000   4.002
   41        1.228   2.770   0.000   3.998
   42        1.263   2.639   0.000   3.902
   43        1.272   2.662   0.000   3.934
   44        1.284   2.653   0.000   3.937
   45        1.276   2.638   0.000   3.914
   46        1.261   2.657   0.000   3.918
   47        1.274   2.653   0.000   3.927
   48        1.237   2.706   0.000   3.944
   49        1.227   2.740   0.000   3.967
   50        1.265   2.651   0.000   3.916
   51        1.264   2.606   0.000   3.870
   52        1.285   2.632   0.000   3.917
   53        1.280   2.641   0.000   3.921
   54        1.258   2.638   0.000   3.896
   55        1.274   2.649   0.000   3.922
   56        1.228   2.782   0.000   4.010
   57        1.383   0.586  10.034  12.003
   58        1.037   1.443   0.000   2.479
   59        1.641   3.536   0.000   5.177
--------------------------------------------------
tot         65.124 133.276  10.034 208.435



 magnetization (x)

# of ion       s       p       d       tot
------------------------------------------
    1       -0.000  -0.000   0.000  -0.000
    2       -0.000  -0.000   0.000  -0.000
    3       -0.000  -0.000   0.000  -0.000
    4        0.000   0.000   0.000   0.000
    5       -0.000  -0.000   0.000  -0.000
    6       -0.000  -0.000   0.000  -0.000
    7       -0.000  -0.000   0.000  -0.000
    8        0.000   0.000   0.000   0.000
    9       -0.000  -0.000   0.000  -0.000
   10       -0.000  -0.000   0.000  -0.000
   11        0.000  -0.000   0.000  -0.000
   12        0.000  -0.000   0.000  -0.000
   13        0.000   0.000   0.000   0.000
   14        0.000   0.000   0.000   0.000
   15       -0.000  -0.000   0.000  -0.000
   16       -0.000  -0.000   0.000  -0.000
   17        0.000   0.000   0.000   0.000
   18        0.000   0.000   0.000   0.000
   19       -0.000  -0.000   0.000  -0.000
   20       -0.000  -0.000   0.000  -0.000
   21        0.000   0.000   0.000   0.000
   22        0.000  -0.000   0.000  -0.000
   23       -0.000  -0.000   0.000  -0.000
   24       -0.000  -0.000   0.000  -0.000
   25        0.000   0.000   0.000   0.000
   26        0.000   0.000   0.000   0.000
   27        0.000   0.000   0.000   0.000
   28        0.000   0.000   0.000   0.000
   29        0.000   0.000   0.000   0.000
   30       -0.000  -0.000   0.000  -0.000
   31        0.000  -0.000   0.000  -0.000
   32       -0.000  -0.000   0.000  -0.000
   33       -0.000   0.000   0.000   0.000
   34        0.000   0.000   0.000   0.000
   35        0.000   0.000   0.000   0.000
   36        0.000   0.000   0.000   0.000
   37       -0.000   0.000   0.000   0.000
   38        0.000   0.000   0.000   0.000
   39        0.000   0.000   0.000   0.000
   40        0.000  -0.000   0.000   0.000
   41       -0.000  -0.000   0.000  -0.000
   42        0.000   0.000   0.000   0.000
   43        0.000   0.000   0.000   0.000
   44        0.000  -0.000   0.000  -0.000
   45        0.000   0.000   0.000   0.000
   46       -0.000  -0.000   0.000  -0.000
   47        0.000   0.000   0.000   0.000
   48        0.000   0.000   0.000   0.000
   49        0.000   0.000   0.000   0.000
   50        0.000   0.000   0.000   0.000
   51        0.000   0.000   0.000   0.000
   52        0.000   0.000   0.000   0.000
   53       -0.000   0.000   0.000   0.000
   54        0.000   0.000   0.000   0.000
   55       -0.000  -0.000   0.000  -0.000
   56        0.000  -0.000   0.000  -0.000
   57        0.000  -0.000   0.000  -0.000
   58       -0.000  -0.000   0.000  -0.000
   59        0.000  -0.000   0.000  -0.000
--------------------------------------------------
tot          0.000  -0.000   0.000   0.000

 BZINTS: Fermi energy: -1.600650;280.000000 electrons
         Band energy:***********;  BLOECHL correction:  0.000000

 total amount of memory used by VASP MPI-rank0    73995. kBytes
=======================================================================

   base      :      30000. kBytes
   nonl-proj :      13141. kBytes
   fftplans  :       2624. kBytes
   grid      :       7821. kBytes
   one-center:        155. kBytes
   wavefun   :      20254. kBytes

  
  
 General timing and accounting informations for this job:
 ========================================================
  
                  Total CPU time used (sec):      154.720
                            User time (sec):      153.018
                          System time (sec):        1.702
                         Elapsed time (sec):      155.226
  
                   Maximum memory used (kb):      159100.
                   Average memory used (kb):           0.
  
                          Minor page faults:        41239
                          Major page faults:            0
                 Voluntary context switches:          869
