       N       E                     dE             d eps       ncg     rms          rms(c)
DAV:   1     0.245313180028E+04    0.24531E+04   -0.10792E+05  3376   0.107E+03
DAV:   2    -0.233971267625E+03   -0.26871E+04   -0.25707E+04  4224   0.279E+02
DAV:   3    -0.689319998651E+03   -0.45535E+03   -0.45264E+03  3536   0.121E+02
DAV:   4    -0.705949732721E+03   -0.16630E+02   -0.16486E+02  3568   0.284E+01
DAV:   5    -0.706487416541E+03   -0.53768E+00   -0.53589E+00  3976   0.434E+00    0.470E+01
RMM:   6    -0.739094279468E+03   -0.32607E+02   -0.54621E+02  4145   0.397E+01    0.882E+01
RMM:   7    -0.665990782547E+03    0.73103E+02   -0.49888E+01  2989   0.142E+01    0.362E+01
RMM:   8    -0.666309005842E+03   -0.31822E+00   -0.19899E+01  3136   0.699E+00    0.298E+01
RMM:   9    -0.649524596193E+03    0.16784E+02   -0.21235E+01  2960   0.850E+00    0.152E+01
RMM:  10    -0.650119757395E+03   -0.59516E+00   -0.57275E+00  2983   0.412E+00    0.165E+01
RMM:  11    -0.648333852611E+03    0.17859E+01   -0.34883E-01  3233   0.107E+00    0.929E+00
RMM:  12    -0.648210805570E+03    0.12305E+00   -0.19101E-01  2964   0.854E-01    0.780E+00
RMM:  13    -0.648303178220E+03   -0.92373E-01   -0.31765E-02  3104   0.410E-01    0.787E+00
RMM:  14    -0.648347227785E+03   -0.44050E-01   -0.92133E-03  3093   0.148E-01    0.775E+00
RMM:  15    -0.648413059867E+03   -0.65832E-01   -0.94051E-03  2986   0.136E-01    0.783E+00
RMM:  16    -0.648367042708E+03    0.46017E-01   -0.11291E-02  2996   0.178E-01    0.691E+00
RMM:  17    -0.648464510905E+03   -0.97468E-01   -0.18351E-01  2952   0.763E-01    0.657E+00
RMM:  18    -0.648116526975E+03    0.34798E+00   -0.25567E-01  3022   0.828E-01    0.403E+00
RMM:  19    -0.648088904664E+03    0.27622E-01   -0.56322E-02  3249   0.313E-01    0.437E+00
RMM:  20    -0.648113581495E+03   -0.24677E-01   -0.11730E-02  3500   0.101E-01    0.459E+00
RMM:  21    -0.647962490225E+03    0.15109E+00   -0.60776E-02  2965   0.383E-01    0.414E+00
RMM:  22    -0.648088031811E+03   -0.12554E+00   -0.42239E-02  2969   0.324E-01    0.405E+00
RMM:  23    -0.648167223604E+03   -0.79192E-01   -0.93503E-02  2973   0.490E-01    0.335E+00
RMM:  24    -0.648119482184E+03    0.47741E-01   -0.91941E-02  2997   0.491E-01    0.270E+00
RMM:  25    -0.648107193272E+03    0.12289E-01   -0.17366E-02  3356   0.175E-01    0.269E+00
RMM:  26    -0.648104306651E+03    0.28866E-02   -0.33434E-03  3463   0.549E-02    0.274E+00
RMM:  27    -0.648048107421E+03    0.56199E-01   -0.30139E-02  2952   0.286E-01    0.272E+00
RMM:  28    -0.647687142428E+03    0.36096E+00   -0.25991E-01  2947   0.761E-01    0.314E+00
RMM:  29    -0.647730236359E+03   -0.43094E-01   -0.15329E-02  3536   0.142E-01    0.320E+00
RMM:  30    -0.647748800589E+03   -0.18564E-01   -0.75659E-03  2943   0.144E-01    0.305E+00
RMM:  31    -0.647782325042E+03   -0.33524E-01   -0.42002E-03  2962   0.992E-02    0.293E+00
RMM:  32    -0.648031154305E+03   -0.24883E+00   -0.16116E-01  2961   0.585E-01    0.198E+00
RMM:  33    -0.648103692462E+03   -0.72538E-01   -0.47177E-02  2976   0.335E-01    0.188E+00
RMM:  34    -0.648164256247E+03   -0.60564E-01   -0.50434E-02  2986   0.316E-01    0.232E+00
RMM:  35    -0.648176622480E+03   -0.12366E-01   -0.17576E-02  3031   0.185E-01    0.220E+00
RMM:  36    -0.648203556397E+03   -0.26934E-01   -0.18079E-02  3014   0.203E-01    0.221E+00
RMM:  37    -0.648264544477E+03   -0.60988E-01   -0.44506E-02  3004   0.295E-01    0.214E+00
RMM:  38    -0.648279561798E+03   -0.15017E-01   -0.20107E-02  3167   0.165E-01    0.198E+00
RMM:  39    -0.648284024617E+03   -0.44628E-02   -0.65863E-03  2985   0.129E-01    0.214E+00
RMM:  40    -0.648280811405E+03    0.32132E-02   -0.11421E-03  2784   0.408E-02    0.213E+00
RMM:  41    -0.648293357624E+03   -0.12546E-01   -0.22447E-03  2979   0.650E-02    0.207E+00
RMM:  42    -0.648292150755E+03    0.12069E-02   -0.36643E-04  2585   0.214E-02    0.208E+00
RMM:  43    -0.648286591160E+03    0.55596E-02   -0.53198E-04  2823   0.398E-02    0.219E+00
RMM:  44    -0.648277523779E+03    0.90674E-02   -0.13614E-03  2919   0.603E-02    0.226E+00
RMM:  45    -0.648266162194E+03    0.11362E-01   -0.66755E-03  2963   0.147E-01    0.212E+00
RMM:  46    -0.648203611595E+03    0.62551E-01   -0.29001E-02  2969   0.281E-01    0.269E+00
RMM:  47    -0.648166799446E+03    0.36812E-01   -0.22402E-02  3021   0.234E-01    0.301E+00
RMM:  48    -0.648162503949E+03    0.42955E-02   -0.16314E-02  3015   0.225E-01    0.292E+00
RMM:  49    -0.648211241041E+03   -0.48737E-01   -0.12597E-02  2991   0.168E-01    0.330E+00
RMM:  50    -0.648257480618E+03   -0.46240E-01   -0.12148E-02  3010   0.150E-01
   1 F= -.65464595E+03 E0= -.65463306E+03  d E =-.654646E+03  mag=     0.5437
       N       E                     dE             d eps       ncg     rms          rms(c)
DAV:   1    -0.648229389670E+03   -0.18149E-01   -0.15492E+01  3328   0.124E+01    0.367E+00
RMM:   2    -0.648436208979E+03   -0.20682E+00   -0.12172E+00  3046   0.214E+00    0.398E+00
RMM:   3    -0.648523719930E+03   -0.87511E-01   -0.40984E-01  3233   0.963E-01    0.536E+00
RMM:   4    -0.648284791639E+03    0.23893E+00   -0.12315E-01  3160   0.537E-01    0.213E+00
RMM:   5    -0.648206182369E+03    0.78609E-01   -0.13837E-01  3091   0.472E-01    0.260E+00
RMM:   6    -0.648217091008E+03   -0.10909E-01   -0.14632E-02  3145   0.196E-01    0.256E+00
RMM:   7    -0.648204740252E+03    0.12351E-01   -0.12864E-02  2978   0.187E-01    0.258E+00
RMM:   8    -0.648260716364E+03   -0.55976E-01   -0.61864E-02  3012   0.364E-01    0.248E+00
RMM:   9    -0.648376602412E+03   -0.11589E+00   -0.18154E-01  3015   0.587E-01    0.195E+00
RMM:  10    -0.648406923450E+03   -0.30321E-01   -0.36965E-02  3169   0.305E-01    0.161E+00
RMM:  11    -0.648496076056E+03   -0.89153E-01   -0.26757E-02  3089   0.234E-01    0.105E+00
RMM:  12    -0.648659454346E+03   -0.16338E+00   -0.57604E-02  2947   0.292E-01    0.597E-01
RMM:  13    -0.648742130640E+03   -0.82676E-01   -0.24093E-02  3008   0.181E-01    0.278E-01
RMM:  14    -0.648795256508E+03   -0.53126E-01   -0.12697E-02  3019   0.144E-01    0.267E-01
RMM:  15    -0.648829177417E+03   -0.33921E-01   -0.53333E-03  2948   0.931E-02    0.252E-01
RMM:  16    -0.648838344936E+03   -0.91675E-02   -0.22369E-03  2980   0.589E-02    0.133E-01
RMM:  17    -0.648864348921E+03   -0.26004E-01   -0.24900E-03  2954   0.524E-02    0.159E-01
RMM:  18    -0.648888315950E+03   -0.23967E-01   -0.25826E-03  2842   0.465E-02    0.525E-02
RMM:  19    -0.648890800056E+03   -0.24841E-02   -0.96854E-04  2375   0.264E-02    0.338E-02
RMM:  20    -0.648891301886E+03   -0.50183E-03   -0.14177E-04  2245   0.160E-02    0.371E-02
RMM:  21    -0.648892029932E+03   -0.72805E-03   -0.10812E-04  2183   0.125E-02    0.106E-02
RMM:  22    -0.648892386234E+03   -0.35630E-03   -0.48711E-05  1981   0.747E-03    0.162E-02
RMM:  23    -0.648892685068E+03   -0.29883E-03   -0.40982E-05  1954   0.812E-03    0.189E-02
RMM:  24    -0.648892802993E+03   -0.11793E-03   -0.29329E-05  1760   0.573E-03    0.628E-03
RMM:  25    -0.648892924799E+03   -0.12181E-03   -0.11125E-05  1225   0.346E-03    0.338E-03
RMM:  26    -0.648892998712E+03   -0.73913E-04   -0.43701E-06  1154   0.260E-03    0.250E-03
RMM:  27    -0.648893038930E+03   -0.40218E-04   -0.18742E-06  1031   0.208E-03    0.111E-03
RMM:  28    -0.648893060566E+03   -0.21636E-04   -0.13060E-06   971   0.188E-03    0.125E-03
RMM:  29    -0.648893068664E+03   -0.80981E-05   -0.68695E-07   839   0.165E-03
   2 F= -.65528392E+03 E0= -.65525944E+03  d E =-.637965E+00  mag=     2.5801
       N       E                     dE             d eps       ncg     rms          rms(c)
DAV:   1    -0.648945127733E+03   -0.52067E-01   -0.42826E+00  3320   0.648E+00    0.757E-01
RMM:   2    -0.648963753200E+03   -0.18625E-01   -0.28042E-01  3057   0.102E+00    0.581E-01
RMM:   3    -0.648956357343E+03    0.73959E-02   -0.25290E-02  3497   0.287E-01    0.757E-01
RMM:   4    -0.648953917850E+03    0.24395E-02   -0.64296E-03  3181   0.138E-01    0.280E-01
RMM:   5    -0.648953407034E+03    0.51082E-03   -0.12991E-03  2982   0.649E-02    0.169E-01
RMM:   6    -0.648956981420E+03   -0.35744E-02   -0.83654E-04  2940   0.549E-02    0.451E-02
RMM:   7    -0.648959421595E+03   -0.24402E-02   -0.16157E-04  2297   0.183E-02    0.329E-02
RMM:   8    -0.648961603298E+03   -0.21817E-02   -0.87494E-05  2172   0.133E-02    0.155E-02
RMM:   9    -0.648963230183E+03   -0.16269E-02   -0.91372E-05  2147   0.101E-02    0.836E-03
RMM:  10    -0.648963714823E+03   -0.48464E-03   -0.34035E-05  1928   0.543E-03    0.452E-03
RMM:  11    -0.648963907754E+03   -0.19293E-03   -0.10177E-05  1463   0.379E-03    0.225E-03
RMM:  12    -0.648963945172E+03   -0.37418E-04   -0.38844E-06  1312   0.272E-03    0.934E-04
RMM:  13    -0.648963962954E+03   -0.17782E-04   -0.19446E-06  1136   0.214E-03    0.563E-04
RMM:  14    -0.648963978505E+03   -0.15551E-04   -0.94134E-07   966   0.177E-03    0.469E-04
RMM:  15    -0.648963996008E+03   -0.17503E-04   -0.10705E-06   916   0.173E-03    0.383E-04
RMM:  16    -0.648964009319E+03   -0.13311E-04   -0.83025E-07   807   0.164E-03    0.326E-04
RMM:  17    -0.648964012736E+03   -0.34174E-05   -0.37304E-07   673   0.150E-03
   3 F= -.65535371E+03 E0= -.65533393E+03  d E =-.707756E+00  mag=     2.7930
       N       E                     dE             d eps       ncg     rms          rms(c)
DAV:   1    -0.648974817081E+03   -0.10808E-01   -0.44859E-01  3368   0.209E+00    0.224E-01
RMM:   2    -0.648976798016E+03   -0.19809E-02   -0.28761E-02  3055   0.332E-01    0.214E-01
RMM:   3    -0.648976076290E+03    0.72173E-03   -0.23252E-03  3527   0.891E-02    0.183E-01
RMM:   4    -0.648975849060E+03    0.22723E-03   -0.42513E-04  2996   0.374E-02    0.793E-02
RMM:   5    -0.648975805784E+03    0.43276E-04   -0.11086E-04  2623   0.199E-02    0.479E-02
RMM:   6    -0.648976058778E+03   -0.25299E-03   -0.69243E-05  2235   0.174E-02    0.123E-02
RMM:   7    -0.648976265070E+03   -0.20629E-03   -0.10329E-05  1805   0.672E-03    0.874E-03
RMM:   8    -0.648976463137E+03   -0.19807E-03   -0.58397E-06  1770   0.452E-03    0.390E-03
RMM:   9    -0.648976589541E+03   -0.12640E-03   -0.42760E-06  1328   0.285E-03    0.222E-03
RMM:  10    -0.648976648066E+03   -0.58525E-04   -0.22580E-06  1186   0.227E-03    0.149E-03
RMM:  11    -0.648976681652E+03   -0.33586E-04   -0.12865E-06  1032   0.199E-03    0.121E-03
RMM:  12    -0.648976688984E+03   -0.73318E-05   -0.44321E-07   740   0.165E-03
   4 F= -.65536597E+03 E0= -.65534751E+03  d E =-.720017E+00  mag=     2.8356
       N       E                     dE             d eps       ncg     rms          rms(c)
DAV:   1    -0.648981923771E+03   -0.52421E-02   -0.81089E-01  3272   0.281E+00    0.292E-01
RMM:   2    -0.648985922243E+03   -0.39985E-02   -0.51940E-02  3057   0.448E-01    0.294E-01
RMM:   3    -0.648984693362E+03    0.12289E-02   -0.40026E-03  3551   0.118E-01    0.208E-01
RMM:   4    -0.648984416177E+03    0.27718E-03   -0.62819E-04  3080   0.462E-02    0.104E-01
RMM:   5    -0.648984345673E+03    0.70504E-04   -0.19178E-04  2831   0.262E-02    0.581E-02
RMM:   6    -0.648984610015E+03   -0.26434E-03   -0.10573E-04  2593   0.213E-02    0.143E-02
RMM:   7    -0.648984829845E+03   -0.21983E-03   -0.14050E-05  1836   0.720E-03    0.111E-02
RMM:   8    -0.648985049612E+03   -0.21977E-03   -0.79902E-06  1786   0.548E-03    0.461E-03
RMM:   9    -0.648985168026E+03   -0.11841E-03   -0.46283E-06  1428   0.316E-03    0.257E-03
RMM:  10    -0.648985224436E+03   -0.56410E-04   -0.21284E-06  1204   0.244E-03    0.163E-03
RMM:  11    -0.648985259613E+03   -0.35177E-04   -0.12420E-06  1077   0.205E-03    0.146E-03
RMM:  12    -0.648985272481E+03   -0.12869E-04   -0.60397E-07   831   0.170E-03    0.511E-04
RMM:  13    -0.648985277841E+03   -0.53598E-05   -0.38856E-07   708   0.156E-03
   5 F= -.65537397E+03 E0= -.65535702E+03  d E =-.728015E+00  mag=     2.8784
       N       E                     dE             d eps       ncg     rms          rms(c)
DAV:   1    -0.648985666693E+03   -0.39421E-03   -0.43022E-02  3424   0.647E-01    0.663E-02
RMM:   2    -0.648985856398E+03   -0.18971E-03   -0.27561E-03  3059   0.103E-01    0.692E-02
RMM:   3    -0.648985785841E+03    0.70557E-04   -0.20605E-04  2530   0.271E-02    0.461E-02
RMM:   4    -0.648985775246E+03    0.10595E-04   -0.31681E-05  1971   0.123E-02    0.239E-02
RMM:   5    -0.648985772618E+03    0.26282E-05   -0.11692E-05  1777   0.799E-03
   6 F= -.65537432E+03 E0= -.65535769E+03  d E =-.728369E+00  mag=     2.8839
       N       E                     dE             d eps       ncg     rms          rms(c)
DAV:   1    -0.648985839848E+03   -0.64602E-04   -0.38300E-03  3392   0.194E-01    0.211E-02
RMM:   2    -0.648985861570E+03   -0.21722E-04   -0.24210E-04  2626   0.307E-02    0.165E-02
RMM:   3    -0.648985861664E+03   -0.93565E-07   -0.19225E-05  1863   0.941E-03
   7 F= -.65537437E+03 E0= -.65535777E+03  d E =-.728414E+00  mag=     2.8857
