       N       E                     dE             d eps       ncg     rms          rms(c)
DAV:   1     0.253887925674E+04    0.25389E+04   -0.11189E+05  4368   0.106E+03
DAV:   2    -0.240226153173E+03   -0.27791E+04   -0.26547E+04  5480   0.280E+02
DAV:   3    -0.702873924347E+03   -0.46265E+03   -0.45888E+03  4584   0.120E+02
DAV:   4    -0.719486009592E+03   -0.16612E+02   -0.16478E+02  4640   0.282E+01
DAV:   5    -0.720029932846E+03   -0.54392E+00   -0.54146E+00  5304   0.427E+00    0.479E+01
DAV:   6    -0.722254811655E+03   -0.22249E+01   -0.75218E+01  4856   0.307E+01    0.767E+01
DAV:   7    -0.677769775856E+03    0.44485E+02   -0.58249E+01  5024   0.561E+01    0.285E+01
DAV:   8    -0.677919495034E+03   -0.14972E+00   -0.64344E+01  5248   0.219E+01    0.286E+01
DAV:   9    -0.664816925888E+03    0.13103E+02   -0.26775E+01  4576   0.149E+01    0.108E+01
DAV:  10    -0.664598731328E+03    0.21819E+00   -0.61587E+00  4696   0.579E+00    0.800E+00
DAV:  11    -0.664622456012E+03   -0.23725E-01   -0.77451E-01  4472   0.218E+00    0.704E+00
DAV:  12    -0.664869643655E+03   -0.24719E+00   -0.24543E-01  4760   0.133E+00    0.635E+00
DAV:  13    -0.664989818375E+03   -0.12017E+00   -0.29286E-01  4944   0.146E+00    0.479E+00
DAV:  14    -0.664875520116E+03    0.11430E+00   -0.95182E-01  4936   0.249E+00    0.365E+00
DAV:  15    -0.664973373279E+03   -0.97853E-01   -0.14857E-01  4504   0.119E+00    0.221E+00
DAV:  16    -0.665007605465E+03   -0.34232E-01   -0.74960E-02  4984   0.791E-01    0.145E+00
DAV:  17    -0.665018610810E+03   -0.11005E-01   -0.16849E-02  4616   0.407E-01    0.131E+00
DAV:  18    -0.665014695113E+03    0.39157E-02   -0.45409E-03  5048   0.210E-01    0.989E-01
DAV:  19    -0.665011554079E+03    0.31410E-02   -0.16391E-03  4880   0.143E-01    0.805E-01
DAV:  20    -0.665008923362E+03    0.26307E-02   -0.25095E-03  5184   0.147E-01    0.531E-01
DAV:  21    -0.665008262053E+03    0.66131E-03   -0.66712E-04  4168   0.687E-02    0.364E-01
DAV:  22    -0.665007988062E+03    0.27399E-03   -0.17786E-04  3184   0.368E-02    0.241E-01
DAV:  23    -0.665007728079E+03    0.25998E-03   -0.93849E-05  2656   0.285E-02    0.164E-01
DAV:  24    -0.665007623592E+03    0.10449E-03   -0.51639E-05  2552   0.182E-02    0.126E-01
DAV:  25    -0.665007568659E+03    0.54933E-04   -0.17094E-05  2160   0.113E-02
   1 F= -.67156552E+03 E0= -.67156552E+03  d E =0.000000E+00  mag=    -2.9836
