       N       E                     dE             d eps       ncg     rms          ort
DAV:   1     0.253094226089E+04    0.25309E+04   -0.11636E+05   960   0.110E+03
DAV:   2    -0.241478984219E+03   -0.27724E+04   -0.26460E+04   960   0.281E+02
DAV:   3    -0.701332308066E+03   -0.45985E+03   -0.45594E+03   960   0.120E+02
DAV:   4    -0.717944576393E+03   -0.16612E+02   -0.16483E+02   960   0.281E+01
DAV:   5    -0.718487875286E+03   -0.54330E+00   -0.54175E+00   960   0.425E+00
SDA:   6    -0.553767229270E+03    0.16472E+03   -0.54175E+00   960   0.510E+03 0.000E+00
CGA:   7    -0.610721878302E+03   -0.56955E+02   -0.25532E+02   960   0.442E+03 0.662E+03
CGA:   8    -0.645916071778E+03   -0.35194E+02   -0.23414E+02   960   0.127E+03 0.297E+03
CGA:   9    -0.654265642757E+03   -0.83496E+01   -0.10036E+02   960   0.504E+02-0.532E+01
CGA:  10    -0.661175299203E+03   -0.69097E+01   -0.68874E+01   960   0.509E+01 0.242E+00
CGA:  11    -0.662522061911E+03   -0.13468E+01   -0.13062E+01   960   0.188E+01 0.358E+00
CGA:  12    -0.662872172486E+03   -0.35011E+00   -0.35016E+00   960   0.109E+01 0.209E-01
CGA:  13    -0.663060759414E+03   -0.18859E+00   -0.19054E+00   960   0.386E+00 0.101E+00
CGA:  14    -0.663163387643E+03   -0.10263E+00   -0.10191E+00   960   0.217E+00 0.129E-01
CGA:  15    -0.663224526000E+03   -0.61138E-01   -0.59548E-01   960   0.840E-01 0.169E-01
CGA:  16    -0.663249647156E+03   -0.25121E-01   -0.24309E-01   960   0.398E-01 0.747E-02
CGA:  17    -0.663259888498E+03   -0.10241E-01   -0.10126E-01   960   0.269E-01 0.287E-02
CGA:  18    -0.663264464127E+03   -0.45756E-02   -0.47135E-02   960   0.103E-01 0.233E-02
CGA:  19    -0.663267768399E+03   -0.33043E-02   -0.32165E-02   960   0.435E-02 0.874E-03
CGA:  20    -0.663269552088E+03   -0.17837E-02   -0.16895E-02   960   0.233E-02 0.497E-03
CGA:  21    -0.663270405023E+03   -0.85293E-03   -0.83591E-03   960   0.198E-02 0.508E-04
CGA:  22    -0.663270742461E+03   -0.33744E-03   -0.33768E-03   960   0.976E-03 0.399E-05
CGA:  23    -0.663271001398E+03   -0.25894E-03   -0.25467E-03   960   0.294E-03 0.414E-04
CGA:  24    -0.663271116035E+03   -0.11464E-03   -0.11462E-03   960   0.132E-03-0.138E-05
CGA:  25    -0.663271161827E+03   -0.45792E-04   -0.45125E-04   960   0.117E-03 0.108E-05
   1 F= -.66982869E+03 E0= -.66982869E+03  d E =0.000000E+00  mag=     3.0000
