 vasp.5.4.4.18Apr17-6-g9f103f2a35 (build Jan 14 2022 15:04:31) complex          
  
 executed on             LinuxIFC date 2023.01.23  17:52:24
 running on   48 total cores
 distrk:  each k-point on   48 cores,    1 groups
 distr:  one band on NCORES_PER_BAND=  12 cores,    4 groups


--------------------------------------------------------------------------------------------------------


 INCAR:
 POTCAR:    PAW_PBE C 08Apr2002                   
 POTCAR:    PAW_PBE N 08Apr2002                   
 POTCAR:    PAW_PBE C 08Apr2002                   
 POTCAR:    PAW_PBE Cr_pv 02Aug2007               
 POTCAR:    PAW_PBE C 08Apr2002                   
   SHA256 =  253f7b50bb8d59471dbedb8285d89021f4a42ed1a2c5d38a03a736e69125dd95 C/
   COPYR  = (c) Copyright 08Apr2002 Georg Kresse                                
   COPYR  = This file is part of the software VASP. Any use, copying, and all ot
   COPYR  = If you do not have a valid VASP license, you may not use, copy or di
   VRHFIN =C: s2p2                                                              
   LEXCH  = PE                                                                  
   EATOM  =   147.1560 eV,   10.8157 Ry                                         
                                                                                
   TITEL  = PAW_PBE C 08Apr2002                                                 
   LULTRA =        F    use ultrasoft PP ?                                      
   IUNSCR =        1    unscreen: 0-lin 1-nonlin 2-no                           
   RPACOR =    1.200    partial core radius                                     
   POMASS =   12.011; ZVAL   =    4.000    mass and valenz                      
   RCORE  =    1.500    outmost cutoff radius                                   
   RWIGS  =    1.630; RWIGS  =    0.863    wigner-seitz radius (au A)           
   ENMAX  =  400.000; ENMIN  =  300.000 eV                                      
   ICORE  =        2    local potential                                         
   LCOR   =        T    correct aug charges                                     
   LPAW   =        T    paw PP                                                  
   EAUG   =  644.873                                                            
   DEXC   =    0.000                                                            
   RMAX   =    1.529    core radius for proj-oper                               
   RAUG   =    1.300    factor for augmentation sphere                          
   RDEP   =    1.501    radius for radial grids                                 
   RDEPT  =    1.300    core radius for aug-charge                              
                                                                                
   Atomic configuration                                                         
    4 entries                                                                   
     n  l   j            E        occ.                                          
     1  0  0.50      -273.3789   2.0000                                         
     2  0  0.50       -13.7508   2.0000                                         
     2  1  0.50        -5.2854   2.0000                                         
     3  2  1.50        -5.4423   0.0000                                         
   Description                                                                  
     l       E           TYP  RCUT    TYP  RCUT                                 
     0    -13.7508458     23  1.200                                             
     0     -8.2022199     23  1.200                                             
     1     -5.2854383     23  1.500                                             
     1     34.0145650     23  1.500                                             
     2     -5.4423304      7  1.500                                             
  local pseudopotential read in
  partial core-charges read in
  partial kinetic energy density read in
  atomic valenz-charges read in
  non local Contribution for L=           0  read in
    real space projection operators read in
  non local Contribution for L=           0  read in
    real space projection operators read in
  non local Contribution for L=           1  read in
    real space projection operators read in
  non local Contribution for L=           1  read in
    real space projection operators read in
    PAW grid and wavefunctions read in
 
   number of l-projection  operators is LMAX  =           4
   number of lm-projection operators is LMMAX =           8
 
 POTCAR:    PAW_PBE N 08Apr2002                   
   SHA256 =  e053789ff3a61a86a1b75d8a110fcc91f86041011e7b0817c7c99e4e8a6349d7 N/
   COPYR  = (c) Copyright 08Apr2002 Georg Kresse                                
   COPYR  = This file is part of the software VASP. Any use, copying, and all ot
   COPYR  = If you do not have a valid VASP license, you may not use, copy or di
   VRHFIN =N: s2p3                                                              
   LEXCH  = PE                                                                  
   EATOM  =   264.5486 eV,   19.4438 Ry                                         
                                                                                
   TITEL  = PAW_PBE N 08Apr2002                                                 
   LULTRA =        F    use ultrasoft PP ?                                      
   IUNSCR =        1    unscreen: 0-lin 1-nonlin 2-no                           
   RPACOR =    1.200    partial core radius                                     
   POMASS =   14.001; ZVAL   =    5.000    mass and valenz                      
   RCORE  =    1.500    outmost cutoff radius                                   
   RWIGS  =    1.400; RWIGS  =    0.741    wigner-seitz radius (au A)           
   ENMAX  =  400.000; ENMIN  =  300.000 eV                                      
   ICORE  =        2    local potential                                         
   LCOR   =        T    correct aug charges                                     
   LPAW   =        T    paw PP                                                  
   EAUG   =  627.112                                                            
   DEXC   =    0.000                                                            
   RMAX   =    1.529    core radius for proj-oper                               
   RAUG   =    1.300    factor for augmentation sphere                          
   RDEP   =    1.514    radius for radial grids                                 
   RDEPT  =    1.338    core radius for aug-charge                              
                                                                                
   Atomic configuration                                                         
    4 entries                                                                   
     n  l   j            E        occ.                                          
     1  0  0.50      -384.7179   2.0000                                         
     2  0  0.50       -18.5828   2.0000                                         
     2  1  0.50        -7.0898   3.0000                                         
     3  2  1.50        -6.8029   0.0000                                         
   Description                                                                  
     l       E           TYP  RCUT    TYP  RCUT                                 
     0    -18.5828119     23  1.200                                             
     0    -13.5018863     23  1.200                                             
     1     -7.0897853     23  1.500                                             
     1      9.5240782     23  1.500                                             
     2     -6.8029130      7  1.500                                             
  local pseudopotential read in
  partial core-charges read in
  partial kinetic energy density read in
  atomic valenz-charges read in
  non local Contribution for L=           0  read in
    real space projection operators read in
  non local Contribution for L=           0  read in
    real space projection operators read in
  non local Contribution for L=           1  read in
    real space projection operators read in
  non local Contribution for L=           1  read in
    real space projection operators read in
    PAW grid and wavefunctions read in
 
   number of l-projection  operators is LMAX  =           4
   number of lm-projection operators is LMMAX =           8
 
 POTCAR:    PAW_PBE C 08Apr2002                   
   SHA256 =  253f7b50bb8d59471dbedb8285d89021f4a42ed1a2c5d38a03a736e69125dd95 C/
   COPYR  = (c) Copyright 08Apr2002 Georg Kresse                                
   COPYR  = This file is part of the software VASP. Any use, copying, and all ot
   COPYR  = If you do not have a valid VASP license, you may not use, copy or di
   VRHFIN =C: s2p2                                                              
   LEXCH  = PE                                                                  
   EATOM  =   147.1560 eV,   10.8157 Ry                                         
                                                                                
   TITEL  = PAW_PBE C 08Apr2002                                                 
   LULTRA =        F    use ultrasoft PP ?                                      
   IUNSCR =        1    unscreen: 0-lin 1-nonlin 2-no                           
   RPACOR =    1.200    partial core radius                                     
   POMASS =   12.011; ZVAL   =    4.000    mass and valenz                      
   RCORE  =    1.500    outmost cutoff radius                                   
   RWIGS  =    1.630; RWIGS  =    0.863    wigner-seitz radius (au A)           
   ENMAX  =  400.000; ENMIN  =  300.000 eV                                      
   ICORE  =        2    local potential                                         
   LCOR   =        T    correct aug charges                                     
   LPAW   =        T    paw PP                                                  
   EAUG   =  644.873                                                            
   DEXC   =    0.000                                                            
   RMAX   =    1.529    core radius for proj-oper                               
   RAUG   =    1.300    factor for augmentation sphere                          
   RDEP   =    1.501    radius for radial grids                                 
   RDEPT  =    1.300    core radius for aug-charge                              
                                                                                
   Atomic configuration                                                         
    4 entries                                                                   
     n  l   j            E        occ.                                          
     1  0  0.50      -273.3789   2.0000                                         
     2  0  0.50       -13.7508   2.0000                                         
     2  1  0.50        -5.2854   2.0000                                         
     3  2  1.50        -5.4423   0.0000                                         
   Description                                                                  
     l       E           TYP  RCUT    TYP  RCUT                                 
     0    -13.7508458     23  1.200                                             
     0     -8.2022199     23  1.200                                             
     1     -5.2854383     23  1.500                                             
     1     34.0145650     23  1.500                                             
     2     -5.4423304      7  1.500                                             
  local pseudopotential read in
  partial core-charges read in
  partial kinetic energy density read in
  atomic valenz-charges read in
  non local Contribution for L=           0  read in
    real space projection operators read in
  non local Contribution for L=           0  read in
    real space projection operators read in
  non local Contribution for L=           1  read in
    real space projection operators read in
  non local Contribution for L=           1  read in
    real space projection operators read in
    PAW grid and wavefunctions read in
 
   number of l-projection  operators is LMAX  =           4
   number of lm-projection operators is LMMAX =           8
 
 POTCAR:    PAW_PBE Cr_pv 02Aug2007               
   SHA256 =  c9a7df34d3cdbacf1090e328ef39c0b420964e11c23f63548d1ac9dd218cdba0 Cr
   COPYR  = (c) Copyright 02Aug2007 Georg Kresse                                
   COPYR  = This file is part of the software VASP. Any use, copying, and all ot
   COPYR  = If you do not have a valid VASP license, you may not use, copy or di
   VRHFIN =Cr : p6d5s1                                                          
   LEXCH  = PE                                                                  
   EATOM  =  1647.9177 eV,  121.1185 Ry                                         
                                                                                
   TITEL  = PAW_PBE Cr_pv 02Aug2007                                             
   LULTRA =        F    use ultrasoft PP ?                                      
   IUNSCR =        1    unscreen: 0-lin 1-nonlin 2-no                           
   RPACOR =    2.080    partial core radius                                     
   POMASS =   51.996; ZVAL   =   12.000    mass and valenz                      
   RCORE  =    2.300    outmost cutoff radius                                   
   RWIGS  =    2.500; RWIGS  =    1.323    wigner-seitz radius (au A)           
   ENMAX  =  265.681; ENMIN  =  199.261 eV                                      
   ICORE  =        3    local potential                                         
   LCOR   =        T    correct aug charges                                     
   LPAW   =        T    paw PP                                                  
   EAUG   =  519.424                                                            
   DEXC   =    0.000                                                            
   RMAX   =    2.356    core radius for proj-oper                               
   RAUG   =    1.300    factor for augmentation sphere                          
   RDEP   =    2.447    radius for radial grids                                 
   RDEPT  =    1.882    core radius for aug-charge                              
                                                                                
   Atomic configuration                                                         
    8 entries                                                                   
     n  l   j            E        occ.                                          
     1  0  0.50     -5880.4963   2.0000                                         
     2  0  0.50      -667.0865   2.0000                                         
     2  1  1.50      -560.6250   6.0000                                         
     3  0  0.50       -73.9860   2.0000                                         
     3  1  1.50       -45.4378   6.0000                                         
     3  2  2.50        -2.9137   5.0000                                         
     4  0  0.50        -4.0071   1.0000                                         
     4  3  2.50        -1.3606   0.0000                                         
   Description                                                                  
     l       E           TYP  RCUT    TYP  RCUT                                 
     1    -45.4377911     23  2.000                                             
     1      1.3605826     23  2.000                                             
     2     -2.9136672     23  2.300                                             
     2     -4.2742498     23  2.300                                             
     0     -4.0071320     23  2.300                                             
     0      9.4498803     23  2.300                                             
     3      2.7211652     23  2.300                                             
  local pseudopotential read in
  partial core-charges read in
  partial kinetic energy density read in
  atomic valenz-charges read in
  non local Contribution for L=           1  read in
    real space projection operators read in
  non local Contribution for L=           1  read in
    real space projection operators read in
  non local Contribution for L=           2  read in
    real space projection operators read in
  non local Contribution for L=           2  read in
    real space projection operators read in
  non local Contribution for L=           0  read in
    real space projection operators read in
  non local Contribution for L=           0  read in
    real space projection operators read in
    PAW grid and wavefunctions read in
 
   number of l-projection  operators is LMAX  =           6
   number of lm-projection operators is LMMAX =          18
 
 Optimization of the real space projectors (new method)

 maximal supplied QI-value         = 25.13
 optimisation between [QCUT,QGAM] = [ 10.56, 21.36] = [ 31.20,127.80] Ry 
 Optimized for a Real-space Cutoff    1.32 Angstroem

   l    n(q)    QCUT    max X(q) W(low)/X(q) W(high)/X(q)  e(spline) 
   0      8    10.556   115.676    0.17E-03    0.39E-03    0.26E-06
   0      8    10.556    87.132    0.17E-03    0.39E-03    0.26E-06
   1      8    10.556     4.429    0.24E-03    0.31E-03    0.16E-06
   1      8    10.556     2.733    0.17E-03    0.22E-03    0.19E-06
 Optimization of the real space projectors (new method)

 maximal supplied QI-value         = 25.13
 optimisation between [QCUT,QGAM] = [ 10.56, 21.36] = [ 31.20,127.80] Ry 
 Optimized for a Real-space Cutoff    1.40 Angstroem

   l    n(q)    QCUT    max X(q) W(low)/X(q) W(high)/X(q)  e(spline) 
   0      9    10.556    79.467    0.20E-03    0.22E-03    0.30E-06
   0      9    10.556    66.151    0.20E-03    0.22E-03    0.30E-06
   1      8    10.556    12.181    0.10E-03    0.78E-03    0.19E-05
   1      8    10.556     8.434    0.11E-03    0.81E-03    0.19E-05
 Optimization of the real space projectors (new method)

 maximal supplied QI-value         = 25.13
 optimisation between [QCUT,QGAM] = [ 10.56, 21.36] = [ 31.20,127.80] Ry 
 Optimized for a Real-space Cutoff    1.32 Angstroem

   l    n(q)    QCUT    max X(q) W(low)/X(q) W(high)/X(q)  e(spline) 
   0      8    10.556   115.676    0.17E-03    0.39E-03    0.26E-06
   0      8    10.556    87.132    0.17E-03    0.39E-03    0.26E-06
   1      8    10.556     4.429    0.24E-03    0.31E-03    0.16E-06
   1      8    10.556     2.733    0.17E-03    0.22E-03    0.19E-06
 Optimization of the real space projectors (new method)

 maximal supplied QI-value         = 16.25
 optimisation between [QCUT,QGAM] = [ 10.73, 21.45] = [ 32.22,128.87] Ry 
 Optimized for a Real-space Cutoff    1.53 Angstroem

   l    n(q)    QCUT    max X(q) W(low)/X(q) W(high)/X(q)  e(spline) 
   1      9    10.726     3.262    0.64E-04    0.35E-04    0.11E-06
   1      9    10.726     5.741    0.13E-03    0.48E-04    0.19E-06
   2      9    10.726    60.438    0.12E-03    0.29E-04    0.13E-06
   2      9    10.726    55.380    0.12E-03    0.29E-04    0.13E-06
   0     10    10.726    80.273    0.43E-04    0.74E-05    0.81E-07
   0     10    10.726    36.654    0.34E-04    0.61E-05    0.73E-07
  PAW_PBE C 08Apr2002                   :
 energy of atom  1       EATOM= -147.1560
 kinetic energy error for atom=    0.0132 (will be added to EATOM!!)
  PAW_PBE N 08Apr2002                   :
 energy of atom  2       EATOM= -264.5486
 kinetic energy error for atom=    0.0298 (will be added to EATOM!!)
  PAW_PBE C 08Apr2002                   :
 energy of atom  3       EATOM= -147.1560
 kinetic energy error for atom=    0.0132 (will be added to EATOM!!)
  PAW_PBE Cr_pv 02Aug2007               :
 energy of atom  4       EATOM=-1647.9177
 kinetic energy error for atom=    0.0134 (will be added to EATOM!!)
 
 
 POSCAR: POSCAR-clean                            
  positions in direct lattice
  velocities in cartesian coordinates
 exchange correlation table for  LEXCH =        8
   RHO(1)=    0.500       N(1)  =     2000
   RHO(2)=  100.500       N(2)  =     4000

 VTST: version 3.2, (02/03/18)

 CHAIN: initializing optimizer
 
 OPT: Using VASP Conjugate-Gradient optimizer
 CHAIN: Read ICHAIN            0
 
 POSCAR: POSCAR-clean                            
  positions in direct lattice
  velocities in cartesian coordinates
 


--------------------------------------------------------------------------------------------------------


 ion  position               nearest neighbor table
   1  0.999  1.000  0.498-   2 1.42  60 1.43  70 1.44
   2  0.056  0.111  0.498-  13 1.42   1 1.42  15 1.43
   3  0.168  0.002  0.498-   4 1.42  62 1.43  60 1.43
   4  0.224  0.113  0.498-   3 1.42  15 1.42  17 1.43
   5  0.334  0.002  0.498-   6 1.42  62 1.43  64 1.43
   6  0.390  0.113  0.498-   5 1.42  19 1.42  17 1.43
   7  0.501  1.000  0.498-   8 1.42  64 1.43  66 1.44
   8  0.556  0.111  0.498-  21 1.42   7 1.42  19 1.43
   9  0.667  0.997  0.498-  68 1.42  10 1.42  66 1.42
  10  0.722  0.109  0.498-   9 1.42  23 1.42  21 1.44
  11  0.831  0.997  0.498-  68 1.42  12 1.42  70 1.42
  12  0.887  0.109  0.498-  11 1.42  23 1.42  13 1.43
  13  0.999  0.165  0.498-   2 1.42  14 1.42  12 1.43
  14  0.054  0.276  0.498-  13 1.42  25 1.42  27 1.43
  15  0.167  0.168  0.498-  16 1.42   4 1.42   2 1.43
  16  0.223  0.280  0.500-  15 1.42  27 1.42  29 1.45
  17  0.335  0.170  0.499-  18 1.42   4 1.43   6 1.43
  18  0.391  0.281  0.503-  17 1.42  29 1.44  31 1.44
  19  0.501  0.168  0.498-  20 1.42   6 1.42   8 1.43
  20  0.557  0.280  0.500-  33 1.42  19 1.42  31 1.45
  21  0.667  0.165  0.498-   8 1.42  22 1.42  10 1.44
  22  0.722  0.276  0.498-  21 1.42  35 1.42  33 1.43
  23  0.833  0.165  0.498-  24 1.42  12 1.42  10 1.42
  24  0.888  0.276  0.498-  23 1.42  35 1.42  25 1.42
  25  0.999  0.332  0.498-  26 1.42  14 1.42  24 1.42
  26  0.054  0.444  0.499-  39 1.42  37 1.42  25 1.42
  27  0.165  0.333  0.500-  28 1.42  16 1.42  14 1.43
  28  0.219  0.444  0.502-  41 1.41  39 1.42  27 1.42
  29  0.336  0.338  0.503-  30 1.42  18 1.44  16 1.45
  30  0.388  0.449  0.509-  41 1.41  29 1.42  71 2.00
  31  0.503  0.338  0.504-  32 1.42  18 1.44  20 1.45
  32  0.561  0.449  0.510-  43 1.41  31 1.42  71 2.00
  33  0.668  0.333  0.500-  34 1.42  20 1.42  22 1.43
  34  0.725  0.444  0.501-  43 1.41  45 1.42  33 1.42
  35  0.833  0.332  0.498-  36 1.42  22 1.42  24 1.42
  36  0.890  0.444  0.498-  45 1.42  37 1.42  35 1.42
  37  1.000  0.500  0.498-  36 1.42  26 1.42  38 1.42
  38  0.056  0.611  0.498-  47 1.42  49 1.42  37 1.42
  39  0.165  0.500  0.500-  26 1.42  28 1.42  40 1.42
  40  0.220  0.611  0.500-  49 1.42  51 1.42  39 1.42
  41  0.329  0.500  0.505-  30 1.41  28 1.41  42 1.43
  42  0.386  0.612  0.505-  51 1.41  53 1.42  41 1.43
  43  0.671  0.500  0.505-  32 1.41  34 1.41  44 1.43
  44  0.727  0.612  0.505-  57 1.41  55 1.42  43 1.43
  45  0.835  0.500  0.500-  36 1.42  34 1.42  46 1.42
  46  0.891  0.611  0.500-  47 1.42  57 1.42  45 1.42
  47  0.001  0.667  0.498-  46 1.42  38 1.42  48 1.42
  48  0.057  0.779  0.498-  61 1.42  47 1.42  59 1.43
  49  0.166  0.667  0.499-  40 1.42  38 1.42  50 1.42
  50  0.222  0.779  0.498-  61 1.42  49 1.42  63 1.43
  51  0.331  0.667  0.502-  42 1.41  52 1.42  40 1.42
  52  0.388  0.778  0.500-  51 1.42  65 1.42  63 1.42
  53  0.496  0.663  0.510-  42 1.42  54 1.42  71 1.99
  54  0.554  0.774  0.503-  53 1.42  67 1.43  65 1.44
  55  0.668  0.663  0.510-  44 1.42  56 1.42  71 1.99
  56  0.721  0.774  0.503-  55 1.42  67 1.43  69 1.44
  57  0.836  0.667  0.501-  44 1.41  58 1.42  46 1.42
  58  0.890  0.778  0.500-  57 1.42  69 1.42  59 1.42
  59  0.001  0.835  0.498-  60 1.42  58 1.42  48 1.43
  60  0.056  0.946  0.498-  59 1.42   1 1.43   3 1.43
  61  0.168  0.835  0.498-  62 1.42  48 1.42  50 1.42
  62  0.223  0.946  0.498-  61 1.42   3 1.43   5 1.43
  63  0.333  0.835  0.498-  64 1.42  52 1.42  50 1.43
  64  0.390  0.946  0.498-  63 1.42   7 1.43   5 1.43
  65  0.499  0.831  0.500-  66 1.42  52 1.42  54 1.44
  66  0.556  0.943  0.498-  65 1.42   9 1.42   7 1.44
  67  0.666  0.831  0.503-  68 1.41  54 1.43  56 1.43
  68  0.721  0.941  0.499-  67 1.41   9 1.42  11 1.42
  69  0.833  0.831  0.500-  70 1.42  58 1.42  56 1.44
  70  0.887  0.943  0.498-  69 1.42  11 1.42   1 1.44
  71  0.528  0.556  0.555-  53 1.99  55 1.99  30 2.00  32 2.00
 

IMPORTANT INFORMATION: All symmetrisations will be switched off!
NOSYMM: (Re-)initialisation of all symmetry stuff for point group C_1.

 
 
 KPOINTS: K-Points                                

Automatic generation of k-mesh.
Space group operators:
 irot       det(A)        alpha          n_x          n_y          n_z        tau_x        tau_y        tau_z
    1     1.000000     0.000000     1.000000     0.000000     0.000000     0.000000     0.000000     0.000000
 
 Subroutine IBZKPT returns following result:
 ===========================================
 
 Found      4 irreducible k-points:
 
 Following reciprocal coordinates:
            Coordinates               Weight
  0.000000  0.000000  0.000000      1.000000
  0.500000  0.000000  0.000000      1.000000
 -0.000000  0.500000  0.000000      1.000000
  0.500000  0.500000  0.000000      1.000000
 
 Following cartesian coordinates:
            Coordinates               Weight
  0.000000  0.000000  0.000000      1.000000
  0.033654  0.019601  0.000000      1.000000
 -0.000000  0.039202  0.000000      1.000000
  0.033654  0.058804  0.000000      1.000000
 


--------------------------------------------------------------------------------------------------------




 Dimension of arrays:
   k-points           NKPTS =      4   k-points in BZ     NKDIM =      4   number of bands    NBANDS=    184
   number of dos      NEDOS =    301   number of ions     NIONS =     71
   non local maximal  LDIM  =      6   non local SUM 2l+1 LMDIM =     18
   total plane-waves  NPLWV = ******
   max r-space proj   IRMAX =   6646   max aug-charges    IRDMAX=  15619
   dimension x,y,z NGX =   108 NGY =  108 NGZ =  108
   dimension x,y,z NGXF=   216 NGYF=  216 NGZF=  216
   support grid    NGXF=   216 NGYF=  216 NGZF=  216
   ions per type =              67   1   2   1
   NGX,Y,Z   is equivalent  to a cutoff of  12.09, 12.16, 11.97 a.u.
   NGXF,Y,Z  is equivalent  to a cutoff of  24.17, 24.33, 23.94 a.u.

 SYSTEM =  unknown system                          
 POSCAR =  POSCAR-clean                            

 Startparameter for this run:
   NWRITE =      2    write-flag & timer
   PREC   = accura    normal or accurate (medium, high low for compatibility)
   ISTART =      0    job   : 0-new  1-cont  2-samecut
   ICHARG =      2    charge: 1-file 2-atom 10-const
   ISPIN  =      2    spin polarized calculation?
   LNONCOLLINEAR =      F non collinear calculations
   LSORBIT =      F    spin-orbit coupling
   INIWAV =      1    electr: 0-lowe 1-rand  2-diag
   LASPH  =      F    aspherical Exc in radial PAW
   METAGGA=      F    non-selfconsistent MetaGGA calc.

 Electronic Relaxation 1
   ENCUT  =  440.0 eV  32.34 Ry    5.69 a.u.  25.41 25.24 25.66*2*pi/ulx,y,z
   ENINI  =  440.0     initial cutoff
   ENAUG  =  644.9 eV  augmentation charge cutoff
   NELM   =     50;   NELMIN=  2; NELMDL= -5     # of ELM steps 
   EDIFF  = 0.1E-04   stopping-criterion for ELM
   LREAL  =      T    real-space projection
   NLSPLINE    = F    spline interpolate recip. space projectors
   LCOMPAT=      F    compatible to vasp.4.4
   GGA_COMPAT  = T    GGA compatible to vasp.4.4-vasp.4.6
   LMAXPAW     = -100 max onsite density
   LMAXMIX     =    2 max onsite mixed and CHGCAR
   VOSKOWN=      0    Vosko Wilk Nusair interpolation
   ROPT   =   -0.00025  -0.00025  -0.00025  -0.00025
 Ionic relaxation
   EDIFFG = -.5E-01   stopping-criterion for IOM
   NSW    =    400    number of steps for IOM
   NBLOCK =      1;   KBLOCK =    400    inner block; outer block 
   IBRION =      2    ionic relax: 0-MD 1-quasi-New 2-CG
   NFREE  =      1    steps in history (QN), initial steepest desc. (CG)
   ISIF   =      2    stress and relaxation
   IWAVPR =     11    prediction:  0-non 1-charg 2-wave 3-comb
   ISYM   =      0    0-nonsym 1-usesym 2-fastsym
   LCORR  =      T    Harris-Foulkes like correction to forces

   POTIM  = 0.3000    time-step for ionic-motion
   TEIN   =    0.0    initial temperature
   TEBEG  =    0.0;   TEEND  =   0.0 temperature during run
   SMASS  =  -3.00    Nose mass-parameter (am)
   estimated Nose-frequenzy (Omega)   =  0.10E-29 period in steps =****** mass=  -0.504E-26a.u.
   SCALEE = 1.0000    scale energy and forces
   NPACO  =    256;   APACO  = 16.0  distance and # of slots for P.C.
   PSTRESS=    0.0 pullay stress

  Mass of Ions in am
   POMASS =  12.01 14.00 12.01 52.00
  Ionic Valenz
   ZVAL   =   4.00  5.00  4.00 12.00
  Atomic Wigner-Seitz radii
   RWIGS  =  -1.00 -1.00 -1.00 -1.00
  virtual crystal weights 
   VCA    =   1.00  1.00  1.00  1.00
   NELECT =     293.0000    total number of electrons
   NUPDOWN=      -1.0000    fix difference up-down

 DOS related values:
   EMIN   =  10.00;   EMAX   =-10.00  energy-range for DOS
   EFERMI =   0.00
   ISMEAR =     0;   SIGMA  =   0.10  broadening in eV -4-tet -1-fermi 0-gaus

 Electronic relaxation 2 (details)
   IALGO  =     68    algorithm
   LDIAG  =      T    sub-space diagonalisation (order eigenvalues)
   LSUBROT=      F    optimize rotation matrix (better conditioning)
   TURBO    =      0    0=normal 1=particle mesh
   IRESTART =      0    0=no restart 2=restart with 2 vectors
   NREBOOT  =      0    no. of reboots
   NMIN     =      0    reboot dimension
   EREF     =   0.00    reference energy to select bands
   IMIX   =      4    mixing-type and parameters
     AMIX     =   0.40;   BMIX     =  1.00
     AMIX_MAG =   1.60;   BMIX_MAG =  1.00
     AMIN     =   0.10
     WC   =   100.;   INIMIX=   1;  MIXPRE=   1;  MAXMIX= -45

 Intra band minimization:
   WEIMIN = 0.0010     energy-eigenvalue tresh-hold
   EBREAK =  0.14E-07  absolut break condition
   DEPER  =   0.30     relativ break condition  

   TIME   =   0.40     timestep for ELM

  volume/ion in A,a.u.               =      40.03       270.16
  Fermi-wavevector in a.u.,A,eV,Ry     =   0.767606  1.450565  8.016816  0.589219
  Thomas-Fermi vector in A             =   1.868199
 
 Write flags
   LWAVE        =      F    write WAVECAR
   LDOWNSAMPLE  =      F    k-point downsampling of WAVECAR
   LCHARG       =      F    write CHGCAR
   LVTOT        =      F    write LOCPOT, total local potential
   LVHAR        =      F    write LOCPOT, Hartree potential only
   LELF         =      F    write electronic localiz. function (ELF)
   LORBIT       =      0    0 simple, 1 ext, 2 COOP (PROOUT), +10 PAW based schemes


 Dipole corrections
   LMONO  =      F    monopole corrections only (constant potential shift)
   LDIPOL =      F    correct potential (dipole corrections)
   IDIPOL =      0    1-x, 2-y, 3-z, 4-all directions 
   EPSILON=  1.0000000 bulk dielectric constant

 Exchange correlation treatment:
   GGA     =    --    GGA type
   LEXCH   =     8    internal setting for exchange type
   VOSKOWN=      0    Vosko Wilk Nusair interpolation
   LHFCALC =     F    Hartree Fock is set to
   LHFONE  =     F    Hartree Fock one center treatment
   AEXX    =    0.0000 exact exchange contribution

 Linear response parameters
   LEPSILON=     F    determine dielectric tensor
   LRPA    =     F    only Hartree local field effects (RPA)
   LNABLA  =     F    use nabla operator in PAW spheres
   LVEL    =     F    velocity operator in full k-point grid
   LINTERFAST=   F  fast interpolation
   KINTER  =     0    interpolate to denser k-point grid
   CSHIFT  =0.1000    complex shift for real part using Kramers Kronig
   OMEGAMAX=  -1.0    maximum frequency
   DEG_THRESHOLD= 0.2000000E-02 threshold for treating states as degnerate
   RTIME   =   -0.100 relaxation time in fs
  (WPLASMAI=    0.000 imaginary part of plasma frequency in eV, 0.658/RTIME)
   DFIELD  = 0.0000000 0.0000000 0.0000000 field for delta impulse in time
 
 Orbital magnetization related:
   ORBITALMAG=     F  switch on orbital magnetization
   LCHIMAG   =     F  perturbation theory with respect to B field
   DQ        =  0.001000  dq finite difference perturbation B field
   LLRAUG    =     F  two centre corrections for induced B field



--------------------------------------------------------------------------------------------------------


 conjugate gradient relaxation of ions
 charge density and potential will be updated during run
 spin polarized calculation
 RMM-DIIS sequential band-by-band and
  variant of blocked Davidson during initial phase
 perform sub-space diagonalisation
    before iterative eigenvector-optimisation
 modified Broyden-mixing scheme, WC =      100.0
 initial mixing is a Kerker type mixing with AMIX =  0.4000 and BMIX =      1.0000
 Hartree-type preconditioning will be used
 using additional bands           37
 real space projection scheme for non local part
 use partial core corrections
 calculate Harris-corrections to forces 
   (improved forces if not selfconsistent)
 use gradient corrections 
 use of overlap-Matrix (Vanderbilt PP)
 Gauss-broadening in eV      SIGMA  =   0.10


--------------------------------------------------------------------------------------------------------


  energy-cutoff  :      440.00
  volume of cell :     2842.34
      direct lattice vectors                 reciprocal lattice vectors
    14.856884906  0.000020497  0.000000000     0.067308807  0.039202376  0.000000000
    -7.428442453 12.754318856  0.000000000    -0.000000108  0.078404751  0.000000000
     0.000000000  0.000000000 15.000000000     0.000000000  0.000000000  0.066666667

  length of vectors
    14.856884906 14.759891828 15.000000000     0.077892886  0.078404751  0.066666667


 
 k-points in units of 2pi/SCALE and weight: K-Points                                
   0.00000000  0.00000000  0.00000000       0.250
   0.03365440  0.01960119  0.00000000       0.250
  -0.00000005  0.03920238  0.00000000       0.250
   0.03365435  0.05880356  0.00000000       0.250
 
 k-points in reciprocal lattice and weights: K-Points                                
   0.00000000  0.00000000  0.00000000       0.250
   0.50000000  0.00000000  0.00000000       0.250
  -0.00000000  0.50000000  0.00000000       0.250
   0.50000000  0.50000000  0.00000000       0.250
 
 position of ions in fractional coordinates (direct lattice) 
   0.99939919  0.99989381  0.49763796
   0.05553460  0.11126018  0.49772503
   0.16782285  0.00202372  0.49753015
   0.22351942  0.11335580  0.49824693
   0.33444593  0.00200928  0.49772964
   0.39008655  0.11333823  0.49838220
   0.50073176  0.99986225  0.49772389
   0.55596392  0.11122860  0.49765626
   0.66650114  0.99725277  0.49830049
   0.72199073  0.10851618  0.49756846
   0.83102090  0.99726943  0.49842237
   0.88678671  0.10853017  0.49777025
   0.99856220  0.16488374  0.49781748
   0.05405715  0.27630851  0.49849457
   0.16728299  0.16810195  0.49835456
   0.22299380  0.27967828  0.50004432
   0.33522664  0.17019034  0.49941107
   0.39087197  0.28147681  0.50252889
   0.50106579  0.16807810  0.49840725
   0.55692933  0.27965917  0.50002619
   0.66655900  0.16486088  0.49751964
   0.72248054  0.27628839  0.49802592
   0.83265968  0.16507184  0.49764429
   0.88827400  0.27631237  0.49776366
   0.99910133  0.33217819  0.49831528
   0.05443398  0.44371924  0.49875135
   0.16524353  0.33274906  0.50003477
   0.21926065  0.44395893  0.50180332
   0.33551847  0.33799402  0.50335902
   0.38790725  0.44875988  0.50932522
   0.50274596  0.33799850  0.50351907
   0.56112891  0.44876877  0.50963628
   0.66774115  0.33273457  0.49967284
   0.72492243  0.44395175  0.50131078
   0.83330406  0.33216858  0.49790148
   0.88950209  0.44371543  0.49823099
   0.99997735  0.49973934  0.49827436
   0.05578026  0.61134852  0.49828217
   0.16471833  0.49984909  0.50032925
   0.22049074  0.61126466  0.50030604
   0.32932516  0.49966317  0.50521850
   0.38579536  0.61217002  0.50515657
   0.67059470  0.49966164  0.50518817
   0.72663197  0.61217047  0.50512908
   0.83534918  0.49984799  0.49956904
   0.89099024  0.61126419  0.49954676
   0.00130970  0.66741191  0.49824251
   0.05672755  0.77897770  0.49790568
   0.16631347  0.66740627  0.49876201
   0.22247158  0.77896716  0.49831489
   0.33107734  0.66715255  0.50169082
   0.38823886  0.77836028  0.49999093
   0.49579835  0.66311486  0.50962092
   0.55375895  0.77422132  0.50332295
   0.66758849  0.66310958  0.50994524
   0.72073388  0.77421908  0.50348983
   0.83630397  0.66715817  0.50119990
   0.89037247  0.77837481  0.49962373
   0.00134231  0.83459251  0.49802767
   0.05625627  0.94569751  0.49752077
   0.16755661  0.83488284  0.49774622
   0.22328904  0.94633389  0.49761018
   0.33347641  0.83457199  0.49848852
   0.38967724  0.94567398  0.49781667
   0.49885964  0.83141174  0.49996826
   0.55558628  0.94264291  0.49835465
   0.66550260  0.83073162  0.50253580
   0.72071759  0.94117163  0.49947059
   0.83281754  0.83143144  0.49993291
   0.88732681  0.94266750  0.49838468
   0.52788732  0.55580986  0.55510184
 
 position of ions in cartesian coordinates  (Angst):
   7.42030505 12.75298495  7.46456941
  -0.00141874  1.41904900  7.46587549
   2.47829169  0.02581456  7.46295220
   2.47874524  1.44578061  7.47370402
   4.95389888  0.02563390  7.46594453
   4.95354453  1.44555991  7.47573304
   0.01189495 12.75257223  7.46585840
   7.43363668  1.41865639  7.46484394
   2.49409591 12.71929347  7.47450732
   9.92042698  1.38406472  7.46352683
   4.93822331 12.71950936  7.47633558
  12.36867799  1.38424661  7.46655374
  13.61069433  2.10300028  7.46726219
  -1.24942102  3.52412788  7.47741850
   1.23656843  2.14402928  7.47531841
   1.23541922  3.56711055  7.50066477
   3.71617452  2.17066869  7.49116612
   3.71620555  3.59005298  7.53793336
   6.19571834  2.14373194  7.47610874
   6.19680288  3.56687361  7.50039289
   8.67833081  2.10270187  7.46279459
   8.68141777  3.52388505  7.47038885
  11.14450240  2.10539599  7.46466438
  11.14441404  3.52419422  7.46645486
  12.37596692  4.23672706  7.47472925
  -2.48742351  5.65933777  7.48127020
  -0.01680321  4.24399104  7.50052150
  -0.04039313  5.66239820  7.52704985
   2.47399013  4.31089036  7.55038530
   2.42950634  5.72363461  7.63987833
   4.95843647  4.31095095  7.55278605
   5.00297460  5.72375154  7.64454413
   7.44885379  4.24381650  7.49509257
   7.47221910  5.66231700  7.51966169
   9.91280732  4.23660109  7.46852221
   9.91911565  5.65930637  7.47346480
  11.14426346  6.37385533  7.47411542
  -3.71264637  7.79733506  7.47423262
  -1.26589896  6.37523807  7.50493869
  -1.26493879  7.79626885  7.50459058
   1.18102698  6.37287010  7.57827748
   1.18424745  7.80781950  7.57734857
   6.25124054  6.37285765  7.57782258
   6.24801445  7.80783223  7.57693623
   8.69759460  6.37523776  7.49353565
   8.69659859  7.79627663  7.49320136
  -4.93837285  8.51238433  7.47363771
  -4.94379635  9.93533117  7.46858516
  -2.48688900  8.51231581  7.48143012
  -2.48127806  9.93520011  7.47472329
  -0.03712645  8.50908316  7.52536231
  -0.01398458  9.92746318  7.49986395
   2.44010845  8.45758848  7.64431376
   2.47587445  9.87467691  7.54984432
   4.99241400  8.45752475  7.64917860
   4.95661846  9.87465178  7.55234747
   7.46892576  8.50916512  7.51799844
   7.44604877  9.92765882  7.49435596
  -6.17977989 10.64465903  7.47041507
  -6.18926652 12.06172868  7.46281149
  -3.71250988 10.64836532  7.46619333
  -3.71240724 12.06984875  7.46415273
  -1.24514931 10.64440407  7.47732783
  -1.23549482 12.06143546  7.46725000
   1.23540594 10.60410064  7.49952397
   1.25191281 12.02277968  7.47531969
   3.71625360 10.59542955  7.53803698
   3.71617907 12.00401778  7.49205886
   6.19683380 10.60435876  7.49899367
   6.18036104 12.02310010  7.47577021
   3.71395967  7.08898698  8.32652755
 


--------------------------------------------------------------------------------------------------------


 k-point  1 :   0.0000 0.0000 0.0000  plane waves:   59573
 k-point  2 :   0.5000 0.0000 0.0000  plane waves:   59550
 k-point  3 :  -0.0000 0.5000 0.0000  plane waves:   59626
 k-point  4 :   0.5000 0.5000 0.0000  plane waves:   59550

 maximum and minimum number of plane-waves per node :      4995     4940

 maximum number of plane-waves:     59626
 maximum index in each direction: 
   IXMAX=   25   IYMAX=   25   IZMAX=   25
   IXMIN=  -25   IYMIN=  -25   IZMIN=  -25


 real space projection operators:
  total allocation   :      18897.34 KBytes
  max/ min on nodes  :       1624.47       1539.98


 parallel 3D FFT for wavefunctions:
    minimum data exchange during FFTs selected (reduces bandwidth)
 parallel 3D FFT for charge:
    minimum data exchange during FFTs selected (reduces bandwidth)


 total amount of memory used by VASP MPI-rank0   111577. kBytes
=======================================================================

   base      :      30000. kBytes
   nonlr-proj:       9915. kBytes
   fftplans  :      10852. kBytes
   grid      :      30996. kBytes
   one-center:        186. kBytes
   wavefun   :      29628. kBytes
 
     INWAV:  cpu time    0.0000: real time    0.0000
 Broyden mixing: mesh for mixing (old mesh)
   NGX = 51   NGY = 51   NGZ = 51
  (NGX  =216   NGY  =216   NGZ  =216)
  gives a total of 132651 points

 initial charge density was supplied:
 charge density of overlapping atoms calculated
 number of electron     293.0000000 magnetization       1.0000000
 keeping initial charge density in first step


--------------------------------------------------------------------------------------------------------


 Maximum index for non-local projection operator          550
 Maximum index for augmentation-charges          326 (set IRDMAX)


--------------------------------------------------------------------------------------------------------


 First call to EWALD:  gamma=   0.125
 Maximum number of real-space cells 3x 3x 3
 Maximum number of reciprocal cells 3x 3x 3

    FEWALD:  cpu time    0.0039: real time    0.0041


--------------------------------------- Iteration      1(   1)  ---------------------------------------


    POTLOK:  cpu time    0.3921: real time    0.4178
    SETDIJ:  cpu time    0.0133: real time    0.0136
     EDDAV:  cpu time   11.6968: real time   11.8216
       DOS:  cpu time    0.0014: real time    0.0014
    --------------------------------------------
      LOOP:  cpu time   12.1035: real time   12.2544

 eigenvalue-minimisations  :  3376
 total energy-change (2. order) : 0.2456430E+04  (-0.1079701E+05)
 number of electron     293.0000000 magnetization       1.0000000
 augmentation part      293.0000000 magnetization       1.0000000

 Free energy of the ion-electron system (eV)
  ---------------------------------------------------
  alpha Z        PSCENC =       157.27430691
  Ewald energy   TEWEN  =     30451.28980632
  -Hartree energ DENC   =    -39613.95604431
  -exchange      EXHF   =         0.00000000
  -V(xc)+E(xc)   XCENC  =       982.92560368
  PAW double counting   =      9000.30529238    -9089.18527416
  entropy T*S    EENTRO =        -0.10520837
  eigenvalues    EBANDS =     -1497.39559761
  atomic energy  EATOM  =     12065.27733323
  Solvation  Ediel_sol  =         0.00000000
  ---------------------------------------------------
  free energy    TOTEN  =      2456.43021808 eV

  energy without entropy =     2456.53542645  energy(sigma->0) =     2456.48282226


--------------------------------------------------------------------------------------------------------




--------------------------------------- Iteration      1(   2)  ---------------------------------------


     EDDAV:  cpu time   14.5811: real time   14.8640
       DOS:  cpu time    0.0010: real time    0.0010
    --------------------------------------------
      LOOP:  cpu time   14.5821: real time   14.8650

 eigenvalue-minimisations  :  4224
 total energy-change (2. order) :-0.2688498E+04  (-0.2570012E+04)
 number of electron     293.0000000 magnetization       1.0000000
 augmentation part      293.0000000 magnetization       1.0000000

 Free energy of the ion-electron system (eV)
  ---------------------------------------------------
  alpha Z        PSCENC =       157.27430691
  Ewald energy   TEWEN  =     30451.28980632
  -Hartree energ DENC   =    -39613.95604431
  -exchange      EXHF   =         0.00000000
  -V(xc)+E(xc)   XCENC  =       982.92560368
  PAW double counting   =      9000.30529238    -9089.18527416
  entropy T*S    EENTRO =        -0.01523103
  eigenvalues    EBANDS =     -4185.98363884
  atomic energy  EATOM  =     12065.27733323
  Solvation  Ediel_sol  =         0.00000000
  ---------------------------------------------------
  free energy    TOTEN  =      -232.06784582 eV

  energy without entropy =     -232.05261478  energy(sigma->0) =     -232.06023030


--------------------------------------------------------------------------------------------------------




--------------------------------------- Iteration      1(   3)  ---------------------------------------


     EDDAV:  cpu time   12.7017: real time   12.8466
       DOS:  cpu time    0.0010: real time    0.0010
    --------------------------------------------
      LOOP:  cpu time   12.7027: real time   12.8476

 eigenvalue-minimisations  :  3552
 total energy-change (2. order) :-0.4551040E+03  (-0.4523480E+03)
 number of electron     293.0000000 magnetization       1.0000000
 augmentation part      293.0000000 magnetization       1.0000000

 Free energy of the ion-electron system (eV)
  ---------------------------------------------------
  alpha Z        PSCENC =       157.27430691
  Ewald energy   TEWEN  =     30451.28980632
  -Hartree energ DENC   =    -39613.95604431
  -exchange      EXHF   =         0.00000000
  -V(xc)+E(xc)   XCENC  =       982.92560368
  PAW double counting   =      9000.30529238    -9089.18527416
  entropy T*S    EENTRO =        -0.02136127
  eigenvalues    EBANDS =     -4641.08148415
  atomic energy  EATOM  =     12065.27733323
  Solvation  Ediel_sol  =         0.00000000
  ---------------------------------------------------
  free energy    TOTEN  =      -687.17182136 eV

  energy without entropy =     -687.15046010  energy(sigma->0) =     -687.16114073


--------------------------------------------------------------------------------------------------------




--------------------------------------- Iteration      1(   4)  ---------------------------------------


     EDDAV:  cpu time   12.6668: real time   12.9068
       DOS:  cpu time    0.0009: real time    0.0009
    --------------------------------------------
      LOOP:  cpu time   12.6676: real time   12.9077

 eigenvalue-minimisations  :  3560
 total energy-change (2. order) :-0.1663838E+02  (-0.1650021E+02)
 number of electron     293.0000000 magnetization       1.0000000
 augmentation part      293.0000000 magnetization       1.0000000

 Free energy of the ion-electron system (eV)
  ---------------------------------------------------
  alpha Z        PSCENC =       157.27430691
  Ewald energy   TEWEN  =     30451.28980632
  -Hartree energ DENC   =    -39613.95604431
  -exchange      EXHF   =         0.00000000
  -V(xc)+E(xc)   XCENC  =       982.92560368
  PAW double counting   =      9000.30529238    -9089.18527416
  entropy T*S    EENTRO =        -0.02538543
  eigenvalues    EBANDS =     -4657.71583757
  atomic energy  EATOM  =     12065.27733323
  Solvation  Ediel_sol  =         0.00000000
  ---------------------------------------------------
  free energy    TOTEN  =      -703.81019894 eV

  energy without entropy =     -703.78481351  energy(sigma->0) =     -703.79750622


--------------------------------------------------------------------------------------------------------




--------------------------------------- Iteration      1(   5)  ---------------------------------------


     EDDAV:  cpu time   14.2868: real time   14.4993
       DOS:  cpu time    0.0010: real time    0.0010
    CHARGE:  cpu time    0.4801: real time    0.4895
    MIXING:  cpu time    0.0067: real time    0.0089
    --------------------------------------------
      LOOP:  cpu time   14.7747: real time   14.9986

 eigenvalue-minimisations  :  4080
 total energy-change (2. order) :-0.5409287E+00  (-0.5391180E+00)
 number of electron     292.9999990 magnetization       0.7730436
 augmentation part       11.6683606 magnetization       0.7667465

 Broyden mixing:
  rms(total) = 0.46824E+01    rms(broyden)= 0.46819E+01
  rms(prec ) = 0.54354E+01
  weight for this iteration     100.00

 Free energy of the ion-electron system (eV)
  ---------------------------------------------------
  alpha Z        PSCENC =       157.27430691
  Ewald energy   TEWEN  =     30451.28980632
  -Hartree energ DENC   =    -39613.95604431
  -exchange      EXHF   =         0.00000000
  -V(xc)+E(xc)   XCENC  =       982.92560368
  PAW double counting   =      9000.30529238    -9089.18527416
  entropy T*S    EENTRO =        -0.02606058
  eigenvalues    EBANDS =     -4658.25609112
  atomic energy  EATOM  =     12065.27733323
  Solvation  Ediel_sol  =         0.00000000
  ---------------------------------------------------
  free energy    TOTEN  =      -704.35112764 eV

  energy without entropy =     -704.32506706  energy(sigma->0) =     -704.33809735


--------------------------------------------------------------------------------------------------------




--------------------------------------- Iteration      1(   6)  ---------------------------------------


    POTLOK:  cpu time    0.3891: real time    0.3972
    SETDIJ:  cpu time    0.0389: real time    0.0411
    EDDIAG:  cpu time    2.1982: real time    2.2380
  RMM-DIIS:  cpu time   11.3978: real time   11.4965
    ORTHCH:  cpu time    0.1618: real time    0.1625
       DOS:  cpu time    0.0009: real time    0.0010
    CHARGE:  cpu time    0.4663: real time    0.4776
    MIXING:  cpu time    0.0070: real time    0.0109
    --------------------------------------------
      LOOP:  cpu time   14.6599: real time   14.8246

 eigenvalue-minimisations  :  4045
 total energy-change (2. order) :-0.2610167E+02  (-0.5185231E+02)
 number of electron     292.9999993 magnetization       0.7119087
 augmentation part       17.2982042 magnetization       1.0385442

 Broyden mixing:
  rms(total) = 0.83030E+01    rms(broyden)= 0.83027E+01
  rms(prec ) = 0.91746E+01
  weight for this iteration     100.00

 eigenvalues of (default mixing * dielectric matrix)
  average eigenvalue GAMMA=   0.2188
  0.2188

 Free energy of the ion-electron system (eV)
  ---------------------------------------------------
  alpha Z        PSCENC =       157.27430691
  Ewald energy   TEWEN  =     30451.28980632
  -Hartree energ DENC   =    -39907.47714718
  -exchange      EXHF   =         0.00000000
  -V(xc)+E(xc)   XCENC  =       996.73122883
  PAW double counting   =     15331.69264661   -15420.35750671
  entropy T*S    EENTRO =        -0.04098569
  eigenvalues    EBANDS =     -4404.84248020
  atomic energy  EATOM  =     12065.27733323
  Solvation  Ediel_sol  =         0.00000000
  ---------------------------------------------------
  free energy    TOTEN  =      -730.45279787 eV

  energy without entropy =     -730.41181218  energy(sigma->0) =     -730.43230503


--------------------------------------------------------------------------------------------------------




--------------------------------------- Iteration      1(   7)  ---------------------------------------


    POTLOK:  cpu time    0.3976: real time    0.4024
    SETDIJ:  cpu time    0.0120: real time    0.0120
    EDDIAG:  cpu time    2.0446: real time    2.0638
  RMM-DIIS:  cpu time    8.8385: real time    8.9093
    ORTHCH:  cpu time    0.5988: real time    0.6007
       DOS:  cpu time    0.0008: real time    0.0008
    CHARGE:  cpu time    0.4669: real time    0.4776
    MIXING:  cpu time    0.0071: real time    0.0090
    --------------------------------------------
      LOOP:  cpu time   12.3663: real time   12.4755

 eigenvalue-minimisations  :  3063
 total energy-change (2. order) : 0.6846730E+02  (-0.5831844E+01)
 number of electron     292.9999991 magnetization       0.6112989
 augmentation part       15.1711874 magnetization       0.6203695

 Broyden mixing:
  rms(total) = 0.31424E+01    rms(broyden)= 0.31420E+01
  rms(prec ) = 0.37543E+01
  weight for this iteration     100.00

 eigenvalues of (default mixing * dielectric matrix)
  average eigenvalue GAMMA=   0.4726
  0.5423  0.4029

 Free energy of the ion-electron system (eV)
  ---------------------------------------------------
  alpha Z        PSCENC =       157.27430691
  Ewald energy   TEWEN  =     30451.28980632
  -Hartree energ DENC   =    -40030.25850279
  -exchange      EXHF   =         0.00000000
  -V(xc)+E(xc)   XCENC  =      1001.36437270
  PAW double counting   =     16970.25434927   -17065.72982749
  entropy T*S    EENTRO =        -0.00005054
  eigenvalues    EBANDS =     -4211.45728231
  atomic energy  EATOM  =     12065.27733323
  Solvation  Ediel_sol  =         0.00000000
  ---------------------------------------------------
  free energy    TOTEN  =      -661.98549470 eV

  energy without entropy =     -661.98544415  energy(sigma->0) =     -661.98546943


--------------------------------------------------------------------------------------------------------




--------------------------------------- Iteration      1(   8)  ---------------------------------------


    POTLOK:  cpu time    0.4681: real time    0.4729
    SETDIJ:  cpu time    0.0125: real time    0.0126
    EDDIAG:  cpu time    2.0617: real time    2.0843
  RMM-DIIS:  cpu time    9.0080: real time    9.0770
    ORTHCH:  cpu time    0.2674: real time    0.2826
       DOS:  cpu time    0.0010: real time    0.0010
    CHARGE:  cpu time    0.4966: real time    0.5069
    MIXING:  cpu time    0.0075: real time    0.0081
    --------------------------------------------
      LOOP:  cpu time   12.3229: real time   12.4453

 eigenvalue-minimisations  :  3127
 total energy-change (2. order) :-0.1418569E+00  (-0.2204235E+01)
 number of electron     292.9999990 magnetization       0.3408059
 augmentation part       11.2363045 magnetization       0.2972242

 Broyden mixing:
  rms(total) = 0.28301E+01    rms(broyden)= 0.28293E+01
  rms(prec ) = 0.34601E+01
  weight for this iteration     100.00

 eigenvalues of (default mixing * dielectric matrix)
  average eigenvalue GAMMA=   0.8557
  1.8859  0.3406  0.3406

 Free energy of the ion-electron system (eV)
  ---------------------------------------------------
  alpha Z        PSCENC =       157.27430691
  Ewald energy   TEWEN  =     30451.28980632
  -Hartree energ DENC   =    -40213.62971571
  -exchange      EXHF   =         0.00000000
  -V(xc)+E(xc)   XCENC  =      1008.18378837
  PAW double counting   =     20036.21635790   -20135.66421663
  entropy T*S    EENTRO =        -0.03863167
  eigenvalues    EBANDS =     -4031.03638032
  atomic energy  EATOM  =     12065.27733323
  Solvation  Ediel_sol  =         0.00000000
  ---------------------------------------------------
  free energy    TOTEN  =      -662.12735160 eV

  energy without entropy =     -662.08871993  energy(sigma->0) =     -662.10803577


--------------------------------------------------------------------------------------------------------




--------------------------------------- Iteration      1(   9)  ---------------------------------------


    POTLOK:  cpu time    0.3444: real time    0.3513
    SETDIJ:  cpu time    0.0118: real time    0.0118
    EDDIAG:  cpu time    2.0574: real time    2.0742
  RMM-DIIS:  cpu time    8.3982: real time    8.4673
    ORTHCH:  cpu time    0.2317: real time    0.2322
       DOS:  cpu time    0.0011: real time    0.0011
    CHARGE:  cpu time    0.4655: real time    0.4733
    MIXING:  cpu time    0.0087: real time    0.0087
    --------------------------------------------
      LOOP:  cpu time   11.5188: real time   11.6198

 eigenvalue-minimisations  :  2971
 total energy-change (2. order) : 0.1487591E+02  (-0.2005684E+01)
 number of electron     292.9999992 magnetization       0.2539022
 augmentation part       12.2113548 magnetization       0.2696747

 Broyden mixing:
  rms(total) = 0.11451E+01    rms(broyden)= 0.11445E+01
  rms(prec ) = 0.12852E+01
  weight for this iteration     100.00

 eigenvalues of (default mixing * dielectric matrix)
  average eigenvalue GAMMA=   0.9132
  2.2262  0.7220  0.3523  0.3523

 Free energy of the ion-electron system (eV)
  ---------------------------------------------------
  alpha Z        PSCENC =       157.27430691
  Ewald energy   TEWEN  =     30451.28980632
  -Hartree energ DENC   =    -40518.99155974
  -exchange      EXHF   =         0.00000000
  -V(xc)+E(xc)   XCENC  =      1020.97564213
  PAW double counting   =     28491.91858054   -28594.05489841
  entropy T*S    EENTRO =        -0.00509387
  eigenvalues    EBANDS =     -3720.93556302
  atomic energy  EATOM  =     12065.27733323
  Solvation  Ediel_sol  =         0.00000000
  ---------------------------------------------------
  free energy    TOTEN  =      -647.25144591 eV

  energy without entropy =     -647.24635204  energy(sigma->0) =     -647.24889898


--------------------------------------------------------------------------------------------------------




--------------------------------------- Iteration      1(  10)  ---------------------------------------


    POTLOK:  cpu time    0.4043: real time    0.4091
    SETDIJ:  cpu time    0.0124: real time    0.0125
    EDDIAG:  cpu time    2.0560: real time    2.0723
  RMM-DIIS:  cpu time    8.5655: real time    8.6376
    ORTHCH:  cpu time    0.4293: real time    0.4308
       DOS:  cpu time    0.0010: real time    0.0010
    CHARGE:  cpu time    0.4627: real time    0.4701
    MIXING:  cpu time    0.0092: real time    0.0093
    --------------------------------------------
      LOOP:  cpu time   11.9405: real time   12.0427

 eigenvalue-minimisations  :  3000
 total energy-change (2. order) :-0.5450716E+00  (-0.2995307E+00)
 number of electron     292.9999991 magnetization       0.1988904
 augmentation part       13.7611364 magnetization       0.2252974

 Broyden mixing:
  rms(total) = 0.14411E+01    rms(broyden)= 0.14391E+01
  rms(prec ) = 0.17880E+01
  weight for this iteration     100.00

 eigenvalues of (default mixing * dielectric matrix)
  average eigenvalue GAMMA=   0.9272
  2.3502  1.1129  0.3491  0.3491  0.4749

 Free energy of the ion-electron system (eV)
  ---------------------------------------------------
  alpha Z        PSCENC =       157.27430691
  Ewald energy   TEWEN  =     30451.28980632
  -Hartree energ DENC   =    -40561.56372072
  -exchange      EXHF   =         0.00000000
  -V(xc)+E(xc)   XCENC  =      1021.87848737
  PAW double counting   =     30006.63601761   -30107.65011883
  entropy T*S    EENTRO =        -0.00306063
  eigenvalues    EBANDS =     -3680.93556875
  atomic energy  EATOM  =     12065.27733323
  Solvation  Ediel_sol  =         0.00000000
  ---------------------------------------------------
  free energy    TOTEN  =      -647.79651747 eV

  energy without entropy =     -647.79345685  energy(sigma->0) =     -647.79498716


--------------------------------------------------------------------------------------------------------




--------------------------------------- Iteration      1(  11)  ---------------------------------------


    POTLOK:  cpu time    0.3997: real time    0.4051
    SETDIJ:  cpu time    0.0124: real time    0.0128
    EDDIAG:  cpu time    2.0470: real time    2.0658
  RMM-DIIS:  cpu time    8.8910: real time    8.9603
    ORTHCH:  cpu time    0.2601: real time    0.2607
       DOS:  cpu time    0.0010: real time    0.0010
    CHARGE:  cpu time    0.4936: real time    0.5025
    MIXING:  cpu time    0.0089: real time    0.0089
    --------------------------------------------
      LOOP:  cpu time   12.1139: real time   12.2172

 eigenvalue-minimisations  :  3113
 total energy-change (2. order) : 0.1108416E+01  (-0.4232789E-01)
 number of electron     292.9999992 magnetization       0.1389632
 augmentation part       12.5111918 magnetization       0.1139234

 Broyden mixing:
  rms(total) = 0.77499E+00    rms(broyden)= 0.77230E+00
  rms(prec ) = 0.83061E+00
  weight for this iteration     100.00

 eigenvalues of (default mixing * dielectric matrix)
  average eigenvalue GAMMA=   0.9681
  2.0602  2.0602  0.6319  0.3466  0.3466  0.3631

 Free energy of the ion-electron system (eV)
  ---------------------------------------------------
  alpha Z        PSCENC =       157.27430691
  Ewald energy   TEWEN  =     30451.28980632
  -Hartree energ DENC   =    -40595.40114680
  -exchange      EXHF   =         0.00000000
  -V(xc)+E(xc)   XCENC  =      1022.30860034
  PAW double counting   =     30699.37137953   -30799.68178616
  entropy T*S    EENTRO =        -0.03127838
  eigenvalues    EBANDS =     -3647.09531608
  atomic energy  EATOM  =     12065.27733323
  Solvation  Ediel_sol  =         0.00000000
  ---------------------------------------------------
  free energy    TOTEN  =      -646.68810108 eV

  energy without entropy =     -646.65682270  energy(sigma->0) =     -646.67246189


--------------------------------------------------------------------------------------------------------




--------------------------------------- Iteration      1(  12)  ---------------------------------------


    POTLOK:  cpu time    0.4036: real time    0.4074
    SETDIJ:  cpu time    0.0127: real time    0.0128
    EDDIAG:  cpu time    2.0219: real time    2.0381
  RMM-DIIS:  cpu time    8.4620: real time    8.5299
    ORTHCH:  cpu time    0.3254: real time    0.3406
       DOS:  cpu time    0.0010: real time    0.0010
    CHARGE:  cpu time    0.4683: real time    0.4752
    MIXING:  cpu time    0.0088: real time    0.0088
    --------------------------------------------
      LOOP:  cpu time   11.7038: real time   11.8139

 eigenvalue-minimisations  :  2944
 total energy-change (2. order) : 0.7901671E-01  (-0.1641330E-01)
 number of electron     292.9999991 magnetization       0.1588437
 augmentation part       13.0177802 magnetization      -0.1911451

 Broyden mixing:
  rms(total) = 0.69629E+00    rms(broyden)= 0.69485E+00
  rms(prec ) = 0.74926E+00
  weight for this iteration     100.00

 eigenvalues of (default mixing * dielectric matrix)
  average eigenvalue GAMMA=   0.8586
  2.1147  2.1147  0.5473  0.3483  0.3483  0.3742  0.1624

 Free energy of the ion-electron system (eV)
  ---------------------------------------------------
  alpha Z        PSCENC =       157.27430691
  Ewald energy   TEWEN  =     30451.28980632
  -Hartree energ DENC   =    -40619.96807122
  -exchange      EXHF   =         0.00000000
  -V(xc)+E(xc)   XCENC  =      1021.86624072
  PAW double counting   =     31115.44141506   -31214.29152996
  entropy T*S    EENTRO =        -0.05289828
  eigenvalues    EBANDS =     -3623.44568716
  atomic energy  EATOM  =     12065.27733323
  Solvation  Ediel_sol  =         0.00000000
  ---------------------------------------------------
  free energy    TOTEN  =      -646.60908436 eV

  energy without entropy =     -646.55618609  energy(sigma->0) =     -646.58263523


--------------------------------------------------------------------------------------------------------




--------------------------------------- Iteration      1(  13)  ---------------------------------------


    POTLOK:  cpu time    0.4257: real time    0.4340
    SETDIJ:  cpu time    0.0128: real time    0.0129
    EDDIAG:  cpu time    2.0450: real time    2.0618
  RMM-DIIS:  cpu time    8.6706: real time    8.7328
    ORTHCH:  cpu time    0.3828: real time    0.3835
       DOS:  cpu time    0.0010: real time    0.0010
    CHARGE:  cpu time    0.4899: real time    0.4982
    MIXING:  cpu time    0.0092: real time    0.0093
    --------------------------------------------
      LOOP:  cpu time   12.0371: real time   12.1335

 eigenvalue-minimisations  :  3000
 total energy-change (2. order) :-0.8328391E-01  (-0.2921276E-02)
 number of electron     292.9999991 magnetization       0.0380400
 augmentation part       12.9885577 magnetization      -0.4056491

 Broyden mixing:
  rms(total) = 0.72608E+00    rms(broyden)= 0.72587E+00
  rms(prec ) = 0.76527E+00
  weight for this iteration     100.00

 eigenvalues of (default mixing * dielectric matrix)
  average eigenvalue GAMMA=   0.8947
  2.2166  2.2166  0.4399  0.7297  0.3474  0.3474  0.5459  0.3139

 Free energy of the ion-electron system (eV)
  ---------------------------------------------------
  alpha Z        PSCENC =       157.27430691
  Ewald energy   TEWEN  =     30451.28980632
  -Hartree energ DENC   =    -40622.60697297
  -exchange      EXHF   =         0.00000000
  -V(xc)+E(xc)   XCENC  =      1021.89707204
  PAW double counting   =     31122.66098313   -31221.42095371
  entropy T*S    EENTRO =        -0.03089845
  eigenvalues    EBANDS =     -3621.03304478
  atomic energy  EATOM  =     12065.27733323
  Solvation  Ediel_sol  =         0.00000000
  ---------------------------------------------------
  free energy    TOTEN  =      -646.69236827 eV

  energy without entropy =     -646.66146982  energy(sigma->0) =     -646.67691905


--------------------------------------------------------------------------------------------------------




--------------------------------------- Iteration      1(  14)  ---------------------------------------


    POTLOK:  cpu time    0.3860: real time    0.3906
    SETDIJ:  cpu time    0.0127: real time    0.0128
    EDDIAG:  cpu time    2.0541: real time    2.0688
  RMM-DIIS:  cpu time    8.4041: real time    8.4751
    ORTHCH:  cpu time    0.1711: real time    0.1724
       DOS:  cpu time    0.0010: real time    0.0010
    CHARGE:  cpu time    0.4636: real time    0.4718
    MIXING:  cpu time    0.0078: real time    0.0079
    --------------------------------------------
      LOOP:  cpu time   11.5004: real time   11.6003

 eigenvalue-minimisations  :  2962
 total energy-change (2. order) : 0.2951840E+00  (-0.4352086E-02)
 number of electron     292.9999991 magnetization      -0.0588275
 augmentation part       12.9407022 magnetization      -0.2087894

 Broyden mixing:
  rms(total) = 0.51782E+00    rms(broyden)= 0.51702E+00
  rms(prec ) = 0.55223E+00
  weight for this iteration     100.00

 eigenvalues of (default mixing * dielectric matrix)
  average eigenvalue GAMMA=   0.8550
  2.1746  2.1746  0.5601  0.7040  0.7040  0.3465  0.3465  0.3723  0.3124

 Free energy of the ion-electron system (eV)
  ---------------------------------------------------
  alpha Z        PSCENC =       157.27430691
  Ewald energy   TEWEN  =     30451.28980632
  -Hartree energ DENC   =    -40628.05654008
  -exchange      EXHF   =         0.00000000
  -V(xc)+E(xc)   XCENC  =      1021.94971163
  PAW double counting   =     31243.78805998   -31342.37169540
  entropy T*S    EENTRO =        -0.08288966
  eigenvalues    EBANDS =     -3615.46527718
  atomic energy  EATOM  =     12065.27733323
  Solvation  Ediel_sol  =         0.00000000
  ---------------------------------------------------
  free energy    TOTEN  =      -646.39718424 eV

  energy without entropy =     -646.31429458  energy(sigma->0) =     -646.35573941


--------------------------------------------------------------------------------------------------------




--------------------------------------- Iteration      1(  15)  ---------------------------------------


    POTLOK:  cpu time    0.4031: real time    0.4073
    SETDIJ:  cpu time    0.0125: real time    0.0125
    EDDIAG:  cpu time    2.0682: real time    2.0835
  RMM-DIIS:  cpu time    8.3148: real time    8.3752
    ORTHCH:  cpu time    0.2737: real time    0.2751
       DOS:  cpu time    0.0010: real time    0.0010
    CHARGE:  cpu time    0.4644: real time    0.4728
    MIXING:  cpu time    0.0092: real time    0.0092
    --------------------------------------------
      LOOP:  cpu time   11.5467: real time   11.6366

 eigenvalue-minimisations  :  2961
 total energy-change (2. order) :-0.1579426E+00  (-0.2832529E-02)
 number of electron     292.9999991 magnetization       0.0223578
 augmentation part       12.9660346 magnetization       0.4289913

 Broyden mixing:
  rms(total) = 0.68785E+00    rms(broyden)= 0.68515E+00
  rms(prec ) = 0.71912E+00
  weight for this iteration     100.00

 eigenvalues of (default mixing * dielectric matrix)
  average eigenvalue GAMMA=   0.8496
  2.2118  2.2118  0.4853  0.7305  0.7305  0.5569  0.5569  0.3471  0.3471  0.3181

 Free energy of the ion-electron system (eV)
  ---------------------------------------------------
  alpha Z        PSCENC =       157.27430691
  Ewald energy   TEWEN  =     30451.28980632
  -Hartree energ DENC   =    -40640.98347261
  -exchange      EXHF   =         0.00000000
  -V(xc)+E(xc)   XCENC  =      1022.17591092
  PAW double counting   =     31216.45410539   -31315.11999553
  entropy T*S    EENTRO =        -0.03985255
  eigenvalues    EBANDS =     -3602.88326892
  atomic energy  EATOM  =     12065.27733323
  Solvation  Ediel_sol  =         0.00000000
  ---------------------------------------------------
  free energy    TOTEN  =      -646.55512683 eV

  energy without entropy =     -646.51527429  energy(sigma->0) =     -646.53520056


--------------------------------------------------------------------------------------------------------




--------------------------------------- Iteration      1(  16)  ---------------------------------------


    POTLOK:  cpu time    0.4334: real time    0.4391
    SETDIJ:  cpu time    0.0123: real time    0.0126
    EDDIAG:  cpu time    2.1149: real time    2.1369
  RMM-DIIS:  cpu time    8.3756: real time    8.4445
    ORTHCH:  cpu time    0.2240: real time    0.2248
       DOS:  cpu time    0.0010: real time    0.0010
    CHARGE:  cpu time    0.5310: real time    0.5401
    MIXING:  cpu time    0.0103: real time    0.0109
    --------------------------------------------
      LOOP:  cpu time   11.7024: real time   11.8100

 eigenvalue-minimisations  :  2965
 total energy-change (2. order) : 0.7458271E-01  (-0.4582515E-02)
 number of electron     292.9999991 magnetization       0.1043982
 augmentation part       12.8799413 magnetization       0.4924090

 Broyden mixing:
  rms(total) = 0.62198E+00    rms(broyden)= 0.62191E+00
  rms(prec ) = 0.63817E+00
  weight for this iteration     100.00

 eigenvalues of (default mixing * dielectric matrix)
  average eigenvalue GAMMA=   0.8282
  2.2208  2.2208  0.4563  0.8106  0.8106  0.5490  0.5490  0.3468  0.3468  0.4853
  0.3141

 Free energy of the ion-electron system (eV)
  ---------------------------------------------------
  alpha Z        PSCENC =       157.27430691
  Ewald energy   TEWEN  =     30451.28980632
  -Hartree energ DENC   =    -40653.75244198
  -exchange      EXHF   =         0.00000000
  -V(xc)+E(xc)   XCENC  =      1022.33291451
  PAW double counting   =     31174.28272385   -31272.90834916
  entropy T*S    EENTRO =        -0.05336126
  eigenvalues    EBANDS =     -3590.22347657
  atomic energy  EATOM  =     12065.27733323
  Solvation  Ediel_sol  =         0.00000000
  ---------------------------------------------------
  free energy    TOTEN  =      -646.48054413 eV

  energy without entropy =     -646.42718287  energy(sigma->0) =     -646.45386350


--------------------------------------------------------------------------------------------------------




--------------------------------------- Iteration      1(  17)  ---------------------------------------


    POTLOK:  cpu time    0.3984: real time    0.4021
    SETDIJ:  cpu time    0.0122: real time    0.0123
    EDDIAG:  cpu time    2.0412: real time    2.0571
  RMM-DIIS:  cpu time    8.4521: real time    8.5164
    ORTHCH:  cpu time    0.1803: real time    0.1948
       DOS:  cpu time    0.0026: real time    0.0033
    CHARGE:  cpu time    0.4922: real time    0.4994
    MIXING:  cpu time    0.0103: real time    0.0104
    --------------------------------------------
      LOOP:  cpu time   11.5894: real time   11.6958

 eigenvalue-minimisations  :  2980
 total energy-change (2. order) : 0.7667249E-01  (-0.2549156E-02)
 number of electron     292.9999992 magnetization       0.0490807
 augmentation part       12.8054989 magnetization       0.0248069

 Broyden mixing:
  rms(total) = 0.26965E+00    rms(broyden)= 0.26670E+00
  rms(prec ) = 0.27981E+00
  weight for this iteration     100.00

 eigenvalues of (default mixing * dielectric matrix)
  average eigenvalue GAMMA=   0.9261
  2.2593  2.2593  1.8439  0.4485  0.6916  0.6916  0.7765  0.3469  0.3469  0.5668
  0.5668  0.3157

 Free energy of the ion-electron system (eV)
  ---------------------------------------------------
  alpha Z        PSCENC =       157.27430691
  Ewald energy   TEWEN  =     30451.28980632
  -Hartree energ DENC   =    -40668.47786225
  -exchange      EXHF   =         0.00000000
  -V(xc)+E(xc)   XCENC  =      1022.50236137
  PAW double counting   =     31132.18126444   -31230.75887616
  entropy T*S    EENTRO =        -0.08447306
  eigenvalues    EBANDS =     -3575.60773244
  atomic energy  EATOM  =     12065.27733323
  Solvation  Ediel_sol  =         0.00000000
  ---------------------------------------------------
  free energy    TOTEN  =      -646.40387164 eV

  energy without entropy =     -646.31939857  energy(sigma->0) =     -646.36163510


--------------------------------------------------------------------------------------------------------




--------------------------------------- Iteration      1(  18)  ---------------------------------------


    POTLOK:  cpu time    0.4053: real time    0.4099
    SETDIJ:  cpu time    0.0123: real time    0.0124
    EDDIAG:  cpu time    2.0451: real time    2.0615
  RMM-DIIS:  cpu time    8.3376: real time    8.4003
    ORTHCH:  cpu time    0.1860: real time    0.1865
       DOS:  cpu time    0.0010: real time    0.0010
    CHARGE:  cpu time    0.4638: real time    0.4768
    MIXING:  cpu time    0.0100: real time    0.0100
    --------------------------------------------
      LOOP:  cpu time   11.4610: real time   11.5584

 eigenvalue-minimisations  :  2951
 total energy-change (2. order) :-0.7513588E-01  (-0.3270387E-02)
 number of electron     292.9999992 magnetization       0.0373909
 augmentation part       12.7026416 magnetization      -0.0423525

 Broyden mixing:
  rms(total) = 0.19343E+00    rms(broyden)= 0.19291E+00
  rms(prec ) = 0.20427E+00
  weight for this iteration     100.00

 eigenvalues of (default mixing * dielectric matrix)
  average eigenvalue GAMMA=   0.9664
  2.5593  2.5593  1.8428  0.4479  0.6762  0.6762  0.7889  0.7889  0.7104  0.3469
  0.3469  0.5041  0.3153

 Free energy of the ion-electron system (eV)
  ---------------------------------------------------
  alpha Z        PSCENC =       157.27430691
  Ewald energy   TEWEN  =     30451.28980632
  -Hartree energ DENC   =    -40706.37342377
  -exchange      EXHF   =         0.00000000
  -V(xc)+E(xc)   XCENC  =      1022.83789634
  PAW double counting   =     31045.92777467   -31144.32013795
  entropy T*S    EENTRO =        -0.07886347
  eigenvalues    EBANDS =     -3538.31369980
  atomic energy  EATOM  =     12065.27733323
  Solvation  Ediel_sol  =         0.00000000
  ---------------------------------------------------
  free energy    TOTEN  =      -646.47900752 eV

  energy without entropy =     -646.40014405  energy(sigma->0) =     -646.43957578


--------------------------------------------------------------------------------------------------------




--------------------------------------- Iteration      1(  19)  ---------------------------------------


    POTLOK:  cpu time    0.4037: real time    0.4076
    SETDIJ:  cpu time    0.0122: real time    0.0123
    EDDIAG:  cpu time    2.0006: real time    2.0187
  RMM-DIIS:  cpu time    8.3959: real time    8.4599
    ORTHCH:  cpu time    0.1942: real time    0.1955
       DOS:  cpu time    0.0009: real time    0.0009
    CHARGE:  cpu time    0.4681: real time    0.4756
    MIXING:  cpu time    0.0099: real time    0.0099
    --------------------------------------------
      LOOP:  cpu time   11.4856: real time   11.5805

 eigenvalue-minimisations  :  2961
 total energy-change (2. order) : 0.5574558E-02  (-0.8592452E-03)
 number of electron     292.9999992 magnetization       0.0002366
 augmentation part       12.7368072 magnetization      -0.0960739

 Broyden mixing:
  rms(total) = 0.16705E+00    rms(broyden)= 0.16695E+00
  rms(prec ) = 0.17002E+00
  weight for this iteration     100.00

 eigenvalues of (default mixing * dielectric matrix)
  average eigenvalue GAMMA=   0.9460
  2.6058  2.6058  1.8177  0.4478  0.8606  0.8606  0.6683  0.6683  0.7441  0.3469
  0.3469  0.3154  0.4779  0.4779

 Free energy of the ion-electron system (eV)
  ---------------------------------------------------
  alpha Z        PSCENC =       157.27430691
  Ewald energy   TEWEN  =     30451.28980632
  -Hartree energ DENC   =    -40724.62818238
  -exchange      EXHF   =         0.00000000
  -V(xc)+E(xc)   XCENC  =      1022.95364819
  PAW double counting   =     31030.04416144   -31128.27689345
  entropy T*S    EENTRO =        -0.08129067
  eigenvalues    EBANDS =     -3520.32632255
  atomic energy  EATOM  =     12065.27733323
  Solvation  Ediel_sol  =         0.00000000
  ---------------------------------------------------
  free energy    TOTEN  =      -646.47343296 eV

  energy without entropy =     -646.39214229  energy(sigma->0) =     -646.43278762


--------------------------------------------------------------------------------------------------------




--------------------------------------- Iteration      1(  20)  ---------------------------------------


    POTLOK:  cpu time    0.4013: real time    0.4060
    SETDIJ:  cpu time    0.0122: real time    0.0123
    EDDIAG:  cpu time    2.0242: real time    2.0416
  RMM-DIIS:  cpu time    8.4587: real time    8.5262
    ORTHCH:  cpu time    0.2379: real time    0.2391
       DOS:  cpu time    0.0010: real time    0.0010
    CHARGE:  cpu time    0.4684: real time    0.4757
    MIXING:  cpu time    0.0102: real time    0.0103
    --------------------------------------------
      LOOP:  cpu time   11.6140: real time   11.7121

 eigenvalue-minimisations  :  2961
 total energy-change (2. order) : 0.3311584E-03  (-0.7809758E-03)
 number of electron     292.9999991 magnetization      -0.0013512
 augmentation part       12.7613433 magnetization       0.0657739

 Broyden mixing:
  rms(total) = 0.63244E-01    rms(broyden)= 0.61518E-01
  rms(prec ) = 0.66686E-01
  weight for this iteration     100.00

 eigenvalues of (default mixing * dielectric matrix)
  average eigenvalue GAMMA=   0.9387
  2.6175  2.6175  1.7466  0.9561  0.9561  0.6752  0.6752  0.7515  0.3469  0.3469
  0.5397  0.5397  0.3154  0.4478  0.5485

 Free energy of the ion-electron system (eV)
  ---------------------------------------------------
  alpha Z        PSCENC =       157.27430691
  Ewald energy   TEWEN  =     30451.28980632
  -Hartree energ DENC   =    -40741.55098577
  -exchange      EXHF   =         0.00000000
  -V(xc)+E(xc)   XCENC  =      1023.06617095
  PAW double counting   =     30994.89974903   -31093.05149071
  entropy T*S    EENTRO =        -0.08183332
  eigenvalues    EBANDS =     -3503.59615844
[...]
  Hartree 40006.58790 39988.24547-39218.30891     0.02126    -9.70137     0.11746
  E(xc)   -1110.99296 -1110.64078 -1150.11908     0.00003    -0.00462    -0.00183
  Local  -83750.66531-83763.78414 86093.20196    -0.05127    22.73015    -0.15231
  n-local  -289.11298  -286.63377  -270.00905     0.00002     0.05098     0.01578
  augment    66.59457    64.83861    65.47928     0.00147     0.07873     0.01263
  Kinetic  4383.44529  4369.90132  4984.56019     0.00158     0.80697     0.00348
  Fock        0.00000     0.00000     0.00000     0.00000     0.00000     0.00000
  vdW        -1.50122    -1.65260    -0.04072    -0.00003    -0.00018     0.00093
  -------------------------------------------------------------------------------------
  Total      -2.06150    -2.03589    -3.48204     0.00183     0.00564    -0.00255
  in kB      -1.16203    -1.14759    -1.96276     0.00103     0.00318    -0.00144
  external pressure =       -1.42 kB  Pullay stress =        0.00 kB


 VOLUME and BASIS-vectors are now :
 -----------------------------------------------------------------------------
  energy-cutoff  :      440.00
  volume of cell :     2842.34
      direct lattice vectors                 reciprocal lattice vectors
    14.856884906  0.000020497  0.000000000     0.067308807  0.039202376  0.000000000
    -7.428442453 12.754318856  0.000000000    -0.000000108  0.078404751  0.000000000
     0.000000000  0.000000000 15.000000000     0.000000000  0.000000000  0.066666667

  length of vectors
    14.856884906 14.759891828 15.000000000     0.077892886  0.078404751  0.066666667


 FORCES acting on ions
    electron-ion (+dipol)            ewald-force                    non-local-force                 convergence-correction
 -----------------------------------------------------------------------------------------------
   -.158E+01 0.283E+00 0.792E+01   0.208E+01 -.246E-01 -.795E+01   -.491E+00 -.262E+00 0.283E-01   -.819E-05 -.122E-03 -.731E-04
   -.549E+01 -.187E+01 0.765E+01   0.584E+01 0.206E+01 -.767E+01   -.363E+00 -.200E+00 0.282E-01   0.749E-04 0.110E-03 -.786E-04
   -.263E+00 0.104E+01 0.740E+01   0.380E+00 -.880E+00 -.743E+01   -.114E+00 -.148E+00 0.260E-01   -.901E-04 -.904E-04 -.586E-04
   -.249E+01 0.120E+00 0.758E+01   0.262E+01 -.857E-02 -.759E+01   -.137E+00 -.128E+00 0.934E-02   -.328E-04 0.157E-03 -.115E-03
   0.261E+00 0.105E+01 0.663E+01   -.378E+00 -.896E+00 -.666E+01   0.113E+00 -.147E+00 0.205E-01   0.866E-04 -.883E-04 -.540E-04
   0.250E+01 0.117E+00 0.694E+01   -.263E+01 -.473E-02 -.695E+01   0.136E+00 -.128E+00 0.391E-02   0.365E-04 0.162E-03 -.110E-03
   0.159E+01 0.288E+00 0.768E+01   -.208E+01 -.289E-01 -.771E+01   0.492E+00 -.261E+00 0.245E-01   0.274E-05 -.112E-03 -.729E-04
   0.549E+01 -.187E+01 0.782E+01   -.585E+01 0.206E+01 -.785E+01   0.362E+00 -.198E+00 0.303E-01   -.764E-04 0.119E-03 -.778E-04
   0.223E+02 -.142E+02 0.776E+01   -.276E+02 0.173E+02 -.784E+01   0.535E+01 -.302E+01 0.784E-01   0.249E-03 -.315E-03 -.112E-03
   0.765E+01 -.881E+01 0.742E+01   -.798E+01 0.101E+02 -.744E+01   0.312E+00 -.128E+01 0.258E-01   0.115E-03 0.114E-03 -.661E-04
   -.223E+02 -.142E+02 0.715E+01   0.276E+02 0.173E+02 -.721E+01   -.535E+01 -.302E+01 0.659E-01   -.244E-03 -.323E-03 -.109E-03
   -.765E+01 -.883E+01 0.659E+01   0.798E+01 0.101E+02 -.661E+01   -.312E+00 -.128E+01 0.170E-01   -.116E-03 0.112E-03 -.626E-04
   0.570E+00 0.962E+00 0.690E+01   -.361E-03 -.652E+00 -.691E+01   -.570E+00 -.293E+00 0.474E-02   0.741E-04 0.776E-04 -.682E-04
   0.268E-01 0.179E+01 0.642E+01   0.142E+00 -.162E+01 -.644E+01   -.167E+00 -.160E+00 0.149E-01   0.142E-03 -.595E-04 -.986E-04
   0.895E+00 0.434E+01 0.878E+01   -.676E+00 -.412E+01 -.880E+01   -.231E+00 -.240E+00 0.281E-01   -.133E-03 0.162E-03 -.139E-03
   -.281E+01 0.621E+01 0.102E+02   0.336E+01 -.590E+01 -.103E+02   -.560E+00 -.314E+00 0.102E+00   0.522E-04 0.329E-03 -.243E-03
   -.149E-01 0.609E+01 0.725E+01   0.154E-01 -.565E+01 -.728E+01   -.635E-03 -.469E+00 0.272E-01   0.173E-05 0.189E-03 -.181E-03
   -.400E-01 0.752E+01 0.577E+01   0.424E-01 -.685E+01 -.538E+01   -.271E-02 -.688E+00 -.395E+00   0.542E-05 -.315E-03 -.434E-03
   -.905E+00 0.431E+01 0.835E+01   0.687E+00 -.409E+01 -.837E+01   0.229E+00 -.240E+00 0.234E-01   0.135E-03 0.168E-03 -.133E-03
   0.286E+01 0.620E+01 0.985E+01   -.341E+01 -.589E+01 -.995E+01   0.561E+00 -.314E+00 0.980E-01   -.489E-04 0.331E-03 -.235E-03
   -.566E+00 0.957E+00 0.790E+01   -.337E-02 -.648E+00 -.791E+01   0.571E+00 -.292E+00 0.658E-02   -.808E-04 0.858E-04 -.723E-04
   0.817E-02 0.179E+01 0.802E+01   -.178E+00 -.161E+01 -.804E+01   0.169E+00 -.159E+00 0.261E-01   -.147E-03 -.504E-04 -.103E-03
   0.341E-02 -.684E+01 0.597E+01   -.384E-02 0.762E+01 -.597E+01   0.121E-05 -.792E+00 -.802E-02   0.182E-05 0.410E-04 -.490E-04
   -.517E-02 -.114E+01 0.602E+01   0.470E-02 0.163E+01 -.604E+01   0.808E-03 -.479E+00 0.211E-01   -.264E-05 -.152E-03 -.437E-04
   0.688E+00 0.114E+01 0.524E+01   -.544E+00 -.101E+01 -.522E+01   -.140E+00 -.138E+00 -.247E-01   -.349E-04 0.675E-04 -.616E-04
   0.284E+01 0.305E+01 0.569E+01   -.277E+01 -.294E+01 -.573E+01   -.689E-01 -.103E+00 0.314E-01   0.370E-04 0.317E-03 -.800E-04
   0.407E+01 0.891E+01 0.681E+01   -.376E+01 -.885E+01 -.677E+01   -.309E+00 -.505E-01 -.285E-01   0.355E-03 0.262E-03 -.211E-03
   0.105E+02 0.710E+01 0.525E+01   -.102E+02 -.696E+01 -.536E+01   -.243E+00 -.117E+00 0.113E+00   0.303E-03 0.176E-04 -.291E-03
   -.430E+00 0.182E+02 0.124E+02   0.756E+00 -.172E+02 -.126E+02   -.344E+00 -.977E+00 0.216E+00   -.679E-03 -.251E-03 -.546E-03
   -.716E+01 0.355E+02 0.269E+02   0.134E+02 -.320E+02 -.260E+02   -.624E+01 -.353E+01 -.887E+00   -.166E-02 -.125E-02 -.140E-02
   0.365E+00 0.181E+02 0.114E+02   -.689E+00 -.171E+02 -.116E+02   0.341E+00 -.986E+00 0.213E+00   0.685E-03 -.229E-03 -.534E-03
   0.696E+01 0.354E+02 0.245E+02   -.132E+02 -.318E+02 -.236E+02   0.624E+01 -.354E+01 -.935E+00   0.167E-02 -.124E-02 -.138E-02
   -.405E+01 0.884E+01 0.775E+01   0.373E+01 -.878E+01 -.771E+01   0.309E+00 -.520E-01 -.316E-01   -.349E-03 0.265E-03 -.208E-03
   -.104E+02 0.707E+01 0.678E+01   0.101E+02 -.694E+01 -.690E+01   0.252E+00 -.119E+00 0.122E+00   -.299E-03 0.159E-04 -.286E-03
   -.673E+00 0.112E+01 0.668E+01   0.528E+00 -.982E+00 -.666E+01   0.141E+00 -.138E+00 -.209E-01   0.234E-04 0.737E-04 -.685E-04
   -.281E+01 0.307E+01 0.760E+01   0.274E+01 -.296E+01 -.764E+01   0.722E-01 -.103E+00 0.431E-01   -.473E-04 0.310E-03 -.879E-04
   -.106E-01 -.814E+00 0.628E+01   0.989E-02 0.869E+00 -.629E+01   0.148E-02 -.542E-01 0.113E-01   -.144E-05 0.187E-03 -.568E-04
   -.641E-02 -.604E-01 0.622E+01   0.515E-02 0.533E-01 -.623E+01   0.196E-02 0.793E-02 0.119E-01   0.452E-06 -.919E-04 -.558E-04
   0.598E+01 0.545E+00 0.396E+01   -.584E+01 -.556E+00 -.391E+01   -.124E+00 0.897E-02 -.451E-01   0.825E-04 0.150E-03 -.196E-03
   0.623E+01 -.596E+00 0.404E+01   -.618E+01 0.533E+00 -.400E+01   -.362E-01 0.711E-01 -.375E-01   0.126E-03 -.871E-04 -.196E-03
   0.259E+02 0.100E+02 0.140E+02   -.250E+02 -.105E+02 -.146E+02   -.834E+00 0.523E+00 0.593E+00   -.747E-03 -.373E-03 -.703E-03
   0.246E+02 -.771E+01 0.146E+02   -.238E+02 0.805E+01 -.152E+02   -.796E+00 -.324E+00 0.580E+00   -.783E-03 0.554E-03 -.697E-03
   -.257E+02 0.989E+01 0.134E+02   0.248E+02 -.104E+02 -.139E+02   0.849E+00 0.515E+00 0.557E+00   0.719E-03 -.375E-03 -.679E-03
   -.244E+02 -.760E+01 0.140E+02   0.235E+02 0.793E+01 -.145E+02   0.811E+00 -.316E+00 0.544E+00   0.753E-03 0.554E-03 -.673E-03
   -.588E+01 0.529E+00 0.665E+01   0.573E+01 -.539E+00 -.661E+01   0.127E+00 0.912E-02 -.322E-01   -.892E-04 0.143E-03 -.203E-03
   -.614E+01 -.571E+00 0.672E+01   0.608E+01 0.507E+00 -.669E+01   0.406E-01 0.711E-01 -.248E-01   -.131E-03 -.810E-04 -.204E-03
   -.342E+01 -.365E+01 0.747E+01   0.340E+01 0.363E+01 -.752E+01   0.131E-01 0.383E-02 0.438E-01   -.157E-05 -.194E-03 -.849E-04
   -.185E+01 -.309E+01 0.659E+01   0.189E+01 0.309E+01 -.657E+01   -.640E-01 -.909E-02 -.176E-01   0.131E-03 -.125E-03 -.611E-04
   0.344E+01 -.364E+01 0.557E+01   -.342E+01 0.362E+01 -.561E+01   -.857E-02 0.474E-02 0.317E-01   -.103E-04 -.205E-03 -.776E-04
   0.185E+01 -.311E+01 0.517E+01   -.189E+01 0.312E+01 -.515E+01   0.665E-01 -.812E-02 -.209E-01   -.147E-03 -.123E-03 -.546E-04
   0.133E+02 -.550E+01 0.601E+01   -.131E+02 0.523E+01 -.613E+01   -.185E+00 0.279E+00 0.111E+00   0.407E-03 0.263E-04 -.290E-03
   0.746E+01 -.763E+01 0.693E+01   -.767E+01 0.741E+01 -.689E+01   0.209E+00 0.213E+00 -.442E-01   0.571E-03 -.315E-03 -.202E-03
   -.421E+01 -.319E+02 0.254E+02   0.105E+02 0.276E+02 -.244E+02   -.636E+01 0.429E+01 -.104E+01   -.173E-02 0.133E-02 -.141E-02
   0.363E+01 -.816E+01 0.124E+02   -.438E+01 0.608E+01 -.127E+02   0.756E+00 0.205E+01 0.232E+00   -.772E-03 0.364E-03 -.546E-03
   0.400E+01 -.317E+02 0.231E+02   -.103E+02 0.274E+02 -.219E+02   0.635E+01 0.430E+01 -.110E+01   0.174E-02 0.132E-02 -.139E-02
   -.369E+01 -.809E+01 0.113E+02   0.444E+01 0.600E+01 -.116E+02   -.760E+00 0.206E+01 0.223E+00   0.776E-03 0.344E-03 -.533E-03
   -.131E+02 -.547E+01 0.754E+01   0.129E+02 0.520E+01 -.766E+01   0.194E+00 0.281E+00 0.120E+00   -.403E-03 0.268E-04 -.284E-03
   -.743E+01 -.755E+01 0.789E+01   0.765E+01 0.733E+01 -.785E+01   -.209E+00 0.214E+00 -.442E-01   -.555E-03 -.315E-03 -.199E-03
   -.430E+01 -.224E+01 0.791E+01   0.439E+01 0.227E+01 -.794E+01   -.113E+00 -.417E-01 0.329E-01   -.108E-03 -.172E-04 -.923E-04
   -.388E+01 -.514E+01 0.778E+01   0.412E+01 0.515E+01 -.779E+01   -.231E+00 -.358E-01 0.876E-02   -.118E-03 -.392E-04 -.633E-04
   -.104E-01 -.231E+01 0.605E+01   0.100E-01 0.240E+01 -.607E+01   0.114E-02 -.800E-01 0.229E-01   -.626E-05 -.119E-03 -.351E-04
   -.430E-02 -.265E+01 0.600E+01   0.395E-02 0.270E+01 -.598E+01   0.453E-04 -.583E-01 -.172E-01   -.638E-06 -.193E-03 -.404E-04
   0.434E+01 -.224E+01 0.638E+01   -.442E+01 0.227E+01 -.640E+01   0.116E+00 -.405E-01 0.234E-01   0.106E-03 -.719E-05 -.875E-04
   0.389E+01 -.514E+01 0.683E+01   -.412E+01 0.516E+01 -.684E+01   0.231E+00 -.352E-01 0.788E-02   0.117E-03 -.270E-04 -.587E-04
   0.580E+01 -.251E+01 0.107E+02   -.595E+01 0.181E+01 -.108E+02   0.160E+00 0.704E+00 0.722E-01   0.143E-03 -.372E-03 -.238E-03
   0.124E+02 -.700E+01 0.895E+01   -.137E+02 0.643E+01 -.897E+01   0.131E+01 0.604E+00 0.263E-01   -.188E-04 -.411E-03 -.130E-03
   -.325E-01 0.190E+02 0.492E+01   0.349E-01 -.260E+02 -.421E+01   -.349E-02 0.703E+01 -.712E+00   0.113E-04 0.573E-03 -.453E-03
   -.116E-01 -.602E+01 0.864E+01   0.133E-01 0.549E+01 -.873E+01   -.153E-02 0.551E+00 0.995E-01   0.108E-04 -.318E-03 -.229E-03
   -.575E+01 -.250E+01 0.105E+02   0.590E+01 0.180E+01 -.106E+02   -.159E+00 0.703E+00 0.687E-01   -.150E-03 -.366E-03 -.229E-03
   -.124E+02 -.697E+01 0.861E+01   0.137E+02 0.640E+01 -.864E+01   -.131E+01 0.604E+00 0.252E-01   0.176E-04 -.418E-03 -.125E-03
   -.481E+00 0.931E+01 -.633E+03   0.584E+00 -.913E+01 0.615E+03   -.107E+00 -.174E+00 0.182E+02   0.212E-03 0.393E-03 -.364E-02
 -----------------------------------------------------------------------------------------------
   0.638E-01 0.451E+00 -.176E+02   -.258E-13 -.102E-11 0.114E-12   -.618E-01 -.448E+00 0.176E+02   0.153E-03 0.284E-03 -.222E-01
 
 
 POSITION                                       TOTAL-FORCE (eV/Angst)
 -----------------------------------------------------------------------------------
      7.42031     12.75302      7.46457         0.003044     -0.002618     -0.001174
     -0.00142      1.41899      7.46588        -0.010849     -0.014449      0.000392
      2.47828      0.02583      7.46296         0.003731      0.012323     -0.000973
      2.47875      1.44577      7.47371        -0.006033     -0.015026      0.001028
      4.95391      0.02564      7.46595        -0.004588      0.012526     -0.004068
      4.95354      1.44555      7.47574         0.004753     -0.014251     -0.001635
      0.01188     12.75261      7.46586        -0.002978     -0.001198     -0.000956
      7.43364      1.41860      7.46485         0.009271     -0.012166     -0.000095
      2.49406     12.71930      7.47452         0.002491      0.010209      0.003657
      9.92037      1.38404      7.46354        -0.016025     -0.010878      0.002039
      4.93825     12.71952      7.47635        -0.003396      0.009606      0.001616
     12.36874      1.38422      7.46656         0.015250     -0.010625     -0.000710
     13.61066      2.10302      7.46727         0.001200      0.018069     -0.001740
     -1.24941      3.52416      7.47742         0.002092      0.015574     -0.000545
      1.23657      2.14403      7.47533        -0.010040     -0.016254      0.002894
      1.23545      3.56711      7.50069        -0.011567     -0.002471     -0.000867
      3.71617      2.17057      7.49116        -0.000125     -0.024694      0.000263
      3.71621      3.59013      7.53793        -0.000344     -0.008547     -0.006422
      6.19571      2.14373      7.47611         0.009048     -0.015312      0.000003
      6.19677      3.56687      7.50041         0.011232      0.000315     -0.003708
      8.67837      2.10273      7.46280        -0.000006      0.019073      0.000944
      8.68141      3.52392      7.47040        -0.002256      0.016805      0.004708
     11.14450      2.10543      7.46467        -0.000460     -0.013523      0.001019
     11.14441      3.52416      7.46645         0.000311      0.013641     -0.005510
     12.37599      4.23674      7.47473         0.004620     -0.005882     -0.005232
     -2.48743      5.65930      7.48127         0.001535     -0.000349     -0.005333
     -0.01684      4.24401      7.50053         0.009471      0.002286      0.006015
     -0.04040      5.66236      7.52710         0.022382      0.012281      0.004358
      2.47397      4.31079      7.55041        -0.006018      0.002070     -0.002292
      2.43003      5.72383      7.63967        -0.000080     -0.005794      0.006780
      4.95845      4.31085      7.55280         0.005270      0.005143     -0.006374
      5.00246      5.72395      7.64432        -0.000561     -0.002479      0.000202
      7.44889      4.24384      7.49510        -0.009489      0.002197      0.006954
      7.47222      5.66228      7.51972        -0.022353      0.012970      0.006127
      9.91279      4.23662      7.46853        -0.003526     -0.004716     -0.001073
      9.91912      5.65927      7.47347         0.000840     -0.001150      0.001153
     11.14426      6.37385      7.47411         0.000726     -0.000179     -0.007052
     -3.71265      7.79735      7.47423         0.000694      0.002285     -0.004140
     -1.26585      6.37522      7.50495         0.017209     -0.003182      0.001507
     -1.26492      7.79629      7.50459         0.008559      0.009253     -0.002150
      1.18102      6.37309      7.57833         0.022366     -0.025634     -0.000212
      1.18424      7.80759      7.57744         0.034405      0.016857      0.004677
      6.25125      6.37307      7.57786        -0.022138     -0.025419     -0.005436
      6.24803      7.80761      7.57702        -0.034340      0.017226     -0.000504
      8.69754      6.37523      7.49356        -0.016364     -0.002317      0.009543
      8.69658      7.79630      7.49321        -0.006844      0.008556      0.005647
     -4.93839      8.51238      7.47364        -0.005623     -0.012779      0.002103
     -4.94385      9.93533      7.46859        -0.021918     -0.000403     -0.000788
     -2.48687      8.51232      7.48143         0.009115     -0.012049     -0.005260
     -2.48122      9.93520      7.47472         0.023810      0.001231     -0.005331
     -0.03710      8.50914      7.52542         0.024405      0.013101     -0.001368
     -0.01399      9.92746      7.49986        -0.007336     -0.003872     -0.002219
      2.44068      8.45744      7.64412        -0.010216      0.003581      0.019861
      2.47596      9.87474      7.54986         0.018909     -0.027910      0.005365
      4.99185      8.45737      7.64897         0.009665      0.000460      0.013797
      4.95654      9.87471      7.55236        -0.020279     -0.030949      0.001539
      7.46890      8.50922      7.51805        -0.023807      0.012905     -0.000184
      7.44605      9.92766      7.49436         0.005294     -0.004931     -0.001568
     -6.17979     10.64464      7.47042        -0.028289     -0.009912      0.002119
     -6.18923     12.06170      7.46282         0.002471     -0.017284     -0.001328
     -3.71251     10.64840      7.46620         0.000747      0.006394     -0.003691
     -3.71241     12.06982      7.46415        -0.000336     -0.001991     -0.003756
     -1.24514     10.64438      7.47733         0.029206     -0.008539     -0.001752
     -1.23553     12.06141      7.46725        -0.002068     -0.016537     -0.004002
      1.23541     10.60410      7.49953         0.012043      0.003791     -0.005668
      1.25196     12.02283      7.47532        -0.004357      0.032141     -0.002204
      3.71625     10.59537      7.53804        -0.001154      0.039457     -0.003762
      3.71618     12.00409      7.49207         0.000089      0.013690      0.002723
      6.19683     10.60435      7.49900        -0.011602      0.001253     -0.008747
      6.18031     12.02315      7.47577         0.004174      0.030170     -0.005426
      3.71394      7.08895      8.32655        -0.003059      0.008833      0.006223
 -----------------------------------------------------------------------------------
    total drift:                                0.002187      0.003286      0.001579


--------------------------------------------------------------------------------------------------------



  FREE ENERGIE OF THE ION-ELECTRON SYSTEM (eV)
  ---------------------------------------------------
  free  energy   TOTEN  =      -653.49236070 eV

  energy  without entropy=     -653.45123432  energy(sigma->0) =     -653.47179751
 
 d Force = 0.7892079E-04[ 0.288E-04, 0.129E-03]  d Energy = 0.2615329E-04 0.528E-04
 d Force =-0.3532129E-01[-0.356E-01,-0.351E-01]  d Ewald  =-0.3532153E-01 0.244E-06


--------------------------------------------------------------------------------------------------------


    POTLOK:  cpu time    0.3943: real time    0.3966


--------------------------------------------------------------------------------------------------------


 stress matrix after NEB project (eV)
     -2.06150      0.00183     -0.00255
      0.00183     -2.03589      0.00564
     -0.00255      0.00564     -3.48204
  FORCES: max atom, RMS     0.039653    0.019659
  FORCE total and by dimension    0.165651    0.039457
  Stress total and by dimension    4.529829    3.482044


--------------------------------------------------------------------------------------------------------


  
 reached required accuracy - stopping structural energy minimisation
     LOOP+:  cpu time   62.9368: real time   63.4336
    4ORBIT:  cpu time    0.0000: real time    0.0000

 total amount of memory used by VASP MPI-rank0   111577. kBytes
=======================================================================

   base      :      30000. kBytes
   nonlr-proj:       9915. kBytes
   fftplans  :      10852. kBytes
   grid      :      30996. kBytes
   one-center:        186. kBytes
   wavefun   :      29628. kBytes
 
  
  
 General timing and accounting informations for this job:
 ========================================================
  
                  Total CPU time used (sec):     1307.486
                            User time (sec):     1298.288
                          System time (sec):        9.198
                         Elapsed time (sec):     1324.262
  
                   Maximum memory used (kb):      487352.
                   Average memory used (kb):           0.
  
                          Minor page faults:      1635018
                          Major page faults:            0
                 Voluntary context switches:        11042
