 running on   48 total cores
 distrk:  each k-point on   48 cores,    1 groups
 distr:  one band on   12 cores,    4 groups
 using from now: INCAR     
 vasp.5.4.4.18Apr17-6-g9f103f2a35 (build Jan 14 2022 15:04:31) complex          
  
 POSCAR found type information on POSCAR  C  N  C  Cr
 POSCAR found :  4 types and      71 ions
 scaLAPACK will be used
 LDA part: xc-table for Pade appr. of Perdew
 POSCAR found type information on POSCAR  C  N  C  Cr
 POSCAR found :  4 types and      71 ions
 POSCAR, INCAR and KPOINTS ok, starting setup
 FFT: planning ...
 WAVECAR not read
 entering main loop
       N       E                     dE             d eps       ncg     rms          rms(c)
DAV:   1     0.245643021808E+04    0.24564E+04   -0.10797E+05  3376   0.107E+03
DAV:   2    -0.232067845818E+03   -0.26885E+04   -0.25700E+04  4224   0.279E+02
DAV:   3    -0.687171821362E+03   -0.45510E+03   -0.45235E+03  3552   0.121E+02
DAV:   4    -0.703810198936E+03   -0.16638E+02   -0.16500E+02  3560   0.284E+01
DAV:   5    -0.704351127642E+03   -0.54093E+00   -0.53912E+00  4080   0.433E+00    0.468E+01
RMM:   6    -0.730452797873E+03   -0.26102E+02   -0.51852E+02  4045   0.389E+01    0.830E+01
RMM:   7    -0.661985494697E+03    0.68467E+02   -0.58318E+01  3063   0.135E+01    0.314E+01
RMM:   8    -0.662127351600E+03   -0.14186E+00   -0.22042E+01  3127   0.709E+00    0.283E+01
RMM:   9    -0.647251445914E+03    0.14876E+02   -0.20057E+01  2971   0.840E+00    0.115E+01
RMM:  10    -0.647796517474E+03   -0.54507E+00   -0.29953E+00  3000   0.303E+00    0.144E+01
RMM:  11    -0.646688101076E+03    0.11084E+01   -0.42328E-01  3113   0.108E+00    0.775E+00
RMM:  12    -0.646609084364E+03    0.79017E-01   -0.16413E-01  2944   0.953E-01    0.696E+00
RMM:  13    -0.646692368273E+03   -0.83284E-01   -0.29213E-02  3000   0.371E-01    0.726E+00
RMM:  14    -0.646397184237E+03    0.29518E+00   -0.43521E-02  2962   0.496E-01    0.518E+00
RMM:  15    -0.646555126833E+03   -0.15794E+00   -0.28325E-02  2961   0.316E-01    0.688E+00
RMM:  16    -0.646480544128E+03    0.74583E-01   -0.45825E-02  2965   0.716E-01    0.622E+00
RMM:  17    -0.646403871636E+03    0.76672E-01   -0.25492E-02  2980   0.258E-01    0.270E+00
RMM:  18    -0.646479007515E+03   -0.75136E-01   -0.32704E-02  2951   0.475E-01    0.193E+00
RMM:  19    -0.646473432957E+03    0.55746E-02   -0.85925E-03  2961   0.208E-01    0.167E+00
RMM:  20    -0.646473101799E+03    0.33116E-03   -0.78098E-03  2961   0.153E-01    0.632E-01
RMM:  21    -0.646496054064E+03   -0.22952E-01   -0.33052E-03  2991   0.144E-01    0.276E+00
RMM:  22    -0.646518506102E+03   -0.22452E-01   -0.78118E-03  2964   0.200E-01    0.411E+00
RMM:  23    -0.646511304057E+03    0.72020E-02   -0.38174E-03  2952   0.166E-01    0.478E+00
RMM:  24    -0.646440827158E+03    0.70477E-01   -0.80186E-03  2990   0.170E-01    0.377E+00
RMM:  25    -0.646461137452E+03   -0.20310E-01   -0.17953E-03  2932   0.896E-02    0.374E+00
RMM:  26    -0.646462979185E+03   -0.18417E-02   -0.34770E-04  2303   0.266E-02    0.373E+00
RMM:  27    -0.646462528548E+03    0.45064E-03   -0.44757E-04  2391   0.305E-02    0.359E+00
RMM:  28    -0.646455174555E+03    0.73540E-02   -0.87563E-04  2553   0.368E-02    0.310E+00
RMM:  29    -0.646459557713E+03   -0.43832E-02   -0.30384E-04  2480   0.445E-02    0.267E+00
RMM:  30    -0.646477661734E+03   -0.18104E-01   -0.13584E-02  2960   0.173E-01    0.174E+00
RMM:  31    -0.646541552145E+03   -0.63890E-01   -0.10129E-02  2967   0.303E-01    0.354E+00
RMM:  32    -0.646540397766E+03    0.11544E-02   -0.39675E-03  2956   0.211E-01    0.402E+00
RMM:  33    -0.646532582084E+03    0.78157E-02   -0.11622E-03  2974   0.948E-02    0.409E+00
RMM:  34    -0.646528203327E+03    0.43788E-02   -0.80753E-04  2910   0.561E-02    0.450E+00
RMM:  35    -0.646522036587E+03    0.61667E-02   -0.10547E-03  2924   0.627E-02    0.486E+00
RMM:  36    -0.646510157093E+03    0.11879E-01   -0.41044E-04  2713   0.474E-02    0.485E+00
RMM:  37    -0.646482637662E+03    0.27519E-01   -0.26170E-03  2975   0.772E-02    0.379E+00
RMM:  38    -0.646476032624E+03    0.66050E-02   -0.66185E-03  2965   0.138E-01    0.292E+00
RMM:  39    -0.646489575401E+03   -0.13543E-01   -0.91928E-03  2984   0.170E-01    0.178E+00
RMM:  40    -0.646527326696E+03   -0.37751E-01   -0.74877E-03  2972   0.293E-01    0.307E+00
RMM:  41    -0.646511250235E+03    0.16076E-01   -0.42116E-03  2956   0.192E-01    0.315E+00
RMM:  42    -0.646509587375E+03    0.16629E-02   -0.83074E-04  2983   0.566E-02    0.319E+00
RMM:  43    -0.646508104577E+03    0.14828E-02   -0.98618E-05  2178   0.182E-02    0.319E+00
RMM:  44    -0.646506986097E+03    0.11185E-02   -0.38182E-05  1907   0.898E-03    0.320E+00
RMM:  45    -0.646511785459E+03   -0.47994E-02   -0.13029E-04  2128   0.184E-02    0.320E+00
RMM:  46    -0.646520042429E+03   -0.82570E-02   -0.61799E-04  2834   0.358E-02    0.314E+00
RMM:  47    -0.646518837640E+03    0.12048E-02   -0.15471E-04  2053   0.168E-02    0.312E+00
RMM:  48    -0.646518063194E+03    0.77445E-03   -0.24725E-05  1831   0.890E-03    0.311E+00
RMM:  49    -0.646521285712E+03   -0.32225E-02   -0.18838E-04  2225   0.202E-02    0.314E+00
RMM:  50    -0.646528063914E+03   -0.67782E-02   -0.19325E-03  2948   0.629E-02
   1 F= -.65292802E+03 E0= -.65290034E+03  d E =-.652928E+03  mag=     0.0289
 curvature:   0.00 expect dE= 0.000E+00 dE for cont linesearch  0.000E+00
 trial: gam= 0.00000 g(F)=  0.299E-01 g(S)=  0.000E+00 ort = 0.000E+00 (trialstep = 0.100E+01)
 search vector abs. value=  0.299E-01
 bond charge predicted
       N       E                     dE             d eps       ncg     rms          rms(c)
DAV:   1    -0.646507194918E+03    0.14091E-01   -0.23193E+00  3168   0.362E+00    0.317E+00
RMM:   2    -0.646871357617E+03   -0.36416E+00   -0.32989E-01  2969   0.102E+00    0.527E+00
RMM:   3    -0.646690943219E+03    0.18041E+00   -0.12224E-01  3091   0.552E-01    0.273E+00
RMM:   4    -0.646559509016E+03    0.13143E+00   -0.75071E-02  3017   0.335E-01    0.236E+00
RMM:   5    -0.646456330815E+03    0.10318E+00   -0.96029E-02  3061   0.447E-01    0.195E+00
RMM:   6    -0.646474197306E+03   -0.17866E-01   -0.37024E-02  3215   0.218E-01    0.185E+00
RMM:   7    -0.646455716870E+03    0.18480E-01   -0.46801E-03  3237   0.963E-02    0.200E+00
RMM:   8    -0.646623679131E+03   -0.16796E+00   -0.64835E-02  2982   0.366E-01    0.150E+00
RMM:   9    -0.646796431858E+03   -0.17275E+00   -0.11238E-01  3027   0.443E-01    0.579E-01
RMM:  10    -0.646845606457E+03   -0.49175E-01   -0.27068E-02  2991   0.214E-01    0.759E-01
RMM:  11    -0.646964418290E+03   -0.11881E+00   -0.39179E-02  3023   0.236E-01    0.311E-01
RMM:  12    -0.647005438383E+03   -0.41020E-01   -0.18516E-02  3031   0.135E-01    0.310E-01
RMM:  13    -0.647029265546E+03   -0.23827E-01   -0.72425E-03  2960   0.931E-02    0.245E-01
RMM:  14    -0.647062805738E+03   -0.33540E-01   -0.67266E-03  3007   0.796E-02    0.145E-01
RMM:  15    -0.647073729171E+03   -0.10923E-01   -0.21476E-03  2752   0.440E-02    0.473E-02
RMM:  16    -0.647074780237E+03   -0.10511E-02   -0.30975E-04  2315   0.191E-02    0.400E-02
RMM:  17    -0.647075007655E+03   -0.22742E-03   -0.12090E-04  2212   0.136E-02    0.320E-02
RMM:  18    -0.647075538519E+03   -0.53086E-03   -0.81972E-05  2165   0.104E-02    0.198E-02
RMM:  19    -0.647076007232E+03   -0.46871E-03   -0.26876E-05  1928   0.624E-03    0.175E-02
RMM:  20    -0.647076086682E+03   -0.79450E-04   -0.30309E-05  1881   0.568E-03    0.907E-03
RMM:  21    -0.647076317949E+03   -0.23127E-03   -0.34563E-05  1557   0.527E-03    0.939E-03
RMM:  22    -0.647076369111E+03   -0.51162E-04   -0.12818E-05  1289   0.388E-03    0.784E-03
RMM:  23    -0.647076431693E+03   -0.62581E-04   -0.68428E-06  1114   0.294E-03    0.330E-03
RMM:  24    -0.647076455456E+03   -0.23764E-04   -0.28827E-06  1011   0.212E-03    0.246E-03
RMM:  25    -0.647076473627E+03   -0.18170E-04   -0.16346E-06   969   0.199E-03    0.161E-03
RMM:  26    -0.647076478710E+03   -0.50834E-05   -0.71294E-07   805   0.167E-03
   2 F= -.65347712E+03 E0= -.65345701E+03  d E =-.549100E+00  mag=    -1.4675
 trial-energy change:   -0.549100  1 .order    0.000785   -0.029862    0.031432
 step:   0.4872(harm=  0.4872)  dis= 0.00597  next Energy=  -652.935297 (dE=-0.727E-02)
 bond charge predicted
       N       E                     dE             d eps       ncg     rms          rms(c)
DAV:   1    -0.647088363371E+03   -0.11890E-01   -0.59396E-01  3176   0.184E+00    0.261E-01
RMM:   2    -0.647090411931E+03   -0.20486E-02   -0.21241E-02  2957   0.330E-01    0.515E-01
RMM:   3    -0.647087978892E+03    0.24330E-02   -0.35506E-03  3383   0.108E-01    0.138E-01
RMM:   4    -0.647087188514E+03    0.79038E-03   -0.66655E-04  3022   0.449E-02    0.870E-02
RMM:   5    -0.647086985603E+03    0.20291E-03   -0.34843E-04  2914   0.351E-02    0.288E-02
RMM:   6    -0.647087530818E+03   -0.54521E-03   -0.43157E-05  2029   0.118E-02    0.142E-02
RMM:   7    -0.647088107721E+03   -0.57690E-03   -0.27772E-05  1949   0.720E-03    0.651E-03
RMM:   8    -0.647088414647E+03   -0.30693E-03   -0.13864E-05  1753   0.444E-03    0.314E-03
RMM:   9    -0.647088592076E+03   -0.17743E-03   -0.69276E-06  1326   0.298E-03    0.206E-03
RMM:  10    -0.647088670075E+03   -0.77999E-04   -0.36057E-06  1172   0.238E-03    0.115E-03
RMM:  11    -0.647088689633E+03   -0.19558E-04   -0.18186E-06  1086   0.203E-03    0.529E-04
RMM:  12    -0.647088691941E+03   -0.23080E-05   -0.60403E-07   817   0.168E-03
   3 F= -.65348900E+03 E0= -.65346847E+03  d E =-.560978E+00  mag=    -1.5172
 curvature:  -0.24 expect dE=-0.348E-02 dE for cont linesearch -0.181E-02
 ZBRENT: interpolating
 opt :   0.3251  next Energy=  -653.490206 (dE=-0.562E+00)
 bond charge predicted
       N       E                     dE             d eps       ncg     rms          rms(c)
DAV:   1    -0.647090773363E+03   -0.20837E-02   -0.59474E-02  3160   0.584E-01    0.846E-02
RMM:   2    -0.647090942702E+03   -0.16934E-03   -0.22246E-03  2956   0.106E-01    0.171E-01
RMM:   3    -0.647090667185E+03    0.27552E-03   -0.33885E-04  2722   0.346E-02    0.445E-02
RMM:   4    -0.647090560269E+03    0.10692E-03   -0.61673E-05  2126   0.150E-02    0.279E-02
RMM:   5    -0.647090512416E+03    0.47853E-04   -0.38690E-05  1993   0.124E-02    0.917E-03
RMM:   6    -0.647090599768E+03   -0.87352E-04   -0.52414E-06  1755   0.539E-03    0.447E-03
RMM:   7    -0.647090702738E+03   -0.10297E-03   -0.44779E-06  1693   0.346E-03    0.220E-03
RMM:   8    -0.647090748633E+03   -0.45895E-04   -0.16459E-06  1124   0.208E-03    0.124E-03
RMM:   9    -0.647090784077E+03   -0.35444E-04   -0.11049E-06   921   0.177E-03    0.763E-04
RMM:  10    -0.647090800656E+03   -0.16580E-04   -0.70396E-07   787   0.162E-03    0.437E-04
RMM:  11    -0.647090805062E+03   -0.44050E-05   -0.41171E-07   704   0.157E-03
   4 F= -.65349100E+03 E0= -.65347043E+03  d E =-.562978E+00  mag=    -1.5324
 curvature:  -0.16 expect dE=-0.108E-02 dE for cont linesearch -0.502E-03
 ZBRENT: interpolating
 opt :   0.1019  next Energy=  -653.492333 (dE=-0.564E+00)
 bond charge predicted
       N       E                     dE             d eps       ncg     rms          rms(c)
DAV:   1    -0.647092258115E+03   -0.14575E-02   -0.11291E-01  3088   0.804E-01    0.116E-01
RMM:   2    -0.647092594113E+03   -0.33600E-03   -0.41907E-03  2957   0.146E-01    0.234E-01
RMM:   3    -0.647092080488E+03    0.51362E-03   -0.64192E-04  3121   0.474E-02    0.611E-02
RMM:   4    -0.647091900693E+03    0.17980E-03   -0.11594E-04  2569   0.196E-02    0.387E-02
RMM:   5    -0.647091833026E+03    0.67667E-04   -0.70121E-05  2348   0.163E-02    0.127E-02
RMM:   6    -0.647091974122E+03   -0.14110E-03   -0.82414E-06  1782   0.625E-03    0.600E-03
RMM:   7    -0.647092142925E+03   -0.16880E-03   -0.74094E-06  1745   0.414E-03    0.303E-03
RMM:   8    -0.647092216827E+03   -0.73902E-04   -0.30227E-06  1253   0.251E-03    0.155E-03
RMM:   9    -0.647092271470E+03   -0.54643E-04   -0.17693E-06  1061   0.201E-03    0.111E-03
RMM:  10    -0.647092291946E+03   -0.20476E-04   -0.79287E-07   813   0.171E-03    0.606E-04
RMM:  11    -0.647092300188E+03   -0.82426E-05   -0.72699E-07   824   0.169E-03
   5 F= -.65349233E+03 E0= -.65347176E+03  d E =-.564312E+00  mag=    -1.5533
 curvature:  -0.43 expect dE=-0.519E-03 dE for cont linesearch -0.778E-04
 ZBRENT: interpolating
 opt :   0.0463  next Energy=  -653.492413 (dE=-0.564E+00)
 bond charge predicted
       N       E                     dE             d eps       ncg     rms          rms(c)
DAV:   1    -0.647092417908E+03   -0.12596E-03   -0.70060E-03  3224   0.201E-01    0.288E-02
RMM:   2    -0.647092424736E+03   -0.68278E-05   -0.25893E-04  2865   0.364E-02    0.580E-02
RMM:   3    -0.647092391661E+03    0.33076E-04   -0.37988E-05  1930   0.121E-02    0.147E-02
RMM:   4    -0.647092375487E+03    0.16173E-04   -0.75817E-06  1763   0.621E-03    0.931E-03
RMM:   5    -0.647092367382E+03    0.81049E-05   -0.52307E-06  1735   0.491E-03
   6 F= -.65349236E+03 E0= -.65347180E+03  d E =-.564338E+00  mag=    -1.5572
 curvature:  -0.44 expect dE=-0.346E-03 dE for cont linesearch -0.392E-05
 trial: gam= 0.04396 g(F)=  0.794E-03 g(S)=  0.000E+00 ort =-0.518E-03 (trialstep = 0.809E+00)
 search vector abs. value=  0.806E-03
 reached required accuracy - stopping structural energy minimisation
