       N       E                     dE             d eps       ncg     rms          rms(c)
DAV:   1     0.238153853093E+04    0.23815E+04   -0.90637E+04  3928   0.106E+03
DAV:   2     0.199890756367E+03   -0.21816E+04   -0.20901E+04  5076   0.244E+02
DAV:   3    -0.403317718339E+03   -0.60321E+03   -0.59704E+03  4216   0.138E+02
DAV:   4    -0.437796981401E+03   -0.34479E+02   -0.33332E+02  4200   0.433E+01
DAV:   5    -0.439902297486E+03   -0.21053E+01   -0.20773E+01  5256   0.950E+00    0.322E+01
DAV:   6    -0.423464359907E+03    0.16438E+02   -0.83130E+01  4720   0.193E+01    0.180E+01
DAV:   7    -0.422651468882E+03    0.81289E+00   -0.20786E+01  4320   0.136E+01    0.132E+01
DAV:   8    -0.422472840201E+03    0.17863E+00   -0.21530E+01  4160   0.103E+01    0.100E+01
DAV:   9    -0.422630419142E+03   -0.15758E+00   -0.25666E+01  5128   0.798E+00    0.734E+00
DAV:  10    -0.421444193149E+03    0.11862E+01   -0.75259E+00  5104   0.688E+00    0.348E+00
DAV:  11    -0.421303807303E+03    0.14039E+00   -0.36077E+00  4504   0.416E+00    0.271E+00
DAV:  12    -0.421174556965E+03    0.12925E+00   -0.15575E+00  4416   0.241E+00    0.125E+00
DAV:  13    -0.421164291618E+03    0.10265E-01   -0.16873E-01  4376   0.116E+00    0.838E-01
DAV:  14    -0.421159984979E+03    0.43066E-02   -0.50359E-02  4352   0.546E-01    0.548E-01
DAV:  15    -0.421161230008E+03   -0.12450E-02   -0.63643E-02  4568   0.401E-01    0.538E-01
DAV:  16    -0.421160687562E+03    0.54245E-03   -0.95001E-02  4312   0.398E-01    0.445E-01
DAV:  17    -0.421159710384E+03    0.97718E-03   -0.17682E-02  4104   0.200E-01    0.290E-01
DAV:  18    -0.421158363467E+03    0.13469E-02   -0.51887E-03  4160   0.798E-02    0.200E-01
DAV:  19    -0.421158035835E+03    0.32763E-03   -0.38504E-03  3800   0.603E-02    0.117E-01
DAV:  20    -0.421158487205E+03   -0.45137E-03   -0.23522E-03  3304   0.735E-02    0.952E-02
DAV:  21    -0.421158515680E+03   -0.28475E-04   -0.14351E-03  2544   0.551E-02    0.268E-02
DAV:  22    -0.421158557137E+03   -0.41457E-04   -0.11834E-04  2080   0.230E-02
   1 F= -.42427640E+03 E0= -.42427640E+03  d E =0.000000E+00  mag=     0.0000
