 vasp.5.4.4.18Apr17-6-g9f103f2a35 (build Nov  8 2022 18:58:45) complex           
 executed on             LinuxGNU date 2023.04.13  15:54:02
 running on   48 total cores
 distrk:  each k-point on   48 cores,    1 groups
 distr:  one band on NCORES_PER_BAND=  12 cores,    4 groups


--------------------------------------------------------------------------------------------------------


 INCAR:
 POTCAR:    PAW_PBE C 08Apr2002                   
 POTCAR:    PAW_PBE N 08Apr2002                   
 POTCAR:    PAW_PBE Ge_d 03Jul2007                
 POTCAR:    PAW_PBE C 08Apr2002                   
 POTCAR:    PAW_PBE O 08Apr2002                   
 POTCAR:    PAW_PBE C 08Apr2002                   
   SHA256 =  253f7b50bb8d59471dbedb8285d89021f4a42ed1a2c5d38a03a736e69125dd95 C/
   COPYR  = (c) Copyright 08Apr2002 Georg Kresse                                
   COPYR  = This file is part of the software VASP. Any use, copying, and all ot
   COPYR  = If you do not have a valid VASP license, you may not use, copy or di
   VRHFIN =C: s2p2                                                              
   LEXCH  = PE                                                                  
   EATOM  =   147.1560 eV,   10.8157 Ry                                         
                                                                                
   TITEL  = PAW_PBE C 08Apr2002                                                 
   LULTRA =        F    use ultrasoft PP ?                                      
   IUNSCR =        1    unscreen: 0-lin 1-nonlin 2-no                           
   RPACOR =    1.200    partial core radius                                     
   POMASS =   12.011; ZVAL   =    4.000    mass and valenz                      
   RCORE  =    1.500    outmost cutoff radius                                   
   RWIGS  =    1.630; RWIGS  =    0.863    wigner-seitz radius (au A)           
   ENMAX  =  400.000; ENMIN  =  300.000 eV                                      
   ICORE  =        2    local potential                                         
   LCOR   =        T    correct aug charges                                     
   LPAW   =        T    paw PP                                                  
   EAUG   =  644.873                                                            
   DEXC   =    0.000                                                            
   RMAX   =    1.529    core radius for proj-oper                               
   RAUG   =    1.300    factor for augmentation sphere                          
   RDEP   =    1.501    radius for radial grids                                 
   RDEPT  =    1.300    core radius for aug-charge                              
                                                                                
   Atomic configuration                                                         
    4 entries                                                                   
     n  l   j            E        occ.                                          
     1  0  0.50      -273.3789   2.0000                                         
     2  0  0.50       -13.7508   2.0000                                         
     2  1  0.50        -5.2854   2.0000                                         
     3  2  1.50        -5.4423   0.0000                                         
   Description                                                                  
     l       E           TYP  RCUT    TYP  RCUT                                 
     0    -13.7508458     23  1.200                                             
     0     -8.2022199     23  1.200                                             
     1     -5.2854383     23  1.500                                             
     1     34.0145650     23  1.500                                             
     2     -5.4423304      7  1.500                                             
  local pseudopotential read in
  partial core-charges read in
  partial kinetic energy density read in
  atomic valenz-charges read in
  non local Contribution for L=           0  read in
    real space projection operators read in
  non local Contribution for L=           0  read in
    real space projection operators read in
  non local Contribution for L=           1  read in
    real space projection operators read in
  non local Contribution for L=           1  read in
    real space projection operators read in
    PAW grid and wavefunctions read in

   number of l-projection  operators is LMAX  =           4
   number of lm-projection operators is LMMAX =           8

 POTCAR:    PAW_PBE N 08Apr2002                   
   SHA256 =  e053789ff3a61a86a1b75d8a110fcc91f86041011e7b0817c7c99e4e8a6349d7 N/
   COPYR  = (c) Copyright 08Apr2002 Georg Kresse                                
   COPYR  = This file is part of the software VASP. Any use, copying, and all ot
   COPYR  = If you do not have a valid VASP license, you may not use, copy or di
   VRHFIN =N: s2p3                                                              
   LEXCH  = PE                                                                  
   EATOM  =   264.5486 eV,   19.4438 Ry                                         
                                                                                
   TITEL  = PAW_PBE N 08Apr2002                                                 
   LULTRA =        F    use ultrasoft PP ?                                      
   IUNSCR =        1    unscreen: 0-lin 1-nonlin 2-no                           
   RPACOR =    1.200    partial core radius                                     
   POMASS =   14.001; ZVAL   =    5.000    mass and valenz                      
   RCORE  =    1.500    outmost cutoff radius                                   
   RWIGS  =    1.400; RWIGS  =    0.741    wigner-seitz radius (au A)           
   ENMAX  =  400.000; ENMIN  =  300.000 eV                                      
   ICORE  =        2    local potential                                         
   LCOR   =        T    correct aug charges                                     
   LPAW   =        T    paw PP                                                  
   EAUG   =  627.112                                                            
   DEXC   =    0.000                                                            
   RMAX   =    1.529    core radius for proj-oper                               
   RAUG   =    1.300    factor for augmentation sphere                          
   RDEP   =    1.514    radius for radial grids                                 
   RDEPT  =    1.338    core radius for aug-charge                              
                                                                                
   Atomic configuration                                                         
    4 entries                                                                   
     n  l   j            E        occ.                                          
     1  0  0.50      -384.7179   2.0000                                         
     2  0  0.50       -18.5828   2.0000                                         
     2  1  0.50        -7.0898   3.0000                                         
     3  2  1.50        -6.8029   0.0000                                         
   Description                                                                  
     l       E           TYP  RCUT    TYP  RCUT                                 
     0    -18.5828119     23  1.200                                             
     0    -13.5018863     23  1.200                                             
     1     -7.0897853     23  1.500                                             
     1      9.5240782     23  1.500                                             
     2     -6.8029130      7  1.500                                             
  local pseudopotential read in
  partial core-charges read in
  partial kinetic energy density read in
  atomic valenz-charges read in
  non local Contribution for L=           0  read in
    real space projection operators read in
  non local Contribution for L=           0  read in
    real space projection operators read in
  non local Contribution for L=           1  read in
    real space projection operators read in
  non local Contribution for L=           1  read in
    real space projection operators read in
    PAW grid and wavefunctions read in

   number of l-projection  operators is LMAX  =           4
   number of lm-projection operators is LMMAX =           8

 POTCAR:    PAW_PBE Ge_d 03Jul2007                
   SHA256 =  944b26c40d2d7c4f4eb1ff3a2e8dbfdd7129146276cd341854bfd5c0e57780ed Ge
   COPYR  = (c) Copyright 03Jul2007 Georg Kresse                                
   COPYR  = This file is part of the software VASP. Any use, copying, and all ot
   COPYR  = If you do not have a valid VASP license, you may not use, copy or di
   VRHFIN =Ge: 3d4s4p                                                           
   LEXCH  = PE                                                                  
   EATOM  =  2596.2402 eV,  190.8183 Ry                                         
                                                                                
   TITEL  = PAW_PBE Ge_d 03Jul2007                                              
   LULTRA =        F    use ultrasoft PP ?                                      
   IUNSCR =        1    unscreen: 0-lin 1-nonlin 2-no                           
   RPACOR =    2.000    partial core radius                                     
   POMASS =   72.610; ZVAL   =   14.000    mass and valenz                      
   RCORE  =    2.300    outmost cutoff radius                                   
   RWIGS  =    2.300; RWIGS  =    1.217    wigner-seitz radius (au A)           
   ENMAX  =  310.294; ENMIN  =  232.720 eV                                      
   ICORE  =        3    local potential                                         
   LCOR   =        T    correct aug charges                                     
   LPAW   =        T    paw PP                                                  
   EAUG   =  531.356                                                            
   DEXC   =    0.000                                                            
   RMAX   =    2.342    core radius for proj-oper                               
   RAUG   =    1.300    factor for augmentation sphere                          
   RDEP   =    2.318    radius for radial grids                                 
   RDEPT  =    1.783    core radius for aug-charge                              
                                                                                
   Atomic configuration                                                         
    9 entries                                                                   
     n  l   j            E        occ.                                          
     1  0  0.50    -10959.8463   2.0000                                         
     2  0  0.50     -1371.6056   2.0000                                         
     2  1  1.50     -1198.4791   6.0000                                         
     3  0  0.50      -168.4733   2.0000                                         
     3  1  1.50      -115.6019   6.0000                                         
     3  2  2.50       -29.3106  10.0000                                         
     4  0  0.50       -11.7309   2.0000                                         
     4  1  0.50        -3.8952   2.0000                                         
     4  3  2.50        -4.0817   0.0000                                         
   Description                                                                  
     l       E           TYP  RCUT    TYP  RCUT                                 
     2    -29.3105938     23  2.200                                             
     2    -13.6058260     23  2.200                                             
     0    -11.7309493     23  2.300                                             
     0     -7.4578696     23  2.300                                             
     1     -3.8952261     23  2.300                                             
     1      6.1178114     23  2.300                                             
     3     -1.3605826     23  2.300                                             
  local pseudopotential read in
  partial core-charges read in
  partial kinetic energy density read in
  atomic valenz-charges read in
  non local Contribution for L=           2  read in
    real space projection operators read in
  non local Contribution for L=           2  read in
    real space projection operators read in
  non local Contribution for L=           0  read in
    real space projection operators read in
  non local Contribution for L=           0  read in
    real space projection operators read in
  non local Contribution for L=           1  read in
    real space projection operators read in
  non local Contribution for L=           1  read in
    real space projection operators read in
    PAW grid and wavefunctions read in

   number of l-projection  operators is LMAX  =           6
   number of lm-projection operators is LMMAX =          18

 POTCAR:    PAW_PBE C 08Apr2002                   
   SHA256 =  253f7b50bb8d59471dbedb8285d89021f4a42ed1a2c5d38a03a736e69125dd95 C/
   COPYR  = (c) Copyright 08Apr2002 Georg Kresse                                
   COPYR  = This file is part of the software VASP. Any use, copying, and all ot
   COPYR  = If you do not have a valid VASP license, you may not use, copy or di
   VRHFIN =C: s2p2                                                              
   LEXCH  = PE                                                                  
   EATOM  =   147.1560 eV,   10.8157 Ry                                         
                                                                                
   TITEL  = PAW_PBE C 08Apr2002                                                 
   LULTRA =        F    use ultrasoft PP ?                                      
   IUNSCR =        1    unscreen: 0-lin 1-nonlin 2-no                           
   RPACOR =    1.200    partial core radius                                     
   POMASS =   12.011; ZVAL   =    4.000    mass and valenz                      
   RCORE  =    1.500    outmost cutoff radius                                   
   RWIGS  =    1.630; RWIGS  =    0.863    wigner-seitz radius (au A)           
   ENMAX  =  400.000; ENMIN  =  300.000 eV                                      
   ICORE  =        2    local potential                                         
   LCOR   =        T    correct aug charges                                     
   LPAW   =        T    paw PP                                                  
   EAUG   =  644.873                                                            
   DEXC   =    0.000                                                            
   RMAX   =    1.529    core radius for proj-oper                               
   RAUG   =    1.300    factor for augmentation sphere                          
   RDEP   =    1.501    radius for radial grids                                 
   RDEPT  =    1.300    core radius for aug-charge                              
                                                                                
   Atomic configuration                                                         
    4 entries                                                                   
     n  l   j            E        occ.                                          
     1  0  0.50      -273.3789   2.0000                                         
     2  0  0.50       -13.7508   2.0000                                         
     2  1  0.50        -5.2854   2.0000                                         
     3  2  1.50        -5.4423   0.0000                                         
   Description                                                                  
     l       E           TYP  RCUT    TYP  RCUT                                 
     0    -13.7508458     23  1.200                                             
     0     -8.2022199     23  1.200                                             
     1     -5.2854383     23  1.500                                             
     1     34.0145650     23  1.500                                             
     2     -5.4423304      7  1.500                                             
  local pseudopotential read in
  partial core-charges read in
  partial kinetic energy density read in
  atomic valenz-charges read in
  non local Contribution for L=           0  read in
    real space projection operators read in
  non local Contribution for L=           0  read in
    real space projection operators read in
  non local Contribution for L=           1  read in
    real space projection operators read in
  non local Contribution for L=           1  read in
    real space projection operators read in
    PAW grid and wavefunctions read in

   number of l-projection  operators is LMAX  =           4
   number of lm-projection operators is LMMAX =           8

 POTCAR:    PAW_PBE O 08Apr2002                   
   SHA256 =  818f92134a0a090dccd8ba1447fa70422a3b330e708bb4f08108d8ae51209ddf O/
   COPYR  = (c) Copyright 08Apr2002 Georg Kresse                                
   COPYR  = This file is part of the software VASP. Any use, copying, and all ot
   COPYR  = If you do not have a valid VASP license, you may not use, copy or di
   VRHFIN =O: s2p4                                                              
   LEXCH  = PE                                                                  
   EATOM  =   432.3788 eV,   31.7789 Ry                                         
                                                                                
   TITEL  = PAW_PBE O 08Apr2002                                                 
   LULTRA =        F    use ultrasoft PP ?                                      
   IUNSCR =        1    unscreen: 0-lin 1-nonlin 2-no                           
   RPACOR =    1.200    partial core radius                                     
   POMASS =   16.000; ZVAL   =    6.000    mass and valenz                      
   RCORE  =    1.520    outmost cutoff radius                                   
   RWIGS  =    1.550; RWIGS  =    0.820    wigner-seitz radius (au A)           
   ENMAX  =  400.000; ENMIN  =  300.000 eV                                      
   ICORE  =        2    local potential                                         
   LCOR   =        T    correct aug charges                                     
   LPAW   =        T    paw PP                                                  
   EAUG   =  605.392                                                            
   DEXC   =    0.000                                                            
   RMAX   =    1.553    core radius for proj-oper                               
   RAUG   =    1.300    factor for augmentation sphere                          
   RDEP   =    1.550    radius for radial grids                                 
   RDEPT  =    1.329    core radius for aug-charge                              
                                                                                
   Atomic configuration                                                         
    4 entries                                                                   
     n  l   j            E        occ.                                          
     1  0  0.50      -514.6923   2.0000                                         
     2  0  0.50       -23.9615   2.0000                                         
     2  1  0.50        -9.0305   4.0000                                         
     3  2  1.50        -9.5241   0.0000                                         
   Description                                                                  
     l       E           TYP  RCUT    TYP  RCUT                                 
     0    -23.9615318     23  1.200                                             
     0     -9.5240782     23  1.200                                             
     1     -9.0304911     23  1.520                                             
     1      8.1634956     23  1.520                                             
     2     -9.5240782      7  1.500                                             
  local pseudopotential read in
  partial core-charges read in
  partial kinetic energy density read in
  kinetic energy density of atom read in
  atomic valenz-charges read in
  non local Contribution for L=           0  read in
    real space projection operators read in
  non local Contribution for L=           0  read in
    real space projection operators read in
  non local Contribution for L=           1  read in
    real space projection operators read in
  non local Contribution for L=           1  read in
    real space projection operators read in
    PAW grid and wavefunctions read in

   number of l-projection  operators is LMAX  =           4
   number of lm-projection operators is LMMAX =           8


 ----------------------------------------------------------------------------- 
|                                                                             |
|  ADVICE TO THIS USER RUNNING 'VASP/VAMP'   (HEAR YOUR MASTER'S VOICE ...):  |
|                                                                             |
|      You have a (more or less) 'large supercell' and for larger cells       |
|      it might be more efficient to use real space projection opertators     |
|      So try LREAL= Auto  in the INCAR   file.                               |
|      Mind:          For very  accurate calculation you might also keep the  |
|      reciprocal projection scheme          (i.e. LREAL=.FALSE.)             |
|                                                                             |
 ----------------------------------------------------------------------------- 

  PAW_PBE C 08Apr2002                   :
 energy of atom  1       EATOM= -147.1560
 kinetic energy error for atom=    0.0132 (will be added to EATOM!!)
  PAW_PBE N 08Apr2002                   :
 energy of atom  2       EATOM= -264.5486
 kinetic energy error for atom=    0.0298 (will be added to EATOM!!)
  PAW_PBE Ge_d 03Jul2007                :
 energy of atom  3       EATOM=-2596.2402
 kinetic energy error for atom=    0.0090 (will be added to EATOM!!)
  PAW_PBE C 08Apr2002                   :
 energy of atom  4       EATOM= -147.1560
 kinetic energy error for atom=    0.0132 (will be added to EATOM!!)
  PAW_PBE O 08Apr2002                   :
 energy of atom  5       EATOM= -432.3788
 kinetic energy error for atom=    0.0458 (will be added to EATOM!!)


 POSCAR: POSCAR-c3n4                             
  positions in cartesian coordinates
  No initial velocities read in
 exchange correlation table for  LEXCH =        8
   RHO(1)=    0.500       N(1)  =     2000
   RHO(2)=  100.500       N(2)  =     4000



--------------------------------------------------------------------------------------------------------


 ion  position               nearest neighbor table
   1  0.106  0.214  0.436-  26 1.58  46 1.58  25 1.67
   2  0.288  0.399  0.443-  29 1.56  35 1.63  25 1.69
   3  0.104  0.392  0.437-  44 1.56  39 1.63  25 1.69
   4  0.447  0.064  0.516-  30 1.56  27 1.58  48 1.66
   5  0.453  0.401  0.422-  28 1.57  29 1.58  56 1.68
   6  0.112  0.053  0.459-  26 1.56  31 1.57  32 1.65
   7  0.096  0.712  0.494-  54 1.57  34 1.60  33 1.66
   8  0.284  0.890  0.511-  27 1.58  37 1.59  33 1.67
   9  0.109  0.895  0.508-  31 1.56  52 1.59  33 1.69
  10  0.448  0.548  0.512-  38 1.56  56 1.60  35 1.60
  11  0.445  0.885  0.499-  37 1.58  36 1.58  48 1.63
  12  0.087  0.542  0.491-  34 1.56  40 1.59  39 1.60
  13  0.616  0.223  0.483-  42 1.59  30 1.60  41 1.66
  14  0.780  0.390  0.410-  45 1.59  51 1.61  41 1.66
  15  0.610  0.394  0.445-  28 1.58  55 1.58  41 1.71
  16  0.940  0.052  0.471-  46 1.56  43 1.57  32 1.65
  17  0.941  0.387  0.404-  45 1.56  44 1.58  40 1.68
  18  0.623  0.066  0.522-  42 1.57  47 1.58  48 1.66
  19  0.613  0.711  0.541-  50 1.57  38 1.61  49 1.66
  20  0.790  0.897  0.533-  43 1.56  53 1.58  49 1.71
  21  0.609  0.892  0.531-  47 1.58  36 1.59  49 1.70
  22  0.938  0.563  0.430-  51 1.54  54 1.59  40 1.68
  23  0.954  0.902  0.545-  52 1.58  53 1.58  32 1.65
  24  0.621  0.555  0.500-  55 1.55  50 1.57  56 1.67
  25  0.167  0.335  0.435-   1 1.67   3 1.69   2 1.69
  26  0.165  0.161  0.431-   6 1.56   1 1.58
  27  0.336  0.002  0.532-   8 1.58   4 1.58
  28  0.512  0.352  0.402-   5 1.57  15 1.58
  29  0.345  0.361  0.400-   2 1.56   5 1.58
  30  0.506  0.177  0.503-   4 1.56  13 1.60
  31  0.159  0.988  0.457-   9 1.56   6 1.57
  32  0.002  0.002  0.493-  16 1.65  23 1.65   6 1.65
  33  0.165  0.831  0.510-   7 1.66   8 1.67   9 1.69
  34  0.134  0.645  0.528-  12 1.56   7 1.60
  35  0.334  0.491  0.501-  10 1.60   2 1.63
  36  0.503  0.831  0.500-  11 1.58  21 1.59
  37  0.333  0.829  0.489-  11 1.58   8 1.59
  38  0.499  0.648  0.555-  10 1.56  19 1.61
  39  0.142  0.484  0.495-  12 1.60   3 1.63
  40  0.988  0.496  0.446-  12 1.59  22 1.68  17 1.68
  41  0.667  0.330  0.439-  13 1.66  14 1.66  15 1.71
  42  0.680  0.178  0.505-  18 1.57  13 1.59
  43  0.827  0.986  0.478-  20 1.56  16 1.57
  44  0.011  0.348  0.389-   3 1.56  17 1.58
  45  0.830  0.330  0.389-  17 1.56  14 1.59
  46  0.993  0.161  0.445-  16 1.56   1 1.58
  47  0.669  0.005  0.549-  21 1.58  18 1.58
  48  0.505  0.004  0.508-  11 1.63  18 1.66   4 1.66
  49  0.668  0.832  0.544-  19 1.66  21 1.70  20 1.71
  50  0.675  0.666  0.522-  19 1.57  24 1.57
  51  0.832  0.507  0.406-  22 1.54  14 1.61
  52  0.016  0.853  0.559-  23 1.58   9 1.59
  53  0.849  0.860  0.576-  20 1.58  23 1.58
  54  0.004  0.677  0.444-   7 1.57  22 1.59
  55  0.668  0.491  0.494-  24 1.55  15 1.58
  56  0.506  0.502  0.477-  10 1.60  24 1.67   5 1.68
  57  0.287  0.593  0.568-
  58  0.287  0.593  0.966-  59 1.37
  59  0.232  0.530  0.023-  58 1.37


IMPORTANT INFORMATION: All symmetrisations will be switched off!
NOSYMM: (Re-)initialisation of all symmetry stuff for point group C_1.



 KPOINTS: K-Points                                

Automatic generation of k-mesh.
Space group operators:
 irot       det(A)        alpha          n_x          n_y          n_z        tau_x        tau_y        tau_z
    1     1.000000     0.000000     1.000000     0.000000     0.000000     0.000000     0.000000     0.000000
 
 Subroutine IBZKPT returns following result:
 ===========================================
 
 Found      5 irreducible k-points:
 
 Following reciprocal coordinates:
            Coordinates               Weight
  0.000000  0.000000  0.000000      1.000000
  0.333333  0.000000  0.000000      2.000000
  0.000000  0.333333  0.000000      2.000000
  0.333333  0.333333  0.000000      2.000000
 -0.333333  0.333333  0.000000      2.000000
 
 Following cartesian coordinates:
            Coordinates               Weight
  0.000000  0.000000  0.000000      1.000000
  0.024277  0.014368  0.000000      2.000000
  0.000396  0.028736  0.000000      2.000000
  0.024673  0.043104  0.000000      2.000000
 -0.023881  0.014368  0.000000      2.000000
 
 TETIRR: Found     24 inequivalent tetrahedra from       54


--------------------------------------------------------------------------------------------------------




 Dimension of arrays:
   k-points           NKPTS =      5   k-points in BZ     NKDIM =      5   number of bands    NBANDS=    172
   number of dos      NEDOS =   4000   number of ions     NIONS =     59
   non local maximal  LDIM  =      6   non local SUM 2l+1 LMDIM =     18
   total plane-waves  NPLWV = 677376
   max r-space proj   IRMAX =      1   max aug-charges    IRDMAX=   5955
   dimension x,y,z NGX =    84 NGY =   84 NGZ =   96
   dimension x,y,z NGXF=   168 NGYF=  168 NGZF=  192
   support grid    NGXF=   168 NGYF=  168 NGZF=  192
   ions per type =              24  32   1   1   1
   NGX,Y,Z   is equivalent  to a cutoff of   8.55,  8.71,  9.02 a.u.
   NGXF,Y,Z  is equivalent  to a cutoff of  17.10, 17.42, 18.03 a.u.

 SYSTEM =  unknown system                          
 POSCAR =  POSCAR-c3n4                             

 Startparameter for this run:
   NWRITE =      2    write-flag & timer
   PREC   = normal    normal or accurate (medium, high low for compatibility)
   ISTART =      0    job   : 0-new  1-cont  2-samecut
   ICHARG =      2    charge: 1-file 2-atom 10-const
   ISPIN  =      2    spin polarized calculation?
   LNONCOLLINEAR =      F non collinear calculations
   LSORBIT =      F    spin-orbit coupling
   INIWAV =      1    electr: 0-lowe 1-rand  2-diag
   LASPH  =      F    aspherical Exc in radial PAW
   METAGGA=      F    non-selfconsistent MetaGGA calc.

 Electronic Relaxation 1
   ENCUT  =  440.0 eV  32.34 Ry    5.69 a.u.  27.94 27.43 30.27*2*pi/ulx,y,z
   ENINI  =  440.0     initial cutoff
   ENAUG  =  644.9 eV  augmentation charge cutoff
   NELM   =    100;   NELMIN=  2; NELMDL= -5     # of ELM steps 
   EDIFF  = 0.1E-03   stopping-criterion for ELM
   LREAL  =      F    real-space projection
   NLSPLINE    = F    spline interpolate recip. space projectors
   LCOMPAT=      F    compatible to vasp.4.4
   GGA_COMPAT  = T    GGA compatible to vasp.4.4-vasp.4.6
   LMAXPAW     = -100 max onsite density
   LMAXMIX     =    2 max onsite mixed and CHGCAR
   VOSKOWN=      0    Vosko Wilk Nusair interpolation
   ROPT   =    0.00000   0.00000   0.00000   0.00000
   ROPT   =    0.00000
 Ionic relaxation
   EDIFFG = -.1E-01   stopping-criterion for IOM
   NSW    =      0    number of steps for IOM
   NBLOCK =      1;   KBLOCK =      1    inner block; outer block 
   IBRION =     -1    ionic relax: 0-MD 1-quasi-New 2-CG
   NFREE  =      0    steps in history (QN), initial steepest desc. (CG)
   ISIF   =      2    stress and relaxation
   IWAVPR =     10    prediction:  0-non 1-charg 2-wave 3-comb
   ISYM   =      0    0-nonsym 1-usesym 2-fastsym
   LCORR  =      T    Harris-Foulkes like correction to forces

   POTIM  = 0.5000    time-step for ionic-motion
   TEIN   =    0.0    initial temperature
   TEBEG  =    0.0;   TEEND  =   0.0 temperature during run
   SMASS  =  -3.00    Nose mass-parameter (am)
   estimated Nose-frequenzy (Omega)   =  0.10E-29 period in steps =****** mass=  -0.610E-26a.u.
   SCALEE = 1.0000    scale energy and forces
   NPACO  =    256;   APACO  = 16.0  distance and # of slots for P.C.
   PSTRESS=    0.0 pullay stress

  Mass of Ions in am
   POMASS =  12.01 14.00 72.61 12.01 16.00
  Ionic Valenz
   ZVAL   =   4.00  5.00 14.00  4.00  6.00
  Atomic Wigner-Seitz radii
   RWIGS  =  -1.00 -1.00 -1.00 -1.00 -1.00
  virtual crystal weights 
   VCA    =   1.00  1.00  1.00  1.00  1.00
   NELECT =     280.0000    total number of electrons
   NUPDOWN=      -1.0000    fix difference up-down

 DOS related values:
   EMIN   = -14.00;   EMAX   =  6.00  energy-range for DOS
   EFERMI =   0.00
   ISMEAR =    -5;   SIGMA  =   0.20  broadening in eV -4-tet -1-fermi 0-gaus

 Electronic relaxation 2 (details)
   IALGO  =     38    algorithm
   LDIAG  =      T    sub-space diagonalisation (order eigenvalues)
   LSUBROT=      F    optimize rotation matrix (better conditioning)
   TURBO    =      0    0=normal 1=particle mesh
   IRESTART =      0    0=no restart 2=restart with 2 vectors
   NREBOOT  =      0    no. of reboots
   NMIN     =      0    reboot dimension
   EREF     =   0.00    reference energy to select bands
   IMIX   =      4    mixing-type and parameters
     AMIX     =   0.25;   BMIX     =  0.00
     AMIX_MAG =   1.00;   BMIX_MAG =  0.00
     AMIN     =   0.10
     WC   =   100.;   INIMIX=   1;  MIXPRE=   1;  MAXMIX= -45

 Intra band minimization:
   WEIMIN = 0.0000     energy-eigenvalue tresh-hold
   EBREAK =  0.15E-06  absolut break condition
   DEPER  =   0.30     relativ break condition  

   TIME   =   0.40     timestep for ELM

  volume/ion in A,a.u.               =      67.08       452.66
  Fermi-wavevector in a.u.,A,eV,Ry     =   0.677096  1.279526  6.237710  0.458459
  Thomas-Fermi vector in A             =   1.754603

 Write flags
   LWAVE        =      F    write WAVECAR
   LDOWNSAMPLE  =      F    k-point downsampling of WAVECAR
   LCHARG       =      F    write CHGCAR
   LVTOT        =      F    write LOCPOT, total local potential
   LVHAR        =      F    write LOCPOT, Hartree potential only
   LELF         =      F    write electronic localiz. function (ELF)
   LORBIT       =     11    0 simple, 1 ext, 2 COOP (PROOUT), +10 PAW based schemes


 Dipole corrections
   LMONO  =      F    monopole corrections only (constant potential shift)
   LDIPOL =      F    correct potential (dipole corrections)
   IDIPOL =      0    1-x, 2-y, 3-z, 4-all directions 
   EPSILON=  1.0000000 bulk dielectric constant

 Exchange correlation treatment:
   GGA     =    --    GGA type
   LEXCH   =     8    internal setting for exchange type
   VOSKOWN=      0    Vosko Wilk Nusair interpolation
   LHFCALC =     F    Hartree Fock is set to
   LHFONE  =     F    Hartree Fock one center treatment
   AEXX    =    0.0000 exact exchange contribution

 Linear response parameters
   LEPSILON=     F    determine dielectric tensor
   LRPA    =     F    only Hartree local field effects (RPA)
   LNABLA  =     F    use nabla operator in PAW spheres
   LVEL    =     F    velocity operator in full k-point grid
   LINTERFAST=   F  fast interpolation
   KINTER  =     0    interpolate to denser k-point grid
   CSHIFT  =0.1000    complex shift for real part using Kramers Kronig
   OMEGAMAX=  -1.0    maximum frequency
   DEG_THRESHOLD= 0.2000000E-02 threshold for treating states as degnerate
   RTIME   =   -0.100 relaxation time in fs
  (WPLASMAI=    0.000 imaginary part of plasma frequency in eV, 0.658/RTIME)
   DFIELD  = 0.0000000 0.0000000 0.0000000 field for delta impulse in time

 Orbital magnetization related:
   ORBITALMAG=     F  switch on orbital magnetization
   LCHIMAG   =     F  perturbation theory with respect to B field
   DQ        =  0.001000  dq finite difference perturbation B field
   LLRAUG    =     F  two centre corrections for induced B field



--------------------------------------------------------------------------------------------------------


 Static calculation
 charge density and potential will be updated during run
 spin polarized calculation
 Variant of blocked Davidson
 Davidson routine will perform the subspace rotation
 perform sub-space diagonalisation
    after iterative eigenvector-optimisation
 modified Broyden-mixing scheme, WC =      100.0
 initial mixing is a Kerker type mixing with AMIX =  0.2500 and BMIX =      0.0001
 Hartree-type preconditioning will be used
 using additional bands           32
 reciprocal scheme for non local part
 use partial core corrections
 calculate Harris-corrections to forces   (improved forces if not selfconsistent)
 use gradient corrections 
 use of overlap-Matrix (Vanderbilt PP)
 Fermi weights with tetrahedron method with Bloechl corrections


--------------------------------------------------------------------------------------------------------


  energy-cutoff  :      440.00
  volume of cell :     3957.60
      direct lattice vectors                 reciprocal lattice vectors
    16.335240597 -0.225073759  0.000000000     0.061720652  0.036528910 -0.000000000
    -8.167620299 13.800325373  0.000000000     0.001006621  0.073057821 -0.000000000
     0.000000000  0.000000000 17.700000000    -0.000000000 -0.000000000  0.056497175

  length of vectors
    16.336791103 16.036177903 17.700000000     0.071720291  0.073064755  0.056497175



 k-points in units of 2pi/SCALE and weight: K-Points                                
   0.00000000  0.00000000  0.00000000       0.111
   0.02427679  0.01436804  0.00000000       0.222
   0.00039594  0.02873608  0.00000000       0.222
   0.02467273  0.04310411  0.00000000       0.222
  -0.02388085  0.01436804  0.00000000       0.222

 k-points in reciprocal lattice and weights: K-Points                                
   0.00000000  0.00000000  0.00000000       0.111
   0.33333333  0.00000000  0.00000000       0.222
   0.00000000  0.33333333  0.00000000       0.222
   0.33333333  0.33333333  0.00000000       0.222
  -0.33333333  0.33333333  0.00000000       0.222

 position of ions in fractional coordinates (direct lattice) 
   0.10567936  0.21351909  0.43638452
   0.28750403  0.39866334  0.44307848
   0.10379301  0.39177313  0.43720774
   0.44732828  0.06383887  0.51561413
   0.45258916  0.40124889  0.42244582
   0.11203481  0.05273921  0.45860169
   0.09638015  0.71191070  0.49382164
   0.28433946  0.89006364  0.51112159
   0.10941441  0.89537413  0.50804572
   0.44792521  0.54827090  0.51182417
   0.44544784  0.88520183  0.49889037
   0.08690842  0.54210436  0.49059155
   0.61614813  0.22292684  0.48262487
   0.78023735  0.38968276  0.40980308
   0.61037743  0.39432339  0.44538198
   0.93951642  0.05229783  0.47062057
   0.94071854  0.38652888  0.40380040
   0.62278394  0.06558106  0.52195204
   0.61322902  0.71118454  0.54116914
   0.78984871  0.89727295  0.53280047
   0.60944297  0.89248269  0.53124739
   0.93832005  0.56283419  0.43042990
   0.95436023  0.90171878  0.54458488
   0.62130548  0.55465507  0.49978063
   0.16668926  0.33545237  0.43494871
   0.16473950  0.16097029  0.43087242
   0.33626584  0.00180669  0.53207802
   0.51175722  0.35246859  0.40230650
   0.34471728  0.36074551  0.39967324
   0.50565751  0.17673507  0.50307206
   0.15873210  0.98821904  0.45657691
   0.00214731  0.00186372  0.49276218
   0.16462634  0.83083069  0.51017993
   0.13400723  0.64526801  0.52770834
   0.33371346  0.49116238  0.50147098
   0.50288345  0.83078126  0.49964378
   0.33307237  0.82932770  0.48929409
   0.49902190  0.64803204  0.55475412
   0.14173676  0.48364631  0.49503647
   0.98839512  0.49595573  0.44590834
   0.66736443  0.33015381  0.43923807
   0.67970142  0.17802103  0.50515807
   0.82720183  0.98622484  0.47776955
   0.01097216  0.34809993  0.38872280
   0.83047981  0.33016544  0.38944898
   0.99296173  0.16101876  0.44505124
   0.66886761  0.00524437  0.54940128
   0.50484899  0.00388347  0.50822952
   0.66830364  0.83227641  0.54411956
   0.67536455  0.66551462  0.52238502
   0.83211404  0.50666912  0.40566699
   0.01584380  0.85299492  0.55859758
   0.84924332  0.85956436  0.57597004
   0.00424175  0.67726383  0.44447513
   0.66753141  0.49127771  0.49374111
   0.50565566  0.50179634  0.47708161
   0.28676550  0.59288202  0.56771515
   0.28676550  0.59288202  0.96638181
   0.23209909  0.52992702  0.02273763

 position of ions in cartesian coordinates  (Angst):
  -0.01764502  2.92284720  7.72400593
   1.44031667  5.43697417  7.84248905
  -1.50437046  5.38323560  7.73857691
   6.78580345  0.78031528  9.12637010
   4.11590414  5.43549934  7.47729110
   1.39936175  0.70260221  8.11724984
  -4.24022337  9.80290667  8.74064296
  -2.62494840 12.21917046  9.04685209
  -5.52576530 12.33182803  8.99240929
   2.83889760  7.46550062  9.05928785
   0.04650524 12.11581468  8.83035954
  -3.00803272  7.46165581  8.68347045
   8.24414616  2.93778417  8.54246023
   9.56258396  5.20213797  7.25351458
   6.74997837  5.30441119  7.88326100
  14.92007802  0.51026654  8.32998403
  12.20984260  5.12249329  7.14726701
   9.63768430  0.76486758  9.23855113
   4.20855836  9.67655633  9.57869381
   5.57378392 12.20488448  9.43056831
   2.66593778 12.17938183  9.40307874
  10.73066780  7.55610378  7.61860932
   8.22480729 12.22921114  9.63915234
   5.61896254  7.51458092  8.84611717
  -0.01693842  4.59183450  7.69859221
   1.37631522  2.18436379  7.62644189
   5.47822698 -0.05075174  9.41778097
   5.48084778  4.74899806  7.12082503
   2.68460732  4.90081862  7.07421631
   6.81653207  2.32519130  8.90437550
  -5.47847094 13.60201788  8.08141126
   0.01985469  0.02523663  8.72189054
  -4.09669863 11.42868074  9.03018471
  -3.08126375  8.87474695  9.34043764
   1.43966191  6.70309046  8.87603641
   1.42921630 11.35186577  8.84369489
  -1.33281648 11.37002623  8.66050534
   2.85876317  8.83073628  9.81914786
  -1.63493535  6.64257516  8.76214545
  12.09489403  6.62188868  7.89257764
   8.20498757  4.40602382  7.77451377
   9.64907811  2.30376517  8.94129791
   5.45743096 13.42404224  8.45652107
  -2.66391518  4.80142269  6.88039364
  10.86942152  4.36947128  6.89324686
  14.90512860  1.99862164  7.87740694
  10.88327942 -0.07817059  9.72440267
   8.21511104 -0.06003511  8.99566258
   4.11918314 11.33526761  9.63091618
   5.59657164  9.03231148  9.24621490
   9.45450199  6.80491171  7.18030580
  -6.70812640 11.76804144  9.88717711
   6.85199863 11.67112552 10.19466977
  -5.46234386  9.34550655  7.86720989
   6.89171631  6.62954846  8.73921768
   4.16152486  6.81114300  8.44434453
  -0.15805182  8.11742146 10.04855811
  -0.15805182  8.11742146 17.10495811
  -0.53684827  7.26092590  0.40245599



--------------------------------------------------------------------------------------------------------


 k-point  1 :   0.0000 0.0000 0.0000  plane waves:   82967
 k-point  2 :   0.3333 0.0000 0.0000  plane waves:   82995
 k-point  3 :   0.0000 0.3333 0.0000  plane waves:   82939
 k-point  4 :   0.3333 0.3333 0.0000  plane waves:   82990
 k-point  5 :  -0.3333 0.3333 0.0000  plane waves:   82938

 maximum and minimum number of plane-waves per node :      6944     6890

 maximum number of plane-waves:     82995
 maximum index in each direction: 
   IXMAX=   28   IYMAX=   27   IZMAX=   30
   IXMIN=  -28   IYMIN=  -27   IZMIN=  -30


 parallel 3D FFT for wavefunctions:
    minimum data exchange during FFTs selected (reduces bandwidth)
 parallel 3D FFT for charge:
    minimum data exchange during FFTs selected (reduces bandwidth)


 total amount of memory used by VASP MPI-rank0   133645. kBytes
=======================================================================

   base      :      30000. kBytes
   nonl-proj :      31462. kBytes
   fftplans  :       5963. kBytes
   grid      :      18071. kBytes
   one-center:        155. kBytes
   wavefun   :      47994. kBytes

     INWAV:  cpu time    0.0000: real time    0.0000
 Broyden mixing: mesh for mixing (old mesh)
   NGX = 55   NGY = 55   NGZ = 61
  (NGX  =168   NGY  =168   NGZ  =192)
  gives a total of 184525 points

 initial charge density was supplied:
 charge density of overlapping atoms calculated
 number of electron     280.0000000 magnetization       2.0000000
 keeping initial charge density in first step


--------------------------------------------------------------------------------------------------------


 Maximum index for augmentation-charges          352 (set IRDMAX)


--------------------------------------------------------------------------------------------------------


 First call to EWALD:  gamma=   0.112
 Maximum number of real-space cells 3x 3x 3
 Maximum number of reciprocal cells 3x 3x 3

    FEWALD:  cpu time    0.0023: real time    0.0023


--------------------------------------- Iteration      1(   1)  ---------------------------------------


    POTLOK:  cpu time    0.1883: real time    0.2130
    SETDIJ:  cpu time    0.0094: real time    0.0095
     EDDAV:  cpu time   19.8479: real time   19.9009
 BZINTS: Fermi energy:  6.842485;280.000000 electrons
         Band energy:***********;  BLOECHL correction: -0.022177
       DOS:  cpu time    0.0619: real time    0.0619
    --------------------------------------------
      LOOP:  cpu time   20.1075: real time   20.1852

 eigenvalue-minimisations  :  3928
 total energy-change (2. order) : 0.2381539E+04  (-0.9063682E+04)
 number of electron     280.0000000 magnetization       2.0000000
 augmentation part      280.0000000 magnetization       2.0000000

 Free energy of the ion-electron system (eV)
  ---------------------------------------------------
  alpha Z        PSCENC =        94.15302032
  Ewald energy   TEWEN  =     21818.67927897
  -Hartree energ DENC   =    -34131.64644127
  -exchange      EXHF   =         0.00000000
  -V(xc)+E(xc)   XCENC  =      1011.32451009
  PAW double counting   =     11453.83848114   -11942.90478952
  entropy T*S    EENTRO =         0.00000000
  eigenvalues    EBANDS =     -1093.64168099
  atomic energy  EATOM  =     15171.73615219
  Solvation  Ediel_sol  =         0.00000000
  ---------------------------------------------------
  free energy    TOTEN  =      2381.53853093 eV

  energy without entropy =     2381.53853093  energy(sigma->0) =     2381.53853093


--------------------------------------------------------------------------------------------------------




--------------------------------------- Iteration      1(   2)  ---------------------------------------


     EDDAV:  cpu time   24.1954: real time   24.2243
 BZINTS: Fermi energy: -0.795449;280.000000 electrons
         Band energy:***********;  BLOECHL correction:  0.000000
       DOS:  cpu time    0.0147: real time    0.0147
    --------------------------------------------
      LOOP:  cpu time   24.2101: real time   24.2390

 eigenvalue-minimisations  :  5076
 total energy-change (2. order) :-0.2181648E+04  (-0.2090069E+04)
 number of electron     280.0000000 magnetization       2.0000000
 augmentation part      280.0000000 magnetization       2.0000000

 Free energy of the ion-electron system (eV)
  ---------------------------------------------------
  alpha Z        PSCENC =        94.15302032
  Ewald energy   TEWEN  =     21818.67927897
  -Hartree energ DENC   =    -34131.64644127
  -exchange      EXHF   =         0.00000000
  -V(xc)+E(xc)   XCENC  =      1011.32451009
  PAW double counting   =     11453.83848114   -11942.90478952
  entropy T*S    EENTRO =         0.00000000
  eigenvalues    EBANDS =     -3275.28945555
  atomic energy  EATOM  =     15171.73615219
  Solvation  Ediel_sol  =         0.00000000
  ---------------------------------------------------
  free energy    TOTEN  =       199.89075637 eV

  energy without entropy =      199.89075637  energy(sigma->0) =      199.89075637


--------------------------------------------------------------------------------------------------------




--------------------------------------- Iteration      1(   3)  ---------------------------------------


     EDDAV:  cpu time   20.8507: real time   20.8864
 BZINTS: Fermi energy: -3.698790;280.000000 electrons
         Band energy:***********;  BLOECHL correction: -0.013400
       DOS:  cpu time    0.0234: real time    0.0234
    --------------------------------------------
      LOOP:  cpu time   20.8740: real time   20.9098

 eigenvalue-minimisations  :  4216
 total energy-change (2. order) :-0.6032085E+03  (-0.5970365E+03)
 number of electron     280.0000000 magnetization       2.0000000
 augmentation part      280.0000000 magnetization       2.0000000

 Free energy of the ion-electron system (eV)
  ---------------------------------------------------
  alpha Z        PSCENC =        94.15302032
  Ewald energy   TEWEN  =     21818.67927897
  -Hartree energ DENC   =    -34131.64644127
  -exchange      EXHF   =         0.00000000
  -V(xc)+E(xc)   XCENC  =      1011.32451009
  PAW double counting   =     11453.83848114   -11942.90478952
  entropy T*S    EENTRO =         0.00000000
  eigenvalues    EBANDS =     -3878.49793026
  atomic energy  EATOM  =     15171.73615219
  Solvation  Ediel_sol  =         0.00000000
  ---------------------------------------------------
  free energy    TOTEN  =      -403.31771834 eV

  energy without entropy =     -403.31771834  energy(sigma->0) =     -403.31771834


--------------------------------------------------------------------------------------------------------




--------------------------------------- Iteration      1(   4)  ---------------------------------------


     EDDAV:  cpu time   20.8288: real time   20.8476
 BZINTS: Fermi energy: -4.200050;280.000000 electrons
         Band energy:***********;  BLOECHL correction:  0.000000
       DOS:  cpu time    0.0174: real time    0.0174
    --------------------------------------------
      LOOP:  cpu time   20.8462: real time   20.8651

 eigenvalue-minimisations  :  4200
 total energy-change (2. order) :-0.3447926E+02  (-0.3333214E+02)
 number of electron     280.0000000 magnetization       2.0000000
 augmentation part      280.0000000 magnetization       2.0000000

 Free energy of the ion-electron system (eV)
  ---------------------------------------------------
  alpha Z        PSCENC =        94.15302032
  Ewald energy   TEWEN  =     21818.67927897
  -Hartree energ DENC   =    -34131.64644127
  -exchange      EXHF   =         0.00000000
  -V(xc)+E(xc)   XCENC  =      1011.32451009
  PAW double counting   =     11453.83848114   -11942.90478952
  entropy T*S    EENTRO =         0.00000000
  eigenvalues    EBANDS =     -3912.97719332
  atomic energy  EATOM  =     15171.73615219
  Solvation  Ediel_sol  =         0.00000000
  ---------------------------------------------------
  free energy    TOTEN  =      -437.79698140 eV

  energy without entropy =     -437.79698140  energy(sigma->0) =     -437.79698140


--------------------------------------------------------------------------------------------------------




--------------------------------------- Iteration      1(   5)  ---------------------------------------


     EDDAV:  cpu time   24.9504: real time   24.9856
 BZINTS: Fermi energy: -4.246312;280.000000 electrons
         Band energy:***********;  BLOECHL correction:  0.000000
       DOS:  cpu time    0.0171: real time    0.0171
    CHARGE:  cpu time    0.3298: real time    0.3298
    MIXING:  cpu time    0.0061: real time    0.0062
    --------------------------------------------
      LOOP:  cpu time   25.3034: real time   25.3387

 eigenvalue-minimisations  :  5256
 total energy-change (2. order) :-0.2105316E+01  (-0.2077316E+01)
 number of electron     280.0000034 magnetization       0.0000001
 augmentation part       16.8689980 magnetization       0.0400332

 Broyden mixing:
  rms(total) = 0.32165E+01    rms(broyden)= 0.32124E+01
  rms(prec ) = 0.35613E+01
  weight for this iteration     100.00

 Free energy of the ion-electron system (eV)
  ---------------------------------------------------
  alpha Z        PSCENC =        94.15302032
  Ewald energy   TEWEN  =     21818.67927897
  -Hartree energ DENC   =    -34131.64644127
  -exchange      EXHF   =         0.00000000
  -V(xc)+E(xc)   XCENC  =      1011.32451009
  PAW double counting   =     11453.83848114   -11942.90478952
  entropy T*S    EENTRO =         0.00000000
  eigenvalues    EBANDS =     -3915.08250941
  atomic energy  EATOM  =     15171.73615219
  Solvation  Ediel_sol  =         0.00000000
  ---------------------------------------------------
  free energy    TOTEN  =      -439.90229749 eV

  energy without entropy =     -439.90229749  energy(sigma->0) =     -439.90229749


--------------------------------------------------------------------------------------------------------




--------------------------------------- Iteration      1(   6)  ---------------------------------------


    POTLOK:  cpu time    0.1785: real time    0.1905
    SETDIJ:  cpu time    0.0093: real time    0.0093
     EDDAV:  cpu time   22.8192: real time   22.8659
 BZINTS: Fermi energy: -4.676419;280.000000 electrons
         Band energy:***********;  BLOECHL correction:  0.000000
       DOS:  cpu time    0.0173: real time    0.0173
    CHARGE:  cpu time    0.3248: real time    0.3248
    MIXING:  cpu time    0.0067: real time    0.0129
    --------------------------------------------
      LOOP:  cpu time   23.3557: real time   23.4208

 eigenvalue-minimisations  :  4720
 total energy-change (2. order) : 0.1643794E+02  (-0.8313049E+01)
 number of electron     280.0000016 magnetization      -0.0000000
 augmentation part       15.2946424 magnetization       0.0139030

 Broyden mixing:
  rms(total) = 0.18021E+01    rms(broyden)= 0.18008E+01
  rms(prec ) = 0.19372E+01
  weight for this iteration     100.00

 eigenvalues of (default mixing * dielectric matrix)
  average eigenvalue GAMMA=   0.9832
  0.9832

 Free energy of the ion-electron system (eV)
  ---------------------------------------------------
  alpha Z        PSCENC =        94.15302032
  Ewald energy   TEWEN  =     21818.67927897
  -Hartree energ DENC   =    -34236.78810159
  -exchange      EXHF   =         0.00000000
  -V(xc)+E(xc)   XCENC  =      1019.85855079
  PAW double counting   =     13073.23397046   -13561.44041887
  entropy T*S    EENTRO =         0.00000000
  eigenvalues    EBANDS =     -3802.89681219
  atomic energy  EATOM  =     15171.73615219
  Solvation  Ediel_sol  =         0.00000000
  ---------------------------------------------------
  free energy    TOTEN  =      -423.46435991 eV

  energy without entropy =     -423.46435991  energy(sigma->0) =     -423.46435991


--------------------------------------------------------------------------------------------------------




--------------------------------------- Iteration      1(   7)  ---------------------------------------


    POTLOK:  cpu time    0.1840: real time    0.1879
    SETDIJ:  cpu time    0.0094: real time    0.0094
     EDDAV:  cpu time   21.3423: real time   21.3717
 BZINTS: Fermi energy: -4.566392;280.000000 electrons
         Band energy:***********;  BLOECHL correction:  0.000000
       DOS:  cpu time    0.0174: real time    0.0174
    CHARGE:  cpu time    0.3285: real time    0.3306
    MIXING:  cpu time    0.0064: real time    0.0068
    --------------------------------------------
      LOOP:  cpu time   21.8880: real time   21.9238

 eigenvalue-minimisations  :  4320
 total energy-change (2. order) : 0.8128910E+00  (-0.2078561E+01)
 number of electron     280.0000019 magnetization      -0.0000000
 augmentation part       15.3890581 magnetization       0.0097769

 Broyden mixing:
  rms(total) = 0.13170E+01    rms(broyden)= 0.13166E+01
  rms(prec ) = 0.14331E+01
  weight for this iteration     100.00

 eigenvalues of (default mixing * dielectric matrix)
  average eigenvalue GAMMA=   1.0987
  0.8100  1.3873

 Free energy of the ion-electron system (eV)
  ---------------------------------------------------
  alpha Z        PSCENC =        94.15302032
  Ewald energy   TEWEN  =     21818.67927897
  -Hartree energ DENC   =    -34284.38660194
  -exchange      EXHF   =         0.00000000
  -V(xc)+E(xc)   XCENC  =      1021.58948626
  PAW double counting   =     14207.19657927   -14695.17630140
  entropy T*S    EENTRO =         0.00000000
  eigenvalues    EBANDS =     -3756.44308255
  atomic energy  EATOM  =     15171.73615219
  Solvation  Ediel_sol  =         0.00000000
  ---------------------------------------------------
  free energy    TOTEN  =      -422.65146888 eV

  energy without entropy =     -422.65146888  energy(sigma->0) =     -422.65146888


--------------------------------------------------------------------------------------------------------




--------------------------------------- Iteration      1(   8)  ---------------------------------------


    POTLOK:  cpu time    0.1789: real time    0.1834
    SETDIJ:  cpu time    0.0093: real time    0.0093
     EDDAV:  cpu time   20.7009: real time   20.7342
 BZINTS: Fermi energy: -4.621405;280.000000 electrons
         Band energy:***********;  BLOECHL correction:  0.000000
       DOS:  cpu time    0.0170: real time    0.0170
    CHARGE:  cpu time    0.3211: real time    0.3211
    MIXING:  cpu time    0.0062: real time    0.0062
    --------------------------------------------
      LOOP:  cpu time   21.2334: real time   21.2712

 eigenvalue-minimisations  :  4160
 total energy-change (2. order) : 0.1786287E+00  (-0.2152960E+01)
 number of electron     280.0000018 magnetization      -0.0000000
 augmentation part       15.1705641 magnetization       0.0053193

 Broyden mixing:
  rms(total) = 0.10013E+01    rms(broyden)= 0.10010E+01
  rms(prec ) = 0.11477E+01
  weight for this iteration     100.00

 eigenvalues of (default mixing * dielectric matrix)
  average eigenvalue GAMMA=   1.2694
  2.3258  0.9704  0.5121

 Free energy of the ion-electron system (eV)
  ---------------------------------------------------
  alpha Z        PSCENC =        94.15302032
  Ewald energy   TEWEN  =     21818.67927897
  -Hartree energ DENC   =    -34309.81422862
  -exchange      EXHF   =         0.00000000
  -V(xc)+E(xc)   XCENC  =      1023.09686345
  PAW double counting   =     15276.37100803   -15764.90680296
  entropy T*S    EENTRO =         0.00000000
  eigenvalues    EBANDS =     -3731.78813158
  atomic energy  EATOM  =     15171.73615219
  Solvation  Ediel_sol  =         0.00000000
  ---------------------------------------------------
  free energy    TOTEN  =      -422.47284020 eV

  energy without entropy =     -422.47284020  energy(sigma->0) =     -422.47284020


--------------------------------------------------------------------------------------------------------




--------------------------------------- Iteration      1(   9)  ---------------------------------------


    POTLOK:  cpu time    0.1867: real time    0.1888
    SETDIJ:  cpu time    0.0094: real time    0.0094
     EDDAV:  cpu time   24.3893: real time   24.4365
 BZINTS: Fermi energy: -4.481370;280.000000 electrons
         Band energy:***********;  BLOECHL correction:  0.000000
       DOS:  cpu time    0.0172: real time    0.0172
    CHARGE:  cpu time    0.3282: real time    0.3288
    MIXING:  cpu time    0.0064: real time    0.0064
    --------------------------------------------
      LOOP:  cpu time   24.9372: real time   24.9871

 eigenvalue-minimisations  :  5128
 total energy-change (2. order) :-0.1575789E+00  (-0.2566598E+01)
 number of electron     280.0000019 magnetization       0.0000000
 augmentation part       15.3882375 magnetization       0.0014363

 Broyden mixing:
  rms(total) = 0.73448E+00    rms(broyden)= 0.73403E+00
  rms(prec ) = 0.91285E+00
  weight for this iteration     100.00

 eigenvalues of (default mixing * dielectric matrix)
  average eigenvalue GAMMA=   1.2991
  3.2110  0.9943  0.4955  0.4955

 Free energy of the ion-electron system (eV)
  ---------------------------------------------------
  alpha Z        PSCENC =        94.15302032
  Ewald energy   TEWEN  =     21818.67927897
  -Hartree energ DENC   =    -34334.63797682
  -exchange      EXHF   =         0.00000000
  -V(xc)+E(xc)   XCENC  =      1023.99930887
  PAW double counting   =     16458.53127848   -16950.09637675
  entropy T*S    EENTRO =         0.00000000
  eigenvalues    EBANDS =     -3704.99510441
  atomic energy  EATOM  =     15171.73615219
  Solvation  Ediel_sol  =         0.00000000
  ---------------------------------------------------
  free energy    TOTEN  =      -422.63041914 eV

  energy without entropy =     -422.63041914  energy(sigma->0) =     -422.63041914


--------------------------------------------------------------------------------------------------------




--------------------------------------- Iteration      1(  10)  ---------------------------------------


    POTLOK:  cpu time    0.1863: real time    0.1918
    SETDIJ:  cpu time    0.0094: real time    0.0094
     EDDAV:  cpu time   24.2909: real time   24.3280
 BZINTS: Fermi energy: -4.021255;280.000000 electrons
         Band energy:***********;  BLOECHL correction:  0.000000
       DOS:  cpu time    0.0171: real time    0.0171
    CHARGE:  cpu time    0.3243: real time    0.3244
    MIXING:  cpu time    0.0068: real time    0.0068
    --------------------------------------------
      LOOP:  cpu time   24.8348: real time   24.8775

 eigenvalue-minimisations  :  5104
 total energy-change (2. order) : 0.1186226E+01  (-0.7525925E+00)
 number of electron     280.0000017 magnetization       0.0000000
 augmentation part       15.3748969 magnetization      -0.0019859

 Broyden mixing:
  rms(total) = 0.34814E+00    rms(broyden)= 0.34714E+00
  rms(prec ) = 0.45730E+00
  weight for this iteration     100.00

 eigenvalues of (default mixing * dielectric matrix)
  average eigenvalue GAMMA=   1.2265
  3.5592  0.9973  0.6746  0.4506  0.4506

 Free energy of the ion-electron system (eV)
  ---------------------------------------------------
  alpha Z        PSCENC =        94.15302032
  Ewald energy   TEWEN  =     21818.67927897
  -Hartree energ DENC   =    -34357.75395746
  -exchange      EXHF   =         0.00000000
  -V(xc)+E(xc)   XCENC  =      1025.51684249
  PAW double counting   =     17664.57962514   -18156.37215097
  entropy T*S    EENTRO =         0.00000000
  eigenvalues    EBANDS =     -3681.98300383
  atomic energy  EATOM  =     15171.73615219
  Solvation  Ediel_sol  =         0.00000000
  ---------------------------------------------------
  free energy    TOTEN  =      -421.44419315 eV

  energy without entropy =     -421.44419315  energy(sigma->0) =     -421.44419315


--------------------------------------------------------------------------------------------------------




--------------------------------------- Iteration      1(  11)  ---------------------------------------


    POTLOK:  cpu time    0.1832: real time    0.1926
    SETDIJ:  cpu time    0.0105: real time    0.0105
     EDDAV:  cpu time   22.0113: real time   22.0611
 BZINTS: Fermi energy: -4.071268;280.000000 electrons
         Band energy:***********;  BLOECHL correction:  0.000000
       DOS:  cpu time    0.0171: real time    0.0171
    CHARGE:  cpu time    0.3269: real time    0.3269
    MIXING:  cpu time    0.0071: real time    0.0071
    --------------------------------------------
      LOOP:  cpu time   22.5561: real time   22.6153

 eigenvalue-minimisations  :  4504
 total energy-change (2. order) : 0.1403858E+00  (-0.3607654E+00)
 number of electron     280.0000017 magnetization       0.0000000
 augmentation part       15.3591982 magnetization      -0.0027774

 Broyden mixing:
  rms(total) = 0.27062E+00    rms(broyden)= 0.27012E+00
  rms(prec ) = 0.36530E+00
  weight for this iteration     100.00

 eigenvalues of (default mixing * dielectric matrix)
  average eigenvalue GAMMA=   1.1315
  3.5700  0.9725  0.7216  0.7216  0.4016  0.4016

 Free energy of the ion-electron system (eV)
  ---------------------------------------------------
  alpha Z        PSCENC =        94.15302032
  Ewald energy   TEWEN  =     21818.67927897
  -Hartree energ DENC   =    -34366.49652968
  -exchange      EXHF   =         0.00000000
  -V(xc)+E(xc)   XCENC  =      1026.02544470
  PAW double counting   =     18122.99919685   -18614.40214504
  entropy T*S    EENTRO =         0.00000000
  eigenvalues    EBANDS =     -3673.99822561
  atomic energy  EATOM  =     15171.73615219
  Solvation  Ediel_sol  =         0.00000000
  ---------------------------------------------------
  free energy    TOTEN  =      -421.30380730 eV

  energy without entropy =     -421.30380730  energy(sigma->0) =     -421.30380730


--------------------------------------------------------------------------------------------------------




--------------------------------------- Iteration      1(  12)  ---------------------------------------


    POTLOK:  cpu time    0.1841: real time    0.1848
    SETDIJ:  cpu time    0.0094: real time    0.0094
     EDDAV:  cpu time   21.6415: real time   21.6775
 BZINTS: Fermi energy: -4.030008;280.000000 electrons
         Band energy:***********;  BLOECHL correction:  0.000000
       DOS:  cpu time    0.0167: real time    0.0167
    CHARGE:  cpu time    0.3325: real time    0.3338
    MIXING:  cpu time    0.0071: real time    0.0071
    --------------------------------------------
      LOOP:  cpu time   22.1915: real time   22.2304

 eigenvalue-minimisations  :  4416
 total energy-change (2. order) : 0.1292503E+00  (-0.1557548E+00)
 number of electron     280.0000018 magnetization       0.0000000
 augmentation part       15.3033414 magnetization      -0.0019789

 Broyden mixing:
  rms(total) = 0.12547E+00    rms(broyden)= 0.12495E+00
  rms(prec ) = 0.14572E+00
  weight for this iteration     100.00

 eigenvalues of (default mixing * dielectric matrix)
  average eigenvalue GAMMA=   1.0903
  3.5281  1.0315  1.0315  0.6226  0.6226  0.4081  0.3874

 Free energy of the ion-electron system (eV)
  ---------------------------------------------------
  alpha Z        PSCENC =        94.15302032
  Ewald energy   TEWEN  =     21818.67927897
  -Hartree energ DENC   =    -34366.82190166
  -exchange      EXHF   =         0.00000000
  -V(xc)+E(xc)   XCENC  =      1026.07439445
  PAW double counting   =     18188.94322019   -18679.90858887
  entropy T*S    EENTRO =         0.00000000
  eigenvalues    EBANDS =     -3674.03013255
  atomic energy  EATOM  =     15171.73615219
  Solvation  Ediel_sol  =         0.00000000
  ---------------------------------------------------
  free energy    TOTEN  =      -421.17455697 eV

  energy without entropy =     -421.17455697  energy(sigma->0) =     -421.17455697


--------------------------------------------------------------------------------------------------------




--------------------------------------- Iteration      1(  13)  ---------------------------------------


    POTLOK:  cpu time    0.1824: real time    0.1886
    SETDIJ:  cpu time    0.0094: real time    0.0094
     EDDAV:  cpu time   21.5469: real time   21.5947
 BZINTS: Fermi energy: -4.030008;280.000000 electrons
         Band energy:***********;  BLOECHL correction:  0.000000
       DOS:  cpu time    0.0170: real time    0.0170
    CHARGE:  cpu time    0.3401: real time    0.3402
    MIXING:  cpu time    0.0077: real time    0.0077
    --------------------------------------------
      LOOP:  cpu time   22.1032: real time   22.1564

 eigenvalue-minimisations  :  4376
 total energy-change (2. order) : 0.1026535E-01  (-0.1687308E-01)
 number of electron     280.0000018 magnetization       0.0000000
 augmentation part       15.2954442 magnetization      -0.0010703

 Broyden mixing:
  rms(total) = 0.83830E-01    rms(broyden)= 0.83806E-01
  rms(prec ) = 0.90362E-01
  weight for this iteration     100.00

 eigenvalues of (default mixing * dielectric matrix)
  average eigenvalue GAMMA=   1.1086
  3.4650  1.6389  0.9768  0.6561  0.6561  0.6879  0.3939  0.3939

 Free energy of the ion-electron system (eV)
  ---------------------------------------------------
  alpha Z        PSCENC =        94.15302032
  Ewald energy   TEWEN  =     21818.67927897
  -Hartree energ DENC   =    -34363.61497980
  -exchange      EXHF   =         0.00000000
  -V(xc)+E(xc)   XCENC  =      1025.93358169
  PAW double counting   =     18206.99030693   -18697.84475621
  entropy T*S    EENTRO =         0.00000000
  eigenvalues    EBANDS =     -3677.19689572
  atomic energy  EATOM  =     15171.73615219
  Solvation  Ediel_sol  =         0.00000000
  ---------------------------------------------------
  free energy    TOTEN  =      -421.16429162 eV

  energy without entropy =     -421.16429162  energy(sigma->0) =     -421.16429162


--------------------------------------------------------------------------------------------------------




--------------------------------------- Iteration      1(  14)  ---------------------------------------


    POTLOK:  cpu time    0.1859: real time    0.1899
    SETDIJ:  cpu time    0.0095: real time    0.0095
     EDDAV:  cpu time   21.3973: real time   21.4418
 BZINTS: Fermi energy: -4.041260;280.000000 electrons
         Band energy:***********;  BLOECHL correction:  0.000000
       DOS:  cpu time    0.0173: real time    0.0173
    CHARGE:  cpu time    0.3310: real time    0.3311
    MIXING:  cpu time    0.0082: real time    0.0083
    --------------------------------------------
      LOOP:  cpu time   21.9493: real time   21.9978

 eigenvalue-minimisations  :  4352
 total energy-change (2. order) : 0.4306639E-02  (-0.5035868E-02)
 number of electron     280.0000018 magnetization       0.0000000
 augmentation part       15.2992188 magnetization      -0.0001971

 Broyden mixing:
  rms(total) = 0.54809E-01    rms(broyden)= 0.54787E-01
  rms(prec ) = 0.60847E-01
  weight for this iteration     100.00

 eigenvalues of (default mixing * dielectric matrix)
  average eigenvalue GAMMA=   1.1837
  3.5570  2.3418  0.9572  0.9572  0.7771  0.6400  0.6400  0.3915  0.3915

 Free energy of the ion-electron system (eV)
  ---------------------------------------------------
  alpha Z        PSCENC =        94.15302032
  Ewald energy   TEWEN  =     21818.67927897
  -Hartree energ DENC   =    -34360.27911697
  -exchange      EXHF   =         0.00000000
  -V(xc)+E(xc)   XCENC  =      1025.77360087
  PAW double counting   =     18230.26180481   -18721.00436888
  entropy T*S    EENTRO =         0.00000000
  eigenvalues    EBANDS =     -3680.48035629
  atomic energy  EATOM  =     15171.73615219
  Solvation  Ediel_sol  =         0.00000000
  ---------------------------------------------------
  free energy    TOTEN  =      -421.15998498 eV

  energy without entropy =     -421.15998498  energy(sigma->0) =     -421.15998498


--------------------------------------------------------------------------------------------------------




--------------------------------------- Iteration      1(  15)  ---------------------------------------


    POTLOK:  cpu time    0.1840: real time    0.1853
    SETDIJ:  cpu time    0.0109: real time    0.0109
     EDDAV:  cpu time   22.2366: real time   22.2813
 BZINTS: Fermi energy: -4.051263;280.000000 electrons
         Band energy:***********;  BLOECHL correction:  0.000000
       DOS:  cpu time    0.0173: real time    0.0173
    CHARGE:  cpu time    0.3357: real time    0.3357
    MIXING:  cpu time    0.0084: real time    0.0084
    --------------------------------------------
      LOOP:  cpu time   22.7929: real time   22.8389

 eigenvalue-minimisations  :  4568
 total energy-change (2. order) :-0.1245030E-02  (-0.6364292E-02)
 number of electron     280.0000018 magnetization      -0.0000000
 augmentation part       15.3056449 magnetization       0.0002425

 Broyden mixing:
  rms(total) = 0.53787E-01    rms(broyden)= 0.53683E-01
  rms(prec ) = 0.70236E-01
  weight for this iteration     100.00

 eigenvalues of (default mixing * dielectric matrix)
  average eigenvalue GAMMA=   1.2083
  3.6394  2.8337  0.9868  0.9868  0.7763  0.7763  0.6496  0.6496  0.3948  0.3897

 Free energy of the ion-electron system (eV)
  ---------------------------------------------------
  alpha Z        PSCENC =        94.15302032
  Ewald energy   TEWEN  =     21818.67927897
  -Hartree energ DENC   =    -34358.64859649
  -exchange      EXHF   =         0.00000000
  -V(xc)+E(xc)   XCENC  =      1025.68054721
  PAW double counting   =     18291.49379783   -18782.18850961
  entropy T*S    EENTRO =         0.00000000
  eigenvalues    EBANDS =     -3682.06692042
  atomic energy  EATOM  =     15171.73615219
  Solvation  Ediel_sol  =         0.00000000
  ---------------------------------------------------
  free energy    TOTEN  =      -421.16123001 eV

  energy without entropy =     -421.16123001  energy(sigma->0) =     -421.16123001


--------------------------------------------------------------------------------------------------------




--------------------------------------- Iteration      1(  16)  ---------------------------------------


    POTLOK:  cpu time    0.1836: real time    0.1947
    SETDIJ:  cpu time    0.0096: real time    0.0096
     EDDAV:  cpu time   21.3091: real time   21.3466
 BZINTS: Fermi energy: -4.050013;280.000000 electrons
         Band energy:***********;  BLOECHL correction:  0.000000
       DOS:  cpu time    0.0171: real time    0.0171
    CHARGE:  cpu time    0.3342: real time    0.3362
    MIXING:  cpu time    0.0087: real time    0.0087
    --------------------------------------------
      LOOP:  cpu time   21.8622: real time   21.9128

 eigenvalue-minimisations  :  4312
 total energy-change (2. order) : 0.5424459E-03  (-0.9500133E-02)
 number of electron     280.0000018 magnetization      -0.0000000
 augmentation part       15.3043567 magnetization       0.0024275

 Broyden mixing:
  rms(total) = 0.44487E-01    rms(broyden)= 0.44316E-01
  rms(prec ) = 0.58152E-01
  weight for this iteration     100.00

 eigenvalues of (default mixing * dielectric matrix)
  average eigenvalue GAMMA=   1.1231
  3.6551  2.8279  0.9623  0.9623  0.8273  0.8150  0.6482  0.6482  0.3927  0.3927
  0.2225

 Free energy of the ion-electron system (eV)
  ---------------------------------------------------
  alpha Z        PSCENC =        94.15302032
  Ewald energy   TEWEN  =     21818.67927897
  -Hartree energ DENC   =    -34358.09450561
  -exchange      EXHF   =         0.00000000
  -V(xc)+E(xc)   XCENC  =      1025.65625293
  PAW double counting   =     18316.12962486   -18806.76272026
  entropy T*S    EENTRO =         0.00000000
  eigenvalues    EBANDS =     -3682.65779095
  atomic energy  EATOM  =     15171.73615219
  Solvation  Ediel_sol  =         0.00000000
  ---------------------------------------------------
  free energy    TOTEN  =      -421.16068756 eV

  energy without entropy =     -421.16068756  energy(sigma->0) =     -421.16068756


--------------------------------------------------------------------------------------------------------




--------------------------------------- Iteration      1(  17)  ---------------------------------------


    POTLOK:  cpu time    0.1877: real time    0.1921
    SETDIJ:  cpu time    0.0096: real time    0.0096
     EDDAV:  cpu time   20.5424: real time   20.5588
 BZINTS: Fermi energy: -4.046262;280.000000 electrons
         Band energy:***********;  BLOECHL correction:  0.000000
       DOS:  cpu time    0.0174: real time    0.0174
    CHARGE:  cpu time    0.3251: real time    0.3251
    MIXING:  cpu time    0.0087: real time    0.0087
    --------------------------------------------
      LOOP:  cpu time   21.0910: real time   21.1118

 eigenvalue-minimisations  :  4104
 total energy-change (2. order) : 0.9771783E-03  (-0.1768167E-02)
 number of electron     280.0000018 magnetization      -0.0000000
 augmentation part       15.3045209 magnetization       0.0034257

 Broyden mixing:
  rms(total) = 0.29042E-01    rms(broyden)= 0.29005E-01
  rms(prec ) = 0.30543E-01
  weight for this iteration     100.00

 eigenvalues of (default mixing * dielectric matrix)
  average eigenvalue GAMMA=   1.1458
  3.7340  2.9826  0.7094  1.0869  1.0042  1.0042  0.6612  0.6612  0.6529  0.3734
  0.4600  0.4189

 Free energy of the ion-electron system (eV)
  ---------------------------------------------------
  alpha Z        PSCENC =        94.15302032
  Ewald energy   TEWEN  =     21818.67927897
  -Hartree energ DENC   =    -34358.02585586
  -exchange      EXHF   =         0.00000000
  -V(xc)+E(xc)   XCENC  =      1025.65730973
  PAW double counting   =     18322.42698968   -18813.07240983
  entropy T*S    EENTRO =         0.00000000
  eigenvalues    EBANDS =     -3682.71419559
  atomic energy  EATOM  =     15171.73615219
  Solvation  Ediel_sol  =         0.00000000
  ---------------------------------------------------
  free energy    TOTEN  =      -421.15971038 eV

  energy without entropy =     -421.15971038  energy(sigma->0) =     -421.15971038


--------------------------------------------------------------------------------------------------------




--------------------------------------- Iteration      1(  18)  ---------------------------------------


    POTLOK:  cpu time    0.1827: real time    0.1872
    SETDIJ:  cpu time    0.0094: real time    0.0094
     EDDAV:  cpu time   20.6492: real time   20.6714
 BZINTS: Fermi energy: -4.046262;280.000000 electrons
         Band energy:***********;  BLOECHL correction:  0.000000
       DOS:  cpu time    0.0177: real time    0.0177
    CHARGE:  cpu time    0.3339: real time    0.3339
    MIXING:  cpu time    0.0092: real time    0.0092
    --------------------------------------------
      LOOP:  cpu time   21.2020: real time   21.2288

 eigenvalue-minimisations  :  4160
 total energy-change (2. order) : 0.1346917E-02  (-0.5188678E-03)
 number of electron     280.0000018 magnetization      -0.0000000
 augmentation part       15.3041874 magnetization       0.0020208

 Broyden mixing:
  rms(total) = 0.20047E-01    rms(broyden)= 0.20030E-01
  rms(prec ) = 0.21292E-01
  weight for this iteration     100.00

 eigenvalues of (default mixing * dielectric matrix)
  average eigenvalue GAMMA=   1.1146
  3.7023  2.8709  0.8757  1.1415  1.0209  1.0209  0.6634  0.6634  0.6293  0.6293
  0.3750  0.4120  0.4846

 Free energy of the ion-electron system (eV)
  ---------------------------------------------------
  alpha Z        PSCENC =        94.15302032
  Ewald energy   TEWEN  =     21818.67927897
  -Hartree energ DENC   =    -34357.90738710
  -exchange      EXHF   =         0.00000000
  -V(xc)+E(xc)   XCENC  =      1025.65068530
  PAW double counting   =     18324.47878073   -18815.12222975
  entropy T*S    EENTRO =         0.00000000
  eigenvalues    EBANDS =     -3682.82666414
  atomic energy  EATOM  =     15171.73615219
  Solvation  Ediel_sol  =         0.00000000
  ---------------------------------------------------
  free energy    TOTEN  =      -421.15836347 eV

  energy without entropy =     -421.15836347  energy(sigma->0) =     -421.15836347


--------------------------------------------------------------------------------------------------------




--------------------------------------- Iteration      1(  19)  ---------------------------------------


    POTLOK:  cpu time    0.1829: real time    0.1920
    SETDIJ:  cpu time    0.0094: real time    0.0094
     EDDAV:  cpu time   19.3346: real time   19.3677
 BZINTS: Fermi energy: -4.046262;280.000000 electrons
         Band energy:***********;  BLOECHL correction:  0.000000
       DOS:  cpu time    0.0180: real time    0.0180
    CHARGE:  cpu time    0.3331: real time    0.3332
    MIXING:  cpu time    0.0095: real time    0.0095
    --------------------------------------------
      LOOP:  cpu time   19.8875: real time   19.9298

 eigenvalue-minimisations  :  3800
 total energy-change (2. order) : 0.3276324E-03  (-0.3850365E-03)
 number of electron     280.0000018 magnetization       0.0000000
 augmentation part       15.3039582 magnetization       0.0004619

 Broyden mixing:
  rms(total) = 0.11700E-01    rms(broyden)= 0.11643E-01
  rms(prec ) = 0.12593E-01
  weight for this iteration     100.00

 eigenvalues of (default mixing * dielectric matrix)
  average eigenvalue GAMMA=   1.1837
  3.7810  2.4788  2.4788  0.8784  1.0016  1.0016  0.9972  0.6695  0.6695  0.6770
  0.6770  0.3746  0.4136  0.4730

 Free energy of the ion-electron system (eV)
  ---------------------------------------------------
  alpha Z        PSCENC =        94.15302032
  Ewald energy   TEWEN  =     21818.67927897
  -Hartree energ DENC   =    -34358.10561918
  -exchange      EXHF   =         0.00000000
  -V(xc)+E(xc)   XCENC  =      1025.66332978
  PAW double counting   =     18320.67010670   -18811.32371509
  entropy T*S    EENTRO =         0.00000000
  eigenvalues    EBANDS =     -3682.63058953
  atomic energy  EATOM  =     15171.73615219
  Solvation  Ediel_sol  =         0.00000000
  ---------------------------------------------------
  free energy    TOTEN  =      -421.15803583 eV

  energy without entropy =     -421.15803583  energy(sigma->0) =     -421.15803583


--------------------------------------------------------------------------------------------------------




--------------------------------------- Iteration      1(  20)  ---------------------------------------


    POTLOK:  cpu time    0.1865: real time    0.1958
[...]
   -.111E+02 0.380E+02 0.133E+03   0.118E+02 -.389E+02 -.134E+03   -.489E+00 0.125E+01 0.133E+01   0.214E-02 -.248E-02 0.193E-03
   -.445E+02 -.118E+02 0.647E+02   0.454E+02 0.123E+02 -.646E+02   -.175E+01 -.721E+00 0.613E+00   0.138E-03 -.103E-02 -.778E-04
   0.287E+02 -.243E+02 -.247E+02   -.294E+02 0.189E+02 0.230E+02   0.391E+00 0.328E+01 0.600E+00   -.414E-02 0.277E-02 -.237E-02
   0.224E+02 -.954E+01 -.332E+02   -.170E+02 0.129E+02 0.326E+02   -.341E+01 -.173E+01 0.286E+00   -.463E-02 0.105E-02 0.884E-03
   -.869E+01 0.173E+01 -.407E+02   0.328E+01 0.158E+01 0.401E+02   0.337E+01 -.166E+01 -.140E-01   0.287E-02 -.255E-02 -.408E-03
   -.175E+02 0.127E+02 -.482E+02   0.177E+02 -.111E+02 0.489E+02   0.964E+00 -.146E+01 -.141E+01   0.308E-02 0.481E-03 -.162E-02
   -.250E+01 0.139E+02 0.329E+02   0.246E+01 -.149E+02 -.319E+02   -.486E-01 0.233E+01 -.200E+00   -.154E-03 0.627E-02 0.127E-02
   0.228E+02 0.118E+02 -.454E+02   -.228E+02 -.991E+01 0.452E+02   -.104E+01 -.162E+01 -.119E+01   -.790E-02 -.360E-02 -.410E-02
   -.255E+01 -.156E+02 -.828E+01   0.253E+01 0.984E+01 0.104E+02   -.119E+00 0.365E+01 -.106E+01   0.290E-02 0.474E-02 -.126E-02
   0.311E+02 0.223E+02 0.128E+03   -.262E+02 -.195E+02 -.128E+03   -.280E+01 -.181E+01 0.740E+00   -.161E-02 -.335E-02 -.316E-02
   -.134E+02 0.182E+02 0.588E+02   0.833E+01 -.152E+02 -.574E+02   0.304E+01 -.138E+01 -.787E+00   0.886E-02 -.461E-02 -.170E-02
   0.461E+02 -.108E+02 0.445E+02   -.470E+02 0.114E+02 -.443E+02   0.184E+01 -.678E+00 0.339E+00   -.173E-02 -.554E-03 -.446E-04
   0.339E+01 0.535E+02 0.142E+03   -.412E+01 -.544E+02 -.142E+03   0.157E+00 0.156E+01 0.119E+01   -.722E-02 -.274E-02 0.258E-02
   -.457E+02 -.414E+02 -.666E+02   0.464E+02 0.419E+02 0.665E+02   -.172E+01 -.963E+00 -.476E+00   -.508E-03 0.359E-02 -.157E-02
   -.242E+02 -.235E+02 -.952E+02   0.247E+02 0.183E+02 0.940E+02   0.163E-01 0.294E+01 0.812E-01   0.279E-02 0.813E-02 -.943E-03
   0.111E+02 0.925E+00 -.744E+02   -.568E+01 0.227E+01 0.731E+02   -.312E+01 -.155E+01 0.153E+00   -.351E-02 -.309E-03 0.115E-03
   -.244E+02 -.630E+01 -.607E+02   0.190E+02 0.969E+01 0.590E+02   0.308E+01 -.172E+01 0.763E+00   0.423E-02 0.219E-02 0.175E-02
   0.517E+02 -.495E+02 0.919E+02   -.532E+02 0.496E+02 -.915E+02   0.163E+01 -.124E+01 0.387E-01   -.294E-02 -.543E-02 0.165E-03
   -.727E+01 0.307E+02 -.128E+03   0.720E+01 -.321E+02 0.128E+03   0.155E-01 0.215E+01 -.127E+01   0.583E-03 -.566E-03 -.108E-02
   -.595E+02 -.181E+02 -.414E+02   0.608E+02 0.182E+02 0.416E+02   -.184E+01 -.429E+00 -.629E+00   0.301E-02 0.124E-03 0.215E-03
   -.103E+02 0.280E+02 0.111E+03   0.104E+02 -.286E+02 -.112E+03   -.270E+00 0.134E+00 0.173E+01   -.632E-02 -.331E-02 -.703E-02
   -.133E+03 -.188E+02 0.150E+03   0.158E+03 0.327E+02 -.159E+03   -.285E+02 -.159E+02 0.113E+02   0.295E-03 -.457E-02 0.122E-02
   0.106E+03 -.106E+03 -.160E+03   -.131E+03 0.119E+03 0.169E+03   0.285E+02 -.149E+02 -.112E+02   0.147E-02 0.236E-02 -.184E-02
   0.185E+01 0.117E+03 0.264E+03   0.214E+00 -.140E+03 -.283E+03   -.267E+01 0.267E+02 0.215E+02   0.673E-02 -.391E-02 0.111E-02
   -.287E+02 0.965E+02 0.277E+03   0.259E+02 -.118E+03 -.298E+03   0.267E+01 0.243E+02 0.237E+02   0.386E-02 -.507E-02 -.203E-02
   0.131E+03 -.668E+02 -.768E+02   -.156E+03 0.835E+02 0.767E+02   0.277E+02 -.195E+02 -.539E+00   0.485E-02 -.976E-03 -.832E-03
   -.986E+02 -.554E+02 0.170E+03   0.123E+03 0.625E+02 -.186E+03   -.276E+02 -.821E+01 0.187E+02   -.610E-03 -.223E-03 0.137E-02
   -.320E+01 0.305E-01 -.166E+02   0.328E+01 0.192E+00 0.175E+02   -.160E+00 -.124E+00 -.108E+01   0.585E-03 -.153E-03 -.116E-02
   0.121E+02 -.171E+02 -.639E+02   -.125E+02 0.173E+02 0.686E+02   0.127E+00 -.375E+00 -.512E+01   -.277E-02 -.326E-03 0.407E-03
   0.173E+01 -.431E+02 -.204E+03   0.156E+02 0.530E+02 0.222E+03   -.194E+02 -.116E+02 -.219E+02   -.720E-02 -.477E-03 -.727E-02
   0.315E+01 0.476E+02 -.502E+02   -.191E+02 -.439E+02 0.594E+02   0.188E+02 -.393E+01 -.105E+02   0.401E-02 0.570E-03 -.219E-02
   -.116E+02 0.739E+02 0.835E+02   0.143E+02 -.102E+03 -.918E+02   -.321E+01 0.316E+02 0.991E+01   0.677E-03 0.669E-02 0.329E-02
   -.300E-01 0.716E+02 0.928E+02   -.184E+01 -.993E+02 -.101E+03   0.225E+01 0.315E+02 0.100E+02   -.129E-02 0.559E-02 0.253E-02
   0.246E+02 -.419E+02 -.223E+03   -.454E+02 0.523E+02 0.237E+03   0.233E+02 -.122E+02 -.172E+02   0.268E-02 0.451E-02 -.604E-02
   0.527E+00 0.541E+02 -.720E+02   0.140E+02 -.509E+02 0.842E+02   -.170E+02 -.321E+01 -.142E+02   -.132E-01 -.494E-02 -.721E-02
   0.361E+02 0.125E+02 0.490E+02   -.396E+02 -.150E+02 -.482E+02   0.475E+01 0.313E+01 -.463E+00   -.992E-02 -.664E-02 0.104E-02
   0.987E+01 0.263E+02 0.982E+02   -.117E+02 -.282E+02 -.103E+03   0.195E+01 0.208E+01 0.551E+01   0.106E-01 -.349E-02 -.549E-02
   -.129E+03 -.702E+02 -.838E+02   0.153E+03 0.863E+02 0.841E+02   -.283E+02 -.188E+02 -.759E+00   -.474E-03 0.265E-02 -.197E-02
   0.101E+03 -.470E+02 0.132E+03   -.126E+03 0.536E+02 -.146E+03   0.288E+02 -.765E+01 0.165E+02   -.565E-03 0.248E-02 0.134E-02
   0.107E+02 0.112E+03 0.285E+03   -.601E+01 -.135E+03 -.305E+03   -.480E+01 0.250E+02 0.226E+02   -.588E-02 -.718E-03 0.737E-03
   0.417E+01 0.161E+03 0.240E+03   -.560E+01 -.189E+03 -.249E+03   0.219E+01 0.323E+02 0.105E+02   -.568E-03 0.499E-02 0.368E-02
   0.133E+03 -.195E+02 0.906E+02   -.159E+03 0.344E+02 -.950E+02   0.293E+02 -.172E+02 0.530E+01   -.263E-02 -.685E-03 0.129E-02
   -.963E+02 -.109E+03 -.196E+03   0.120E+03 0.121E+03 0.208E+03   -.270E+02 -.148E+02 -.144E+02   -.884E-03 0.447E-02 -.222E-02
   0.564E+00 -.240E+02 -.886E+01   -.453E+00 0.250E+02 0.666E+01   -.109E+00 -.139E+01 0.257E+01   0.282E-03 0.661E-02 -.739E-03
   -.118E+02 -.185E+02 -.125E+03   0.119E+02 0.200E+02 0.131E+03   0.220E+00 -.172E+01 -.697E+01   0.130E-02 0.328E-02 0.154E-02
   -.154E+03 -.433E+02 -.629E+02   0.179E+03 0.591E+02 0.630E+02   -.287E+02 -.179E+02 -.343E+00   0.315E-02 0.220E-02 -.514E-03
   0.122E+03 -.100E+03 0.205E+03   -.147E+03 0.113E+03 -.210E+03   0.298E+02 -.143E+02 0.746E+01   0.744E-02 -.544E-02 0.185E-02
   0.127E+01 0.100E+03 -.258E+03   0.254E+01 -.123E+03 0.277E+03   -.441E+01 0.262E+02 -.217E+02   0.270E-03 -.113E-02 -.288E-02
   -.249E+02 0.769E+02 -.290E+03   0.235E+02 -.982E+02 0.312E+03   0.160E+01 0.238E+02 -.249E+02   0.672E-03 -.524E-03 -.327E-02
   0.130E+03 -.864E+02 0.157E+03   -.150E+03 0.106E+03 -.168E+03   0.226E+02 -.215E+02 0.126E+02   -.403E-03 -.333E-02 0.403E-03
   -.114E+03 -.500E+02 -.125E+03   0.140E+03 0.570E+02 0.137E+03   -.300E+02 -.764E+01 -.140E+02   0.668E-02 -.156E-02 -.150E-02
   -.340E+02 0.149E+02 0.294E+02   0.363E+02 -.165E+02 -.310E+02   -.324E+01 0.218E+01 0.232E+01   0.493E-02 -.107E-02 0.511E-03
   0.312E+02 -.842E+02 -.667E+03   -.317E+02 0.919E+02 0.676E+03   0.600E+00 -.924E+01 -.102E+02   -.993E-03 0.250E-02 -.343E-02
   -.468E+02 -.107E+03 0.102E+03   0.507E+02 0.115E+03 -.113E+03   -.717E+01 -.162E+02 0.189E+02   -.358E-03 -.183E-03 0.107E-02
   0.404E+02 0.911E+02 -.605E+02   -.495E+02 -.112E+03 0.846E+02   0.124E+02 0.281E+02 -.328E+02   0.103E-03 0.135E-02 -.109E-02
 -----------------------------------------------------------------------------------------------
   -.473E+01 -.206E+02 0.987E+01   -.711E-14 -.284E-12 -.853E-13   0.473E+01 0.206E+02 -.981E+01   -.527E-02 0.441E-03 -.595E-01


 POSITION                                       TOTAL-FORCE (eV/Angst)
 -----------------------------------------------------------------------------------
     -0.01765      2.92285      7.72401         0.013768     -2.423541      0.876968
      1.44032      5.43697      7.84249         2.602161      0.360150      0.523589
     -1.50437      5.38324      7.73858        -2.608894      0.338114      0.155522
      6.78580      0.78032      9.12637         0.912361     -0.319275     -0.572182
      4.11590      5.43550      7.47729         0.279989      0.405110      1.041020
      1.39936      0.70260      8.11725        -0.865594     -0.159524      0.625900
     -4.24022      9.80291      8.74064        -0.255528     -2.070955     -1.122452
     -2.62495     12.21917      9.04685         2.048604      1.617245     -0.363160
     -5.52577     12.33183      8.99241        -2.044032      1.651391     -0.525607
      2.83890      7.46550      9.05929         1.240463      0.089093     -0.723114
      0.04651     12.11581      8.83036        -0.091254      1.338802      0.830723
     -3.00803      7.46166      8.68347        -1.065579      0.253000     -1.402188
      8.24415      2.93778      8.54246        -0.130761     -2.066083      1.025153
      9.56258      5.20214      7.25351         2.096784      1.035400      0.457434
      6.74998      5.30441      7.88326        -2.057196      1.634021      0.685267
     14.92008      0.51027      8.32998         0.969494     -0.070369      0.517186
     12.20984      5.12249      7.14727        -0.579819      0.589660      0.987466
      9.63768      0.76487      9.23855        -1.019231     -0.474723     -0.515506
      4.20856      9.67656      9.57869         0.518096     -2.316396     -1.148966
      5.57378     12.20488      9.43057         2.273189      1.641834     -1.203137
      2.66594     12.17938      9.40308        -2.241684      1.663707     -0.906589
     10.73067      7.55610      7.61861         0.115958     -1.217019      0.468114
      8.22481     12.22921      9.63915        -0.047579      0.742662     -1.279469
      5.61896      7.51458      8.84612        -0.581552     -0.364970     -0.386110
     -0.01694      4.59183      7.69859        -0.190601     -0.478811      0.322891
      1.37632      2.18436      7.62644        -3.303076     -2.053077      1.728218
      5.47823     -0.05075      9.41778         3.247816     -1.897857     -2.140646
      5.48085      4.74900      7.12083        -0.596604      3.051070      3.139659
      2.68461      4.90082      7.07422        -0.103338      2.503254      3.370108
      6.81653      2.32519      8.90438         3.257531     -2.920270     -0.622708
     -5.47847     13.60202      8.08141        -3.342380     -1.133913      2.886392
      0.01985      0.02524      8.72189        -0.075347      0.098090     -0.184708
     -4.09670     11.42868      9.03018        -0.281353     -0.156973     -0.506580
     -3.08126      8.87475      9.34044        -2.124519     -1.682929     -3.601265
      1.43966      6.70309      8.87604         2.869376     -0.232013     -1.356906
      1.42922     11.35187      8.84369        -0.482364      3.748194      1.614901
     -1.33282     11.37003      8.66051         0.380660      3.775801      1.639236
      2.85876      8.83074      9.81915         2.546405     -1.871821     -3.172000
     -1.63494      6.64258      8.76215        -2.573060     -0.044329     -2.038018
     12.09489      6.62189      7.89258         1.241737      0.623109      0.433932
      8.20499      4.40602      7.77451         0.154704      0.201881      0.596861
      9.64908      2.30377      8.94130        -3.370919     -2.678044     -0.446248
      5.45743     13.42404      8.45652         3.521064     -0.995469      2.663068
     -2.66392      4.80142      6.88039        -0.116021      2.738489      3.360965
     10.86942      4.36947      6.89325         0.766637      4.114185      2.118489
     14.90513      1.99862      7.87741         3.436685     -2.296556      0.997364
     10.88328     -0.07817      9.72440        -2.944466     -1.896812     -2.423896
      8.21511     -0.06004      8.99566         0.002022     -0.366466      0.369630
      4.11918     11.33527      9.63092         0.308711     -0.264016     -0.708313
      5.59657      9.03231      9.24621        -3.653402     -2.109300     -0.241143
      9.45450      6.80491      7.18031         4.083406     -1.141523      2.207146
     -6.70813     11.76804      9.88718        -0.595833      3.025473     -3.109300
      6.85200     11.67113     10.19467         0.175429      2.389032     -3.656275
     -5.46234      9.34551      7.86721         3.068338     -2.358256      1.956104
      6.89172      6.62955      8.73922        -3.976163     -0.723350     -2.126141
      4.16152      6.81114      8.44434        -0.934364      0.615542      0.765607
     -0.15805      8.11742     10.04856         0.121222     -1.460009     -1.885799
     -0.15805      8.11742     17.10496        -3.287956     -7.434100      8.654088
     -0.53685      7.26093      0.40246         3.287861      7.434439     -8.650576
 -----------------------------------------------------------------------------------
    total drift:                                0.002727      0.008776      0.000425


--------------------------------------------------------------------------------------------------------



  FREE ENERGIE OF THE ION-ELECTRON SYSTEM (eV)
  ---------------------------------------------------
  free  energy   TOTEN  =      -424.27640077 eV

  energy  without entropy=     -424.27640077  energy(sigma->0) =     -424.27640077



--------------------------------------------------------------------------------------------------------


    POTLOK:  cpu time    0.1800: real time    0.1814


--------------------------------------------------------------------------------------------------------


     LOOP+:  cpu time  489.1711: real time  490.1398
    4ORBIT:  cpu time    0.0000: real time    0.0000



 total charge     

# of ion       s       p       d       tot
------------------------------------------
    1        0.807   1.310   0.000   2.117
    2        0.804   1.298   0.000   2.102
    3        0.804   1.302   0.000   2.106
    4        0.822   1.308   0.000   2.130
    5        0.818   1.307   0.000   2.125
    6        0.822   1.314   0.000   2.136
    7        0.807   1.306   0.000   2.113
    8        0.809   1.301   0.000   2.111
    9        0.811   1.305   0.000   2.115
   10        0.815   1.329   0.000   2.145
   11        0.821   1.311   0.000   2.133
   12        0.815   1.336   0.000   2.151
   13        0.810   1.301   0.000   2.111
   14        0.806   1.309   0.000   2.115
   15        0.804   1.310   0.000   2.114
   16        0.821   1.317   0.000   2.139
   17        0.817   1.314   0.000   2.131
   18        0.821   1.306   0.000   2.127
   19        0.810   1.303   0.000   2.113
   20        0.812   1.302   0.000   2.114
   21        0.811   1.296   0.000   2.107
   22        0.823   1.307   0.000   2.130
   23        0.824   1.299   0.000   2.123
   24        0.820   1.319   0.000   2.139
   25        1.190   2.303   0.000   3.492
   26        1.291   2.223   0.000   3.514
   27        1.288   2.223   0.000   3.512
   28        1.294   2.202   0.000   3.496
   29        1.289   2.216   0.000   3.505
   30        1.290   2.219   0.000   3.509
   31        1.293   2.221   0.000   3.514
   32        1.222   2.316   0.000   3.538
   33        1.191   2.315   0.000   3.506
   34        1.280   2.243   0.000   3.523
   35        1.253   2.256   0.000   3.509
   36        1.290   2.220   0.000   3.510
   37        1.288   2.222   0.000   3.510
   38        1.281   2.235   0.000   3.516
   39        1.253   2.260   0.000   3.513
   40        1.218   2.329   0.000   3.547
   41        1.194   2.301   0.000   3.495
   42        1.292   2.211   0.000   3.503
   43        1.291   2.225   0.000   3.516
   44        1.289   2.217   0.000   3.506
   45        1.293   2.207   0.000   3.500
   46        1.290   2.227   0.000   3.517
   47        1.290   2.217   0.000   3.507
   48        1.221   2.318   0.000   3.538
   49        1.200   2.288   0.000   3.488
   50        1.287   2.228   0.000   3.515
   51        1.291   2.219   0.000   3.509
   52        1.295   2.205   0.000   3.500
   53        1.295   2.207   0.000   3.502
   54        1.290   2.214   0.000   3.503
   55        1.294   2.215   0.000   3.509
   56        1.218   2.325   0.000   3.544
   57        1.367   0.522   9.981  11.870
   58        1.025   1.087   0.000   2.111
   59        1.617   3.263   0.000   4.880
--------------------------------------------------
tot         64.080 108.108   9.981 182.170



 magnetization (x)

# of ion       s       p       d       tot
------------------------------------------
    1       -0.000  -0.000   0.000  -0.000
    2       -0.000  -0.000   0.000  -0.000
    3        0.000   0.000   0.000   0.000
    4       -0.000  -0.000   0.000  -0.000
    5       -0.000  -0.000   0.000  -0.000
    6       -0.000  -0.000   0.000  -0.000
    7        0.000  -0.000   0.000  -0.000
    8        0.000  -0.000   0.000  -0.000
    9       -0.000  -0.000   0.000  -0.000
   10        0.000   0.000   0.000   0.000
   11        0.000   0.000   0.000   0.000
   12       -0.000   0.000   0.000   0.000
   13       -0.000  -0.000   0.000  -0.000
   14       -0.000  -0.001   0.000  -0.001
   15       -0.000  -0.001   0.000  -0.001
   16       -0.000  -0.000   0.000  -0.000
   17       -0.000  -0.000   0.000  -0.000
   18       -0.000  -0.000   0.000  -0.000
   19       -0.000  -0.000   0.000  -0.000
   20       -0.000  -0.000   0.000  -0.000
   21       -0.000  -0.000   0.000  -0.000
   22       -0.000  -0.000   0.000  -0.000
   23       -0.000  -0.000   0.000  -0.000
   24       -0.000  -0.000   0.000  -0.000
   25        0.000   0.000   0.000   0.000
   26       -0.000  -0.000   0.000  -0.000
   27       -0.000  -0.000   0.000  -0.000
   28        0.000   0.000   0.000   0.000
   29        0.000   0.000   0.000   0.000
   30       -0.000  -0.000   0.000  -0.000
   31       -0.000  -0.000   0.000  -0.000
   32        0.000  -0.000   0.000  -0.000
   33        0.000   0.000   0.000   0.000
   34        0.000  -0.000   0.000  -0.000
   35       -0.000  -0.000   0.000  -0.000
   36        0.000  -0.000   0.000  -0.000
   37        0.000  -0.000   0.000   0.000
   38       -0.000  -0.000   0.000  -0.000
   39       -0.000  -0.000   0.000  -0.000
   40       -0.000  -0.000   0.000  -0.000
   41       -0.000   0.000   0.000   0.000
   42       -0.000   0.000   0.000   0.000
   43       -0.000   0.000   0.000   0.000
   44       -0.000  -0.000   0.000  -0.000
   45       -0.000  -0.000   0.000  -0.000
   46       -0.000   0.000   0.000  -0.000
   47       -0.000   0.000   0.000   0.000
   48       -0.000  -0.000   0.000  -0.000
   49       -0.000   0.000   0.000   0.000
   50       -0.000   0.000   0.000   0.000
   51       -0.000  -0.000   0.000  -0.000
   52       -0.000  -0.000   0.000  -0.000
   53       -0.000  -0.000   0.000  -0.000
   54       -0.000  -0.000   0.000  -0.000
   55       -0.000   0.000   0.000   0.000
   56       -0.000  -0.001   0.000  -0.001
   57        0.000   0.003   0.000   0.003
   58       -0.000   0.000   0.000   0.000
   59       -0.000  -0.000   0.000  -0.000
--------------------------------------------------
tot         -0.000  -0.001   0.000  -0.002

 BZINTS: Fermi energy: -4.046262;280.000000 electrons
         Band energy:***********;  BLOECHL correction:  0.000000

 total amount of memory used by VASP MPI-rank0   133645. kBytes
=======================================================================

   base      :      30000. kBytes
   nonl-proj :      31462. kBytes
   fftplans  :       5963. kBytes
   grid      :      18071. kBytes
   one-center:        155. kBytes
   wavefun   :      47994. kBytes

  
  
 General timing and accounting informations for this job:
 ========================================================
  
                  Total CPU time used (sec):      504.777
                            User time (sec):      503.442
                          System time (sec):        1.335
                         Elapsed time (sec):      506.252
  
                   Maximum memory used (kb):      199912.
                   Average memory used (kb):           0.
  
                          Minor page faults:       112561
                          Major page faults:            4
                 Voluntary context switches:         1237
