       N       E                     dE             d eps       ncg     rms          rms(c)
DAV:   1     0.252672127317E+04    0.25267E+04   -0.11182E+05  4360   0.106E+03
DAV:   2    -0.242679758845E+03   -0.27694E+04   -0.26450E+04  5496   0.280E+02
DAV:   3    -0.702604133311E+03   -0.45992E+03   -0.45658E+03  4584   0.120E+02
DAV:   4    -0.719197933178E+03   -0.16594E+02   -0.16452E+02  4632   0.280E+01
DAV:   5    -0.719736252258E+03   -0.53832E+00   -0.53658E+00  5208   0.426E+00    0.477E+01
DAV:   6    -0.719692752395E+03    0.43500E-01   -0.88434E+01  4896   0.275E+01    0.163E+02
DAV:   7    -0.700087239860E+03    0.19606E+02   -0.38089E+01  5144   0.214E+01    0.548E+01
DAV:   8    -0.677293834575E+03    0.22793E+02   -0.53853E+01  4984   0.555E+01    0.299E+01
DAV:   9    -0.665406182897E+03    0.11888E+02   -0.29917E+01  4608   0.183E+01    0.228E+01
DAV:  10    -0.662693872567E+03    0.27123E+01   -0.30590E+01  5056   0.174E+01    0.160E+01
DAV:  11    -0.661820037418E+03    0.87384E+00   -0.63848E+00  4784   0.715E+00    0.106E+01
DAV:  12    -0.661732737760E+03    0.87300E-01   -0.13155E+00  4720   0.285E+00    0.822E+00
DAV:  13    -0.661994067126E+03   -0.26133E+00   -0.38288E-01  4688   0.160E+00    0.670E+00
DAV:  14    -0.661899587491E+03    0.94480E-01   -0.94159E-01  4648   0.171E+00    0.442E+00
DAV:  15    -0.661936671516E+03   -0.37084E-01   -0.11976E-01  4440   0.856E-01    0.370E+00
DAV:  16    -0.661946765230E+03   -0.10094E-01   -0.25573E-02  4656   0.392E-01    0.352E+00
DAV:  17    -0.661943323658E+03    0.34416E-02   -0.71416E-03  4792   0.216E-01    0.323E+00
DAV:  18    -0.661931881410E+03    0.11442E-01   -0.55658E-03  4856   0.245E-01    0.285E+00
DAV:  19    -0.661926994395E+03    0.48870E-02   -0.45449E-03  5016   0.207E-01    0.250E+00
DAV:  20    -0.661926112903E+03    0.88149E-03   -0.37209E-03  4656   0.156E-01    0.204E+00
DAV:  21    -0.661926133868E+03   -0.20965E-04   -0.59207E-04  3440   0.588E-02
   1 F= -.66835176E+03 E0= -.66835176E+03  d E =0.000000E+00  mag=    -1.0014
