       N       E                     dE             d eps       ncg     rms          ort
DAV:   1     0.258271252721E+04    0.25827E+04   -0.11628E+05   688   0.133E+03
DAV:   2    -0.104311849515E+03   -0.26870E+04   -0.25991E+04   688   0.331E+02
DAV:   3    -0.503580981116E+03   -0.39927E+03   -0.39509E+03   688   0.150E+02
DAV:   4    -0.519591991456E+03   -0.16011E+02   -0.15744E+02   688   0.409E+01
DAV:   5    -0.520133524413E+03   -0.54153E+00   -0.53832E+00   688   0.573E+00
SDA:   6    -0.442580672816E+03    0.77553E+02   -0.53832E+00   688   0.196E+03 0.000E+00
CGA:   7    -0.479428919931E+03   -0.36848E+02   -0.36799E+02   688   0.192E+02-0.118E+01
CGA:   8    -0.483828093836E+03   -0.43992E+01   -0.43933E+01   688   0.476E+01 0.138E+00
CGA:   9    -0.484961536092E+03   -0.11334E+01   -0.11331E+01   688   0.168E+01 0.703E-02
CGA:  10    -0.485427164304E+03   -0.46563E+00   -0.46683E+00   688   0.605E+00-0.131E-01
CGA:  11    -0.485595624598E+03   -0.16846E+00   -0.16870E+00   688   0.202E+00-0.254E-02
CGA:  12    -0.485655802269E+03   -0.60178E-01   -0.60215E-01   688   0.686E-01-0.312E-03
CGA:  13    -0.485677738797E+03   -0.21937E-01   -0.21945E-01   688   0.236E-01-0.553E-04
CGA:  14    -0.485685711368E+03   -0.79726E-02   -0.79786E-02   688   0.836E-02-0.475E-04
CGA:  15    -0.485688676411E+03   -0.29650E-02   -0.29693E-02   688   0.303E-02-0.323E-04
CGA:  16    -0.485689833695E+03   -0.11573E-02   -0.11602E-02   688   0.116E-02-0.189E-04
CGA:  17    -0.485690292865E+03   -0.45917E-03   -0.46018E-03   688   0.455E-03-0.637E-05
CGA:  18    -0.485690473271E+03   -0.18041E-03   -0.18091E-03   688   0.174E-03-0.329E-05
CGA:  19    -0.485690540343E+03   -0.67072E-04   -0.67422E-04   688   0.633E-04-0.257E-05
   1 F= -.49014178E+03 E0= -.49014178E+03  d E =-.490142E+03  mag=     0.0000
       N       E                     dE             d eps       ncg     rms          ort
SDA:   1    -0.485610863710E+03    0.79610E-01    0.00000E+00   688   0.186E+00 0.000E+00
CGA:   2    -0.485669310656E+03   -0.58447E-01   -0.58430E-01   688   0.714E-01 0.237E-03
CGA:   3    -0.485685796910E+03   -0.16486E-01   -0.16484E-01   688   0.158E-01-0.176E-04
CGA:   4    -0.485688974300E+03   -0.31774E-02   -0.31773E-02   688   0.304E-02-0.455E-05
CGA:   5    -0.485689704931E+03   -0.73063E-03   -0.73056E-03   688   0.747E-03-0.333E-05
CGA:   6    -0.485689901094E+03   -0.19616E-03   -0.19616E-03   688   0.251E-03-0.303E-06
CGA:   7    -0.485689977703E+03   -0.76609E-04   -0.76606E-04   688   0.111E-03 0.555E-07
   2 F= -.49014102E+03 E0= -.49014102E+03  d E =0.763130E-03  mag=     0.0000
       N       E                     dE             d eps       ncg     rms          ort
SDA:   1    -0.485668872681E+03    0.21028E-01    0.00000E+00   688   0.557E-01 0.000E+00
CGA:   2    -0.485686300444E+03   -0.17428E-01   -0.17430E-01   688   0.216E-01-0.347E-04
CGA:   3    -0.485691265561E+03   -0.49651E-02   -0.49655E-02   688   0.481E-02 0.523E-07
CGA:   4    -0.485692229479E+03   -0.96392E-03   -0.96410E-03   688   0.970E-03 0.335E-05
CGA:   5    -0.485692435235E+03   -0.20576E-03   -0.20587E-03   688   0.257E-03 0.220E-05
CGA:   6    -0.485692493180E+03   -0.57944E-04   -0.57966E-04   688   0.741E-04 0.590E-06
   3 F= -.49014365E+03 E0= -.49014365E+03  d E =-.186364E-02  mag=     0.0000
       N       E                     dE             d eps       ncg     rms          ort
SDA:   1    -0.485652125172E+03    0.40310E-01    0.00000E+00   688   0.100E+00 0.000E+00
CGA:   2    -0.485684781838E+03   -0.32657E-01   -0.32656E-01   688   0.345E-01 0.795E-05
CGA:   3    -0.485693230196E+03   -0.84484E-02   -0.84484E-02   688   0.628E-02-0.612E-07
CGA:   4    -0.485694583613E+03   -0.13534E-02   -0.13535E-02   688   0.141E-02 0.173E-05
CGA:   5    -0.485694907253E+03   -0.32364E-03   -0.32370E-03   688   0.419E-03 0.195E-05
CGA:   6    -0.485695013054E+03   -0.10580E-03   -0.10580E-03   688   0.171E-03-0.648E-06
CGA:   7    -0.485695061891E+03   -0.48838E-04   -0.48832E-04   688   0.761E-04 0.201E-06
   4 F= -.49014617E+03 E0= -.49014617E+03  d E =-.251864E-02  mag=     0.0000
       N       E                     dE             d eps       ncg     rms          ort
SDA:   1    -0.485691843083E+03    0.31700E-02    0.00000E+00   688   0.792E-02 0.000E+00
CGA:   2    -0.485694417367E+03   -0.25743E-02   -0.25740E-02   688   0.276E-02 0.429E-05
CGA:   3    -0.485695078943E+03   -0.66158E-03   -0.66158E-03   688   0.596E-03 0.619E-07
CGA:   4    -0.485695189745E+03   -0.11080E-03   -0.11079E-03   688   0.160E-03-0.154E-06
CGA:   5    -0.485695226820E+03   -0.37075E-04   -0.37097E-04   688   0.500E-04 0.761E-06
   5 F= -.49014631E+03 E0= -.49014631E+03  d E =-.266775E-02  mag=     0.0000
       N       E                     dE             d eps       ncg     rms          ort
SDA:   1    -0.485655791799E+03    0.39398E-01    0.00000E+00   688   0.985E-01 0.000E+00
CGA:   2    -0.485687871096E+03   -0.32079E-01   -0.32079E-01   688   0.333E-01 0.384E-05
CGA:   3    -0.485695875409E+03   -0.80043E-02   -0.80044E-02   688   0.633E-02 0.394E-05
CGA:   4    -0.485697235783E+03   -0.13604E-02   -0.13603E-02   688   0.162E-02-0.226E-05
CGA:   5    -0.485697588236E+03   -0.35245E-03   -0.35253E-03   688   0.537E-03 0.200E-05
CGA:   6    -0.485697723441E+03   -0.13521E-03   -0.13520E-03   688   0.220E-03-0.939E-06
CGA:   7    -0.485697788116E+03   -0.64675E-04   -0.64680E-04   688   0.972E-04-0.143E-06
   6 F= -.49014874E+03 E0= -.49014874E+03  d E =-.242439E-02  mag=     0.0000
