 vasp.5.4.4.18Apr17-6-g9f103f2a35 (build Nov  8 2022 18:58:45) complex           
 executed on             LinuxGNU date 2023.04.13  07:12:11
 running on   48 total cores
 distrk:  each k-point on   48 cores,    1 groups
 distr:  one band on NCORES_PER_BAND=  12 cores,    4 groups


--------------------------------------------------------------------------------------------------------


 INCAR:
 POTCAR:    PAW_PBE C 08Apr2002                   
 POTCAR:    PAW_PBE N 08Apr2002                   
 POTCAR:    PAW_PBE Ge_d 03Jul2007                
 POTCAR:    PAW_PBE C 08Apr2002                   
 POTCAR:    PAW_PBE O 08Apr2002                   
 POTCAR:    PAW_PBE C 08Apr2002                   
   SHA256 =  253f7b50bb8d59471dbedb8285d89021f4a42ed1a2c5d38a03a736e69125dd95 C/
   COPYR  = (c) Copyright 08Apr2002 Georg Kresse                                
   COPYR  = This file is part of the software VASP. Any use, copying, and all ot
   COPYR  = If you do not have a valid VASP license, you may not use, copy or di
   VRHFIN =C: s2p2                                                              
   LEXCH  = PE                                                                  
   EATOM  =   147.1560 eV,   10.8157 Ry                                         
                                                                                
   TITEL  = PAW_PBE C 08Apr2002                                                 
   LULTRA =        F    use ultrasoft PP ?                                      
   IUNSCR =        1    unscreen: 0-lin 1-nonlin 2-no                           
   RPACOR =    1.200    partial core radius                                     
   POMASS =   12.011; ZVAL   =    4.000    mass and valenz                      
   RCORE  =    1.500    outmost cutoff radius                                   
   RWIGS  =    1.630; RWIGS  =    0.863    wigner-seitz radius (au A)           
   ENMAX  =  400.000; ENMIN  =  300.000 eV                                      
   ICORE  =        2    local potential                                         
   LCOR   =        T    correct aug charges                                     
   LPAW   =        T    paw PP                                                  
   EAUG   =  644.873                                                            
   DEXC   =    0.000                                                            
   RMAX   =    1.529    core radius for proj-oper                               
   RAUG   =    1.300    factor for augmentation sphere                          
   RDEP   =    1.501    radius for radial grids                                 
   RDEPT  =    1.300    core radius for aug-charge                              
                                                                                
   Atomic configuration                                                         
    4 entries                                                                   
     n  l   j            E        occ.                                          
     1  0  0.50      -273.3789   2.0000                                         
     2  0  0.50       -13.7508   2.0000                                         
     2  1  0.50        -5.2854   2.0000                                         
     3  2  1.50        -5.4423   0.0000                                         
   Description                                                                  
     l       E           TYP  RCUT    TYP  RCUT                                 
     0    -13.7508458     23  1.200                                             
     0     -8.2022199     23  1.200                                             
     1     -5.2854383     23  1.500                                             
     1     34.0145650     23  1.500                                             
     2     -5.4423304      7  1.500                                             
  local pseudopotential read in
  partial core-charges read in
  partial kinetic energy density read in
  atomic valenz-charges read in
  non local Contribution for L=           0  read in
    real space projection operators read in
  non local Contribution for L=           0  read in
    real space projection operators read in
  non local Contribution for L=           1  read in
    real space projection operators read in
  non local Contribution for L=           1  read in
    real space projection operators read in
    PAW grid and wavefunctions read in

   number of l-projection  operators is LMAX  =           4
   number of lm-projection operators is LMMAX =           8

 POTCAR:    PAW_PBE N 08Apr2002                   
   SHA256 =  e053789ff3a61a86a1b75d8a110fcc91f86041011e7b0817c7c99e4e8a6349d7 N/
   COPYR  = (c) Copyright 08Apr2002 Georg Kresse                                
   COPYR  = This file is part of the software VASP. Any use, copying, and all ot
   COPYR  = If you do not have a valid VASP license, you may not use, copy or di
   VRHFIN =N: s2p3                                                              
   LEXCH  = PE                                                                  
   EATOM  =   264.5486 eV,   19.4438 Ry                                         
                                                                                
   TITEL  = PAW_PBE N 08Apr2002                                                 
   LULTRA =        F    use ultrasoft PP ?                                      
   IUNSCR =        1    unscreen: 0-lin 1-nonlin 2-no                           
   RPACOR =    1.200    partial core radius                                     
   POMASS =   14.001; ZVAL   =    5.000    mass and valenz                      
   RCORE  =    1.500    outmost cutoff radius                                   
   RWIGS  =    1.400; RWIGS  =    0.741    wigner-seitz radius (au A)           
   ENMAX  =  400.000; ENMIN  =  300.000 eV                                      
   ICORE  =        2    local potential                                         
   LCOR   =        T    correct aug charges                                     
   LPAW   =        T    paw PP                                                  
   EAUG   =  627.112                                                            
   DEXC   =    0.000                                                            
   RMAX   =    1.529    core radius for proj-oper                               
   RAUG   =    1.300    factor for augmentation sphere                          
   RDEP   =    1.514    radius for radial grids                                 
   RDEPT  =    1.338    core radius for aug-charge                              
                                                                                
   Atomic configuration                                                         
    4 entries                                                                   
     n  l   j            E        occ.                                          
     1  0  0.50      -384.7179   2.0000                                         
     2  0  0.50       -18.5828   2.0000                                         
     2  1  0.50        -7.0898   3.0000                                         
     3  2  1.50        -6.8029   0.0000                                         
   Description                                                                  
     l       E           TYP  RCUT    TYP  RCUT                                 
     0    -18.5828119     23  1.200                                             
     0    -13.5018863     23  1.200                                             
     1     -7.0897853     23  1.500                                             
     1      9.5240782     23  1.500                                             
     2     -6.8029130      7  1.500                                             
  local pseudopotential read in
  partial core-charges read in
  partial kinetic energy density read in
  atomic valenz-charges read in
  non local Contribution for L=           0  read in
    real space projection operators read in
  non local Contribution for L=           0  read in
    real space projection operators read in
  non local Contribution for L=           1  read in
    real space projection operators read in
  non local Contribution for L=           1  read in
    real space projection operators read in
    PAW grid and wavefunctions read in

   number of l-projection  operators is LMAX  =           4
   number of lm-projection operators is LMMAX =           8

 POTCAR:    PAW_PBE Ge_d 03Jul2007                
   SHA256 =  944b26c40d2d7c4f4eb1ff3a2e8dbfdd7129146276cd341854bfd5c0e57780ed Ge
   COPYR  = (c) Copyright 03Jul2007 Georg Kresse                                
   COPYR  = This file is part of the software VASP. Any use, copying, and all ot
   COPYR  = If you do not have a valid VASP license, you may not use, copy or di
   VRHFIN =Ge: 3d4s4p                                                           
   LEXCH  = PE                                                                  
   EATOM  =  2596.2402 eV,  190.8183 Ry                                         
                                                                                
   TITEL  = PAW_PBE Ge_d 03Jul2007                                              
   LULTRA =        F    use ultrasoft PP ?                                      
   IUNSCR =        1    unscreen: 0-lin 1-nonlin 2-no                           
   RPACOR =    2.000    partial core radius                                     
   POMASS =   72.610; ZVAL   =   14.000    mass and valenz                      
   RCORE  =    2.300    outmost cutoff radius                                   
   RWIGS  =    2.300; RWIGS  =    1.217    wigner-seitz radius (au A)           
   ENMAX  =  310.294; ENMIN  =  232.720 eV                                      
   ICORE  =        3    local potential                                         
   LCOR   =        T    correct aug charges                                     
   LPAW   =        T    paw PP                                                  
   EAUG   =  531.356                                                            
   DEXC   =    0.000                                                            
   RMAX   =    2.342    core radius for proj-oper                               
   RAUG   =    1.300    factor for augmentation sphere                          
   RDEP   =    2.318    radius for radial grids                                 
   RDEPT  =    1.783    core radius for aug-charge                              
                                                                                
   Atomic configuration                                                         
    9 entries                                                                   
     n  l   j            E        occ.                                          
     1  0  0.50    -10959.8463   2.0000                                         
     2  0  0.50     -1371.6056   2.0000                                         
     2  1  1.50     -1198.4791   6.0000                                         
     3  0  0.50      -168.4733   2.0000                                         
     3  1  1.50      -115.6019   6.0000                                         
     3  2  2.50       -29.3106  10.0000                                         
     4  0  0.50       -11.7309   2.0000                                         
     4  1  0.50        -3.8952   2.0000                                         
     4  3  2.50        -4.0817   0.0000                                         
   Description                                                                  
     l       E           TYP  RCUT    TYP  RCUT                                 
     2    -29.3105938     23  2.200                                             
     2    -13.6058260     23  2.200                                             
     0    -11.7309493     23  2.300                                             
     0     -7.4578696     23  2.300                                             
     1     -3.8952261     23  2.300                                             
     1      6.1178114     23  2.300                                             
     3     -1.3605826     23  2.300                                             
  local pseudopotential read in
  partial core-charges read in
  partial kinetic energy density read in
  atomic valenz-charges read in
  non local Contribution for L=           2  read in
    real space projection operators read in
  non local Contribution for L=           2  read in
    real space projection operators read in
  non local Contribution for L=           0  read in
    real space projection operators read in
  non local Contribution for L=           0  read in
    real space projection operators read in
  non local Contribution for L=           1  read in
    real space projection operators read in
  non local Contribution for L=           1  read in
    real space projection operators read in
    PAW grid and wavefunctions read in

   number of l-projection  operators is LMAX  =           6
   number of lm-projection operators is LMMAX =          18

 POTCAR:    PAW_PBE C 08Apr2002                   
   SHA256 =  253f7b50bb8d59471dbedb8285d89021f4a42ed1a2c5d38a03a736e69125dd95 C/
   COPYR  = (c) Copyright 08Apr2002 Georg Kresse                                
   COPYR  = This file is part of the software VASP. Any use, copying, and all ot
   COPYR  = If you do not have a valid VASP license, you may not use, copy or di
   VRHFIN =C: s2p2                                                              
   LEXCH  = PE                                                                  
   EATOM  =   147.1560 eV,   10.8157 Ry                                         
                                                                                
   TITEL  = PAW_PBE C 08Apr2002                                                 
   LULTRA =        F    use ultrasoft PP ?                                      
   IUNSCR =        1    unscreen: 0-lin 1-nonlin 2-no                           
   RPACOR =    1.200    partial core radius                                     
   POMASS =   12.011; ZVAL   =    4.000    mass and valenz                      
   RCORE  =    1.500    outmost cutoff radius                                   
   RWIGS  =    1.630; RWIGS  =    0.863    wigner-seitz radius (au A)           
   ENMAX  =  400.000; ENMIN  =  300.000 eV                                      
   ICORE  =        2    local potential                                         
   LCOR   =        T    correct aug charges                                     
   LPAW   =        T    paw PP                                                  
   EAUG   =  644.873                                                            
   DEXC   =    0.000                                                            
   RMAX   =    1.529    core radius for proj-oper                               
   RAUG   =    1.300    factor for augmentation sphere                          
   RDEP   =    1.501    radius for radial grids                                 
   RDEPT  =    1.300    core radius for aug-charge                              
                                                                                
   Atomic configuration                                                         
    4 entries                                                                   
     n  l   j            E        occ.                                          
     1  0  0.50      -273.3789   2.0000                                         
     2  0  0.50       -13.7508   2.0000                                         
     2  1  0.50        -5.2854   2.0000                                         
     3  2  1.50        -5.4423   0.0000                                         
   Description                                                                  
     l       E           TYP  RCUT    TYP  RCUT                                 
     0    -13.7508458     23  1.200                                             
     0     -8.2022199     23  1.200                                             
     1     -5.2854383     23  1.500                                             
     1     34.0145650     23  1.500                                             
     2     -5.4423304      7  1.500                                             
  local pseudopotential read in
  partial core-charges read in
  partial kinetic energy density read in
  atomic valenz-charges read in
  non local Contribution for L=           0  read in
    real space projection operators read in
  non local Contribution for L=           0  read in
    real space projection operators read in
  non local Contribution for L=           1  read in
    real space projection operators read in
  non local Contribution for L=           1  read in
    real space projection operators read in
    PAW grid and wavefunctions read in

   number of l-projection  operators is LMAX  =           4
   number of lm-projection operators is LMMAX =           8

 POTCAR:    PAW_PBE O 08Apr2002                   
   SHA256 =  818f92134a0a090dccd8ba1447fa70422a3b330e708bb4f08108d8ae51209ddf O/
   COPYR  = (c) Copyright 08Apr2002 Georg Kresse                                
   COPYR  = This file is part of the software VASP. Any use, copying, and all ot
   COPYR  = If you do not have a valid VASP license, you may not use, copy or di
   VRHFIN =O: s2p4                                                              
   LEXCH  = PE                                                                  
   EATOM  =   432.3788 eV,   31.7789 Ry                                         
                                                                                
   TITEL  = PAW_PBE O 08Apr2002                                                 
   LULTRA =        F    use ultrasoft PP ?                                      
   IUNSCR =        1    unscreen: 0-lin 1-nonlin 2-no                           
   RPACOR =    1.200    partial core radius                                     
   POMASS =   16.000; ZVAL   =    6.000    mass and valenz                      
   RCORE  =    1.520    outmost cutoff radius                                   
   RWIGS  =    1.550; RWIGS  =    0.820    wigner-seitz radius (au A)           
   ENMAX  =  400.000; ENMIN  =  300.000 eV                                      
   ICORE  =        2    local potential                                         
   LCOR   =        T    correct aug charges                                     
   LPAW   =        T    paw PP                                                  
   EAUG   =  605.392                                                            
   DEXC   =    0.000                                                            
   RMAX   =    1.553    core radius for proj-oper                               
   RAUG   =    1.300    factor for augmentation sphere                          
   RDEP   =    1.550    radius for radial grids                                 
   RDEPT  =    1.329    core radius for aug-charge                              
                                                                                
   Atomic configuration                                                         
    4 entries                                                                   
     n  l   j            E        occ.                                          
     1  0  0.50      -514.6923   2.0000                                         
     2  0  0.50       -23.9615   2.0000                                         
     2  1  0.50        -9.0305   4.0000                                         
     3  2  1.50        -9.5241   0.0000                                         
   Description                                                                  
     l       E           TYP  RCUT    TYP  RCUT                                 
     0    -23.9615318     23  1.200                                             
     0     -9.5240782     23  1.200                                             
     1     -9.0304911     23  1.520                                             
     1      8.1634956     23  1.520                                             
     2     -9.5240782      7  1.500                                             
  local pseudopotential read in
  partial core-charges read in
  partial kinetic energy density read in
  kinetic energy density of atom read in
  atomic valenz-charges read in
  non local Contribution for L=           0  read in
    real space projection operators read in
  non local Contribution for L=           0  read in
    real space projection operators read in
  non local Contribution for L=           1  read in
    real space projection operators read in
  non local Contribution for L=           1  read in
    real space projection operators read in
    PAW grid and wavefunctions read in

   number of l-projection  operators is LMAX  =           4
   number of lm-projection operators is LMMAX =           8

 Optimization of the real space projectors (new method)

 maximal supplied QI-value         = 25.13
 optimisation between [QCUT,QGAM] = [ 10.56, 21.36] = [ 31.20,127.80] Ry 
 Optimized for a Real-space Cutoff    1.24 Angstroem

   l    n(q)    QCUT    max X(q) W(low)/X(q) W(high)/X(q)  e(spline) 
   0      8    10.556   115.676    0.42E-03    0.71E-03    0.20E-06
   0      8    10.556    87.132    0.41E-03    0.71E-03    0.20E-06
   1      7    10.556     4.429    0.22E-03    0.39E-03    0.12E-06
   1      7    10.556     2.733    0.16E-03    0.27E-03    0.14E-06
 Optimization of the real space projectors (new method)

 maximal supplied QI-value         = 25.13
 optimisation between [QCUT,QGAM] = [ 10.56, 21.36] = [ 31.20,127.80] Ry 
 Optimized for a Real-space Cutoff    1.24 Angstroem

   l    n(q)    QCUT    max X(q) W(low)/X(q) W(high)/X(q)  e(spline) 
   0      8    10.556    79.467    0.40E-03    0.66E-03    0.17E-06
   0      8    10.556    66.151    0.40E-03    0.66E-03    0.17E-06
   1      7    10.556    12.181    0.19E-03    0.18E-02    0.13E-05
   1      7    10.556     8.434    0.21E-03    0.18E-02    0.13E-05
 Optimization of the real space projectors (new method)

 maximal supplied QI-value         = 16.25
 optimisation between [QCUT,QGAM] = [ 10.73, 21.45] = [ 32.22,128.87] Ry 
 Optimized for a Real-space Cutoff    1.40 Angstroem

   l    n(q)    QCUT    max X(q) W(low)/X(q) W(high)/X(q)  e(spline) 
   2      8    10.726     8.936    0.24E-03    0.48E-03    0.17E-06
   2      8    10.726     8.183    0.29E-03    0.63E-03    0.25E-06
   0      9    10.726    62.777    0.12E-03    0.98E-05    0.77E-07
   0      9    10.726    50.556    0.12E-03    0.95E-05    0.75E-07
   1      8    10.726    38.422    0.54E-04    0.12E-03    0.11E-06
   1      8    10.726    22.623    0.50E-04    0.11E-03    0.10E-06
 Optimization of the real space projectors (new method)

 maximal supplied QI-value         = 25.13
 optimisation between [QCUT,QGAM] = [ 10.56, 21.36] = [ 31.20,127.80] Ry 
 Optimized for a Real-space Cutoff    1.24 Angstroem

   l    n(q)    QCUT    max X(q) W(low)/X(q) W(high)/X(q)  e(spline) 
   0      8    10.556   115.676    0.42E-03    0.71E-03    0.20E-06
   0      8    10.556    87.132    0.41E-03    0.71E-03    0.20E-06
   1      7    10.556     4.429    0.22E-03    0.39E-03    0.12E-06
   1      7    10.556     2.733    0.16E-03    0.27E-03    0.14E-06
 Optimization of the real space projectors (new method)

 maximal supplied QI-value         = 24.76
 optimisation between [QCUT,QGAM] = [ 10.64, 21.29] = [ 31.73,126.92] Ry 
 Optimized for a Real-space Cutoff    1.24 Angstroem

   l    n(q)    QCUT    max X(q) W(low)/X(q) W(high)/X(q)  e(spline) 
   0      8    10.645    20.381    0.39E-03    0.65E-03    0.15E-06
   0      8    10.645    15.268    0.42E-03    0.70E-03    0.17E-06
   1      7    10.645     5.964    0.38E-03    0.66E-03    0.17E-06
   1      7    10.645     5.382    0.31E-03    0.55E-03    0.16E-06
  PAW_PBE C 08Apr2002                   :
 energy of atom  1       EATOM= -147.1560
 kinetic energy error for atom=    0.0132 (will be added to EATOM!!)
  PAW_PBE N 08Apr2002                   :
 energy of atom  2       EATOM= -264.5486
 kinetic energy error for atom=    0.0298 (will be added to EATOM!!)
  PAW_PBE Ge_d 03Jul2007                :
 energy of atom  3       EATOM=-2596.2402
 kinetic energy error for atom=    0.0090 (will be added to EATOM!!)
  PAW_PBE C 08Apr2002                   :
 energy of atom  4       EATOM= -147.1560
 kinetic energy error for atom=    0.0132 (will be added to EATOM!!)
  PAW_PBE O 08Apr2002                   :
 energy of atom  5       EATOM= -432.3788
 kinetic energy error for atom=    0.0458 (will be added to EATOM!!)


 POSCAR: POSCAR-c3n4                             
  positions in direct lattice
  velocities in cartesian coordinates
 exchange correlation table for  LEXCH =        8
   RHO(1)=    0.500       N(1)  =     2000
   RHO(2)=  100.500       N(2)  =     4000



--------------------------------------------------------------------------------------------------------


 ion  position               nearest neighbor table
   1  0.091  0.189  0.343-  26 1.33  46 1.37  25 1.40
   2  0.287  0.415  0.350-  29 1.31  35 1.35  25 1.44
   3  0.069  0.372  0.330-  44 1.31  39 1.34  25 1.41
   4  0.478  0.002  0.494-  27 1.33  30 1.33  48 1.41
   5  0.463  0.412  0.394-  28 1.31  29 1.33  56 1.39
   6  0.121  0.047  0.433-  26 1.32  31 1.32  32 1.40
   7  0.067  0.690  0.499-  54 1.34  34 1.34  33 1.37
   8  0.285  0.846  0.561-  37 1.32  27 1.34  33 1.40
   9  0.133  0.910  0.546-  31 1.31  52 1.33  33 1.40
  10  0.418  0.572  0.471-  35 1.33  38 1.35  56 1.41
  11  0.454  0.908  0.665-  37 1.32  36 1.34  48 1.39
  12  0.047  0.504  0.438-  34 1.31  39 1.32  40 1.39
  13  0.658  0.205  0.471-  42 1.33  30 1.34  41 1.43
  14  0.749  0.396  0.338-  45 1.34  41 1.35  51 1.39
  15  0.618  0.385  0.465-  55 1.30  28 1.33  41 1.45
  16  0.915  0.038  0.438-  46 1.33  43 1.36  32 1.40
  17  0.922  0.413  0.283-  45 1.31  44 1.34  40 1.41
  18  0.665  0.099  0.613-  47 1.31  42 1.34  48 1.42
  19  0.560  0.700  0.612-  50 1.39  38 1.47  49 1.48  57 2.06
  20  0.782  0.918  0.571-  53 1.32  43 1.34  49 1.44
  21  0.636  0.921  0.686-  49 1.31  47 1.37  36 1.38
  22  0.910  0.586  0.379-  51 1.32  54 1.34  40 1.41
  23  0.983  0.957  0.584-  53 1.32  52 1.33  32 1.39
  24  0.588  0.533  0.550-  50 1.29  55 1.37  56 1.46
  25  0.154  0.324  0.314-   1 1.40   3 1.41   2 1.44
  26  0.164  0.136  0.357-   6 1.32   1 1.33
  27  0.355  0.903  0.475-   4 1.33   8 1.34
  28  0.528  0.351  0.390-   5 1.31  15 1.33
  29  0.367  0.375  0.324-   2 1.31   5 1.33
  30  0.551  0.102  0.429-   4 1.33  13 1.34
  31  0.180  0.983  0.461-   9 1.31   6 1.32
  32  0.006  0.015  0.486-  23 1.39  16 1.40   6 1.40
  33  0.151  0.801  0.556-   7 1.37   9 1.40   8 1.40
  34  0.093  0.592  0.513-  12 1.31   7 1.34
  35  0.314  0.523  0.408-  10 1.33   2 1.35
  36  0.512  0.863  0.729-  11 1.34  21 1.38  57 2.23
  37  0.324  0.842  0.656-  11 1.32   8 1.32
  38  0.456  0.674  0.538-  10 1.35  19 1.47  57 2.16
  39  0.071  0.406  0.429-  12 1.32   3 1.34
  40  0.974  0.516  0.358-  12 1.39  22 1.41  17 1.41
  41  0.699  0.334  0.430-  14 1.35  13 1.43  15 1.45
  42  0.723  0.211  0.557-  13 1.33  18 1.34
  43  0.790  0.968  0.476-  20 1.34  16 1.36
  44  0.004  0.376  0.248-   3 1.31  17 1.34
  45  0.794  0.346  0.267-  17 1.31  14 1.34
  46  0.960  0.128  0.363-  16 1.33   1 1.37
  47  0.719  0.057  0.680-  18 1.31  21 1.37
  48  0.529  0.009  0.594-  11 1.39   4 1.41  18 1.42
  49  0.656  0.846  0.622-  21 1.31  20 1.44  19 1.48
  50  0.623  0.629  0.616-  24 1.29  19 1.39
  51  0.789  0.531  0.342-  22 1.32  14 1.39
  52  0.059  0.915  0.621-  23 1.33   9 1.33
  53  0.873  0.925  0.634-  20 1.32  23 1.32
  54  0.974  0.693  0.442-  22 1.34   7 1.34
  55  0.647  0.460  0.547-  15 1.30  24 1.37
  56  0.488  0.504  0.472-   5 1.39  10 1.41  24 1.46
  57  0.392  0.644  0.697-  19 2.06  38 2.16  36 2.23
  58  0.376  0.571  0.939-  59 1.14
  59  0.315  0.532  0.014-  58 1.14


IMPORTANT INFORMATION: All symmetrisations will be switched off!
NOSYMM: (Re-)initialisation of all symmetry stuff for point group C_1.



 KPOINTS: K-Points                                

Automatic generation of k-mesh.
Space group operators:
 irot       det(A)        alpha          n_x          n_y          n_z        tau_x        tau_y        tau_z
    1     1.000000     0.000000     1.000000     0.000000     0.000000     0.000000     0.000000     0.000000
 
 Subroutine IBZKPT returns following result:
 ===========================================
 
 Found      4 irreducible k-points:
 
 Following reciprocal coordinates:
            Coordinates               Weight
  0.000000  0.000000  0.000000      1.000000
  0.500000  0.000000  0.000000      1.000000
  0.000000  0.500000  0.000000      1.000000
  0.500000  0.500000  0.000000      1.000000
 
 Following cartesian coordinates:
            Coordinates               Weight
  0.000000  0.000000  0.000000      1.000000
  0.036415  0.021552  0.000000      1.000000
  0.000594  0.043104  0.000000      1.000000
  0.037009  0.064656  0.000000      1.000000
 


--------------------------------------------------------------------------------------------------------




 Dimension of arrays:
   k-points           NKPTS =      4   k-points in BZ     NKDIM =      4   number of bands    NBANDS=    172
   number of dos      NEDOS =    301   number of ions     NIONS =     59
   non local maximal  LDIM  =      6   non local SUM 2l+1 LMDIM =     18
   total plane-waves  NPLWV = 268800
   max r-space proj   IRMAX =   2051   max aug-charges    IRDMAX=   6099
   dimension x,y,z NGX =    64 NGY =   60 NGZ =   70
   dimension x,y,z NGXF=   128 NGYF=  120 NGZF=  140
   support grid    NGXF=   128 NGYF=  120 NGZF=  140
   ions per type =              24  32   1   1   1
   NGX,Y,Z   is equivalent  to a cutoff of   8.94,  8.53,  9.02 a.u.
   NGXF,Y,Z  is equivalent  to a cutoff of  17.87, 17.07, 18.04 a.u.

 SYSTEM =  unknown system                          
 POSCAR =  POSCAR-c3n4                             

 Startparameter for this run:
   NWRITE =      2    write-flag & timer
   PREC   = normal    normal or accurate (medium, high low for compatibility)
   ISTART =      0    job   : 0-new  1-cont  2-samecut
   ICHARG =      2    charge: 1-file 2-atom 10-const
   ISPIN  =      2    spin polarized calculation?
   LNONCOLLINEAR =      F non collinear calculations
   LSORBIT =      F    spin-orbit coupling
   INIWAV =      1    electr: 0-lowe 1-rand  2-diag
   LASPH  =      F    aspherical Exc in radial PAW
   METAGGA=      F    non-selfconsistent MetaGGA calc.

 Electronic Relaxation 1
   ENCUT  =  440.0 eV  32.34 Ry    5.69 a.u.  20.36 19.99 22.06*2*pi/ulx,y,z
   ENINI  =  440.0     initial cutoff
   ENAUG  =  644.9 eV  augmentation charge cutoff
   NELM   =     50;   NELMIN=  2; NELMDL= -5     # of ELM steps 
   EDIFF  = 0.1E-03   stopping-criterion for ELM
   LREAL  =      T    real-space projection
   NLSPLINE    = F    spline interpolate recip. space projectors
   LCOMPAT=      F    compatible to vasp.4.4
   GGA_COMPAT  = T    GGA compatible to vasp.4.4-vasp.4.6
   LMAXPAW     = -100 max onsite density
   LMAXMIX     =    2 max onsite mixed and CHGCAR
   VOSKOWN=      0    Vosko Wilk Nusair interpolation
   ROPT   =   -0.00050  -0.00050  -0.00050  -0.00050
   ROPT   =   -0.00050
 Ionic relaxation
   EDIFFG = -.1E+00   stopping-criterion for IOM
   NSW    =    400    number of steps for IOM
   NBLOCK =      1;   KBLOCK =    400    inner block; outer block 
   IBRION =      2    ionic relax: 0-MD 1-quasi-New 2-CG
   NFREE  =      1    steps in history (QN), initial steepest desc. (CG)
   ISIF   =      2    stress and relaxation
   IWAVPR =     11    prediction:  0-non 1-charg 2-wave 3-comb
   ISYM   =      0    0-nonsym 1-usesym 2-fastsym
   LCORR  =      T    Harris-Foulkes like correction to forces

   POTIM  = 0.2000    time-step for ionic-motion
   TEIN   =    0.0    initial temperature
   TEBEG  =    0.0;   TEEND  =   0.0 temperature during run
   SMASS  =  -3.00    Nose mass-parameter (am)
   estimated Nose-frequenzy (Omega)   =  0.10E-29 period in steps =****** mass=  -0.324E-26a.u.
   SCALEE = 1.0000    scale energy and forces
   NPACO  =    256;   APACO  = 16.0  distance and # of slots for P.C.
   PSTRESS=    0.0 pullay stress

  Mass of Ions in am
   POMASS =  12.01 14.00 72.61 12.01 16.00
  Ionic Valenz
   ZVAL   =   4.00  5.00 14.00  4.00  6.00
  Atomic Wigner-Seitz radii
   RWIGS  =  -1.00 -1.00 -1.00 -1.00 -1.00
  virtual crystal weights 
   VCA    =   1.00  1.00  1.00  1.00  1.00
   NELECT =     280.0000    total number of electrons
   NUPDOWN=      -1.0000    fix difference up-down

 DOS related values:
   EMIN   =  10.00;   EMAX   =-10.00  energy-range for DOS
   EFERMI =   0.00
   ISMEAR =     0;   SIGMA  =   0.10  broadening in eV -4-tet -1-fermi 0-gaus

 Electronic relaxation 2 (details)
   IALGO  =     58    algorithm
   LDIAG  =      T    sub-space diagonalisation (order eigenvalues)
   LSUBROT=      F    optimize rotation matrix (better conditioning)
   TURBO    =      0    0=normal 1=particle mesh
   IRESTART =      0    0=no restart 2=restart with 2 vectors
   NREBOOT  =      0    no. of reboots
   NMIN     =      0    reboot dimension
   EREF     =   0.00    reference energy to select bands
   IMIX   =      4    mixing-type and parameters
     AMIX     =   0.05;   BMIX     =  0.00
     AMIX_MAG =   0.20;   BMIX_MAG =  0.00
     AMIN     =   0.05
     WC   =   100.;   INIMIX=   1;  MIXPRE=   1;  MAXMIX= -45

 Intra band minimization:
   WEIMIN = 0.0010     energy-eigenvalue tresh-hold
   EBREAK =  0.15E-06  absolut break condition
   DEPER  =   0.30     relativ break condition  

   TIME   =   0.40     timestep for ELM

  volume/ion in A,a.u.               =      25.97       175.24
  Fermi-wavevector in a.u.,A,eV,Ry     =   0.929038  1.755628 11.743358  0.863112
  Thomas-Fermi vector in A             =   2.055279

 Write flags
   LWAVE        =      F    write WAVECAR
   LDOWNSAMPLE  =      F    k-point downsampling of WAVECAR
   LCHARG       =      F    write CHGCAR
   LVTOT        =      F    write LOCPOT, total local potential
   LVHAR        =      F    write LOCPOT, Hartree potential only
   LELF         =      F    write electronic localiz. function (ELF)
   LORBIT       =      0    0 simple, 1 ext, 2 COOP (PROOUT), +10 PAW based schemes


 Dipole corrections
   LMONO  =      F    monopole corrections only (constant potential shift)
   LDIPOL =      F    correct potential (dipole corrections)
   IDIPOL =      0    1-x, 2-y, 3-z, 4-all directions 
   EPSILON=  1.0000000 bulk dielectric constant

 Exchange correlation treatment:
   GGA     =    --    GGA type
   LEXCH   =     8    internal setting for exchange type
   VOSKOWN=      0    Vosko Wilk Nusair interpolation
   LHFCALC =     F    Hartree Fock is set to
   LHFONE  =     F    Hartree Fock one center treatment
   AEXX    =    0.0000 exact exchange contribution

 Linear response parameters
   LEPSILON=     F    determine dielectric tensor
   LRPA    =     F    only Hartree local field effects (RPA)
   LNABLA  =     F    use nabla operator in PAW spheres
   LVEL    =     F    velocity operator in full k-point grid
   LINTERFAST=   F  fast interpolation
   KINTER  =     0    interpolate to denser k-point grid
   CSHIFT  =0.1000    complex shift for real part using Kramers Kronig
   OMEGAMAX=  -1.0    maximum frequency
   DEG_THRESHOLD= 0.2000000E-02 threshold for treating states as degnerate
   RTIME   =   -0.100 relaxation time in fs
  (WPLASMAI=    0.000 imaginary part of plasma frequency in eV, 0.658/RTIME)
   DFIELD  = 0.0000000 0.0000000 0.0000000 field for delta impulse in time

 Orbital magnetization related:
   ORBITALMAG=     F  switch on orbital magnetization
   LCHIMAG   =     F  perturbation theory with respect to B field
   DQ        =  0.001000  dq finite difference perturbation B field
   LLRAUG    =     F  two centre corrections for induced B field



--------------------------------------------------------------------------------------------------------


 conjugate gradient relaxation of ions
 charge density and potential will be updated during run
 spin polarized calculation
 Conjugate gradient for all bands (Freysoldt, et al. PRB 79, 241103 (2009))
 preconditioned conjugated gradient                                        
 perform sub-space diagonalisation
    before iterative eigenvector-optimisation
 modified Broyden-mixing scheme, WC =      100.0
 initial mixing is a Kerker type mixing with AMIX =  0.0500 and BMIX =      0.0001
 Hartree-type preconditioning will be used
 using additional bands           32
 real space projection scheme for non local part
 use partial core corrections
 no Harris-corrections to forces 
 use gradient corrections 
 use of overlap-Matrix (Vanderbilt PP)
 Gauss-broadening in eV      SIGMA  =   0.10


--------------------------------------------------------------------------------------------------------


  energy-cutoff  :      440.00
  volume of cell :     1532.08
      direct lattice vectors                 reciprocal lattice vectors
    11.905344842 -0.164036808  0.000000000     0.084686476  0.050121063 -0.000000000
    -5.952672421 10.057864255  0.000000000     0.001381178  0.100242126 -0.000000000
     0.000000000  0.000000000 12.900000000    -0.000000000 -0.000000000  0.077519380

  length of vectors
    11.906474872 11.687383895 12.900000000     0.098406911  0.100251641  0.077519380



 k-points in units of 2pi/SCALE and weight: K-Points                                
   0.00000000  0.00000000  0.00000000       0.250
   0.03641518  0.02155206  0.00000000       0.250
   0.00059391  0.04310411  0.00000000       0.250
   0.03700909  0.06465617  0.00000000       0.250

 k-points in reciprocal lattice and weights: K-Points                                
   0.00000000  0.00000000  0.00000000       0.250
   0.50000000  0.00000000  0.00000000       0.250
   0.00000000  0.50000000  0.00000000       0.250
   0.50000000  0.50000000  0.00000000       0.250

 position of ions in fractional coordinates (direct lattice) 
   0.09114764  0.18942083  0.34257178
   0.28653051  0.41532238  0.34951337
   0.06861762  0.37165614  0.32955865
   0.47810194  0.00163722  0.49422447
   0.46299409  0.41240822  0.39381469
   0.12144617  0.04715890  0.43257721
   0.06692773  0.69033639  0.49917656
   0.28491494  0.84587205  0.56129533
   0.13271647  0.91042391  0.54586959
   0.41831377  0.57153462  0.47092918
   0.45357529  0.90818530  0.66514951
   0.04687631  0.50357418  0.43753165
   0.65790892  0.20484634  0.47125676
   0.74895957  0.39607329  0.33805577
   0.61806287  0.38545001  0.46487749
   0.91489410  0.03759975  0.43768706
   0.92151786  0.41297781  0.28256205
   0.66491511  0.09872567  0.61326889
   0.55954576  0.70046851  0.61244725
   0.78220446  0.91836342  0.57072969
   0.63642552  0.92139702  0.68643714
   0.91027486  0.58622610  0.37917970
   0.98307009  0.95707071  0.58435056
   0.58758264  0.53323252  0.55042328
   0.15446167  0.32427024  0.31382307
   0.16419537  0.13556747  0.35686112
   0.35506543  0.90316147  0.47537117
   0.52832667  0.35080954  0.39034112
   0.36739710  0.37528269  0.32424106
   0.55050314  0.10154609  0.42866069
   0.18032191  0.98283180  0.46126891
   0.00630405  0.01483660  0.48635219
   0.15050192  0.80135990  0.55607386
   0.09270963  0.59225125  0.51294222
   0.31423330  0.52253307  0.40804385
   0.51173780  0.86330461  0.72873152
   0.32442262  0.84214379  0.65636511
   0.45551874  0.67393231  0.53774393
   0.07101541  0.40574914  0.42910045
   0.97444264  0.51567899  0.35799769
   0.69921641  0.33431535  0.42994775
   0.72348361  0.21116484  0.55663300
   0.79012203  0.96823690  0.47596883
   0.00412264  0.37552885  0.24849224
   0.79385709  0.34571497  0.26718273
   0.95957130  0.12812467  0.36251363
   0.71916494  0.05747899  0.68045116
   0.52859178  0.00924099  0.59424853
   0.65600400  0.84649510  0.62207994
   0.62285033  0.62886063  0.61608176
   0.78930094  0.53087100  0.34234965
   0.05941478  0.91514835  0.62127289
   0.87272532  0.92460195  0.63361555
   0.97447007  0.69281026  0.44156323
   0.64701604  0.46008427  0.54718846
   0.48798795  0.50424972  0.47228675
   0.39216756  0.64400070  0.69727116
   0.37593545  0.57140853  0.93947663
   0.31543741  0.53176619  0.01397052

 position of ions in cartesian coordinates  (Angst):
  -0.04241610  1.89021743  4.41917591
   0.93896652  4.13025455  4.50872251
  -1.39543075  3.72681116  4.25130663
   5.68222258 -0.06195937  6.37549561
   3.05717330  4.07199778  5.08020952
   1.16513700  0.45439620  5.58024597
  -3.31254867  6.93233110  6.43937760
  -1.64318869  8.46092975  7.24070975
  -3.83942004  9.13514975  7.04171770
   1.57801133  5.67979880  6.07498648
  -0.00615937  9.06000146  8.58042868
  -2.43953348  5.05719130  5.64415828
   6.61324944  1.95239539  6.07921219
   6.55892745  3.86079447  4.36091938
   5.06379389  3.77541884  5.99691960
  10.66831073  0.22809684  5.64616302
   8.51266630  4.00251186  3.64505046
   7.32836211  0.88389882  7.91116873
   2.49192562  6.95343105  7.90056956
   3.84569725  9.10846434  7.36241305
   2.09209065  9.16288898  8.85503908
   7.34752412  5.74686397  4.89141813
   6.00666002  9.46482758  7.53812217
   3.82121545  5.26679513  7.10046037
  -0.09135507  3.23612869  4.04831762
   1.14781372  1.33658517  4.60350851
  -1.14904800  9.02563163  6.13228811
   4.20165687  3.44172971  5.03540042
   2.14005427  3.71427575  4.18270971
   5.94945911  0.93103401  5.52972284
  -3.70368115  9.85560935  5.95036894
  -0.01326554  0.14819044  6.27394328
  -2.97845578  8.03528129  7.17335284
  -2.42173755  5.94157492  6.61695461
   0.63058758  5.20402085  5.26376572
   0.95344542  8.59905674  9.40063654
  -1.15064287  8.41695062  8.46710987
   1.41140949  6.70359781  6.93689665
  -1.56982883  4.06932066  5.53539586
   8.53140754  5.02678486  4.61817023
   6.33434266  3.24780121  5.54632599
   7.35632673  2.00518939  7.18056575
   3.64307818  9.60878620  6.13999795
  -2.18631882  3.77634193  3.20554992
   7.39321444  3.34693243  3.44665717
  10.66134301  1.13125556  4.67642585
   8.21975300  0.46014634  8.77781995
   6.23805888  0.00623610  7.66580602
   2.77104580  8.40632403  8.02483119
   3.67184661  6.22282447  7.94745465
   6.23679871  5.20995403  4.41631046
  -4.74022493  9.19469166  8.01442022
   4.88624341  9.15636181  8.17364062
   7.47732975  6.80834258  5.69616568
   4.96421814  4.52133068  7.05873115
   2.80803139  4.99162723  6.09249910
   0.83536480  6.41294169  8.99479793
   1.07423335  5.68548214 12.11924859
   0.58996129  5.29668876  0.18021966



--------------------------------------------------------------------------------------------------------


 k-point  1 :   0.0000 0.0000 0.0000  plane waves:   32107
 k-point  2 :   0.5000 0.0000 0.0000  plane waves:   32068
 k-point  3 :   0.0000 0.5000 0.0000  plane waves:   32096
 k-point  4 :   0.5000 0.5000 0.0000  plane waves:   32128

 maximum and minimum number of plane-waves per node :      2695     2656

 maximum number of plane-waves:     32128
 maximum index in each direction: 
   IXMAX=   20   IYMAX=   19   IZMAX=   22
   IXMIN=  -20   IYMIN=  -20   IZMIN=  -22


 real space projection operators:
  total allocation   :       5205.86 KBytes
  max/ min on nodes  :        495.77        398.75


 parallel 3D FFT for wavefunctions:
    minimum data exchange during FFTs selected (reduces bandwidth)
 parallel 3D FFT for charge:
    minimum data exchange during FFTs selected (reduces bandwidth)


 total amount of memory used by VASP MPI-rank0    87669. kBytes
=======================================================================

   base      :      30000. kBytes
   nonlr-proj:       2613. kBytes
   fftplans  :       2461. kBytes
   grid      :       7332. kBytes
   one-center:        155. kBytes
   wavefun   :      45108. kBytes

     INWAV:  cpu time    0.0000: real time    0.0000
 Broyden mixing: mesh for mixing (old mesh)
   NGX = 41   NGY = 39   NGZ = 45
  (NGX  =128   NGY  =120   NGZ  =140)
  gives a total of  71955 points

 initial charge density was supplied:
 charge density of overlapping atoms calculated
 number of electron     280.0000000 magnetization       2.0000000
 keeping initial charge density in first step


--------------------------------------------------------------------------------------------------------


 Maximum index for non-local projection operator          249
 Maximum index for augmentation-charges          332 (set IRDMAX)


--------------------------------------------------------------------------------------------------------


 First call to EWALD:  gamma=   0.154
 Maximum number of real-space cells 3x 3x 3
 Maximum number of reciprocal cells 3x 3x 3

    FEWALD:  cpu time    0.0021: real time    0.0021


--------------------------------------- Iteration      1(   1)  ---------------------------------------


    POTLOK:  cpu time    0.0653: real time    0.0654
    SETDIJ:  cpu time    0.0086: real time    0.0087
    TRIAL :  cpu time    3.3841: real time    3.4155
    CORREC:  cpu time    0.0008: real time    0.0008
    --------------------------------------------
      LOOP:  cpu time    3.4621: real time    3.5473

 eigenvalue-minimisations  :  2968
 total energy-change (2. order) : 0.2582713E+04  (-0.1162825E+05)
 number of electron     280.0000000 magnetization       2.0000000
 augmentation part      280.0000000 magnetization       2.0000000

 Free energy of the ion-electron system (eV)
  ---------------------------------------------------
  alpha Z        PSCENC =       243.21195820
  Ewald energy   TEWEN  =     14976.06503008
  -Hartree energ DENC   =    -27336.57869159
  -exchange      EXHF   =         0.00000000
  -V(xc)+E(xc)   XCENC  =      1069.76726502
  PAW double counting   =     11453.83848114   -11942.90478952
  entropy T*S    EENTRO =        -0.06674264
  eigenvalues    EBANDS =     -1052.35613566
  atomic energy  EATOM  =     15171.73615219
  ---------------------------------------------------
  free energy    TOTEN  =      2582.71252721 eV

  energy without entropy =     2582.77926985  energy(sigma->0) =     2582.74589853


--------------------------------------------------------------------------------------------------------




--------------------------------------- Iteration      1(   2)  ---------------------------------------


    TRIAL :  cpu time    3.9155: real time    3.9246
    CORREC:  cpu time    0.0003: real time    0.0003
    --------------------------------------------
      LOOP:  cpu time    3.9187: real time    3.9351

 eigenvalue-minimisations  :  3664
 total energy-change (2. order) :-0.2687024E+04  (-0.2599082E+04)
 number of electron     280.0000000 magnetization       2.0000000
 augmentation part      280.0000000 magnetization       2.0000000

 Free energy of the ion-electron system (eV)
  ---------------------------------------------------
  alpha Z        PSCENC =       243.21195820
  Ewald energy   TEWEN  =     14976.06503008
  -Hartree energ DENC   =    -27336.57869159
  -exchange      EXHF   =         0.00000000
  -V(xc)+E(xc)   XCENC  =      1069.76726502
  PAW double counting   =     11453.83848114   -11942.90478952
  entropy T*S    EENTRO =        -0.00000000
  eigenvalues    EBANDS =     -3739.44725503
  atomic energy  EATOM  =     15171.73615219
  ---------------------------------------------------
  free energy    TOTEN  =      -104.31184952 eV

  energy without entropy =     -104.31184952  energy(sigma->0) =     -104.31184952


--------------------------------------------------------------------------------------------------------




--------------------------------------- Iteration      1(   3)  ---------------------------------------


    TRIAL :  cpu time    3.4695: real time    3.4772
    CORREC:  cpu time    0.0003: real time    0.0003
    --------------------------------------------
      LOOP:  cpu time    3.4748: real time    3.4883

 eigenvalue-minimisations  :  3148
 total energy-change (2. order) :-0.3992691E+03  (-0.3950940E+03)
 number of electron     280.0000000 magnetization       2.0000000
 augmentation part      280.0000000 magnetization       2.0000000

 Free energy of the ion-electron system (eV)
  ---------------------------------------------------
  alpha Z        PSCENC =       243.21195820
  Ewald energy   TEWEN  =     14976.06503008
  -Hartree energ DENC   =    -27336.57869159
  -exchange      EXHF   =         0.00000000
  -V(xc)+E(xc)   XCENC  =      1069.76726502
  PAW double counting   =     11453.83848114   -11942.90478952
  entropy T*S    EENTRO =        -0.00000000
  eigenvalues    EBANDS =     -4138.71638663
  atomic energy  EATOM  =     15171.73615219
  ---------------------------------------------------
  free energy    TOTEN  =      -503.58098112 eV

  energy without entropy =     -503.58098112  energy(sigma->0) =     -503.58098112


--------------------------------------------------------------------------------------------------------




--------------------------------------- Iteration      1(   4)  ---------------------------------------


    TRIAL :  cpu time    3.8361: real time    3.8450
    CORREC:  cpu time    0.0003: real time    0.0003
    --------------------------------------------
      LOOP:  cpu time    3.8470: real time    3.8563

 eigenvalue-minimisations  :  3568
 total energy-change (2. order) :-0.1601101E+02  (-0.1574350E+02)
 number of electron     280.0000000 magnetization       2.0000000
 augmentation part      280.0000000 magnetization       2.0000000

 Free energy of the ion-electron system (eV)
  ---------------------------------------------------
  alpha Z        PSCENC =       243.21195820
  Ewald energy   TEWEN  =     14976.06503008
  -Hartree energ DENC   =    -27336.57869159
  -exchange      EXHF   =         0.00000000
  -V(xc)+E(xc)   XCENC  =      1069.76726502
  PAW double counting   =     11453.83848114   -11942.90478952
  entropy T*S    EENTRO =        -0.00000000
  eigenvalues    EBANDS =     -4154.72739697
  atomic energy  EATOM  =     15171.73615219
  ---------------------------------------------------
  free energy    TOTEN  =      -519.59199146 eV

  energy without entropy =     -519.59199146  energy(sigma->0) =     -519.59199146


--------------------------------------------------------------------------------------------------------




--------------------------------------- Iteration      1(   5)  ---------------------------------------


    TRIAL :  cpu time    4.0464: real time    4.0573
    CORREC:  cpu time    0.0004: real time    0.0004
    CHARGE:  cpu time    0.1108: real time    0.1110
    --------------------------------------------
      LOOP:  cpu time    4.1681: real time    4.1807

 eigenvalue-minimisations  :  3816
 total energy-change (2. order) :-0.5415330E+00  (-0.5383238E+00)
 number of electron     279.9999947 magnetization       0.0000000
 augmentation part       20.1555089 magnetization       0.0292253

 Free energy of the ion-electron system (eV)
  ---------------------------------------------------
  alpha Z        PSCENC =       243.21195820
  Ewald energy   TEWEN  =     14976.06503008
  -Hartree energ DENC   =    -27336.57869159
  -exchange      EXHF   =         0.00000000
  -V(xc)+E(xc)   XCENC  =      1069.76726502
  PAW double counting   =     11453.83848114   -11942.90478952
  entropy T*S    EENTRO =        -0.00000000
  eigenvalues    EBANDS =     -4155.26892993
  atomic energy  EATOM  =     15171.73615219
  ---------------------------------------------------
  free energy    TOTEN  =      -520.13352441 eV

  energy without entropy =     -520.13352441  energy(sigma->0) =     -520.13352441


--------------------------------------------------------------------------------------------------------




--------------------------------------- Iteration      1(   6)  ---------------------------------------


    POTLOK:  cpu time    0.0571: real time    0.0571
    SETDIJ:  cpu time    0.0086: real time    0.0086
    TRIAL :  cpu time    1.8063: real time    1.8120
    CORREC:  cpu time    0.7158: real time    0.7159
    CHARGE:  cpu time    0.1085: real time    0.1085
    --------------------------------------------
      LOOP:  cpu time    2.7025: real time    2.7119

 eigenvalue-minimisations  :     0
 total energy-change (2. order) : 0.7755285E+02  (-0.3679881E+02)
 number of electron     279.9999954 magnetization       0.0000000
 augmentation part       18.9491924 magnetization       0.0167290

 Free energy of the ion-electron system (eV)
  ---------------------------------------------------
  alpha Z        PSCENC =       243.21195820
  Ewald energy   TEWEN  =     14976.06503008
  -Hartree energ DENC   =    -28467.55518119
  -exchange      EXHF   =         0.00000000
  -V(xc)+E(xc)   XCENC  =      1134.86927751
  PAW double counting   =     29603.79199877   -30104.43857992
  entropy T*S    EENTRO =        -0.00000000
  eigenvalues    EBANDS =     -3000.26132846
  atomic energy  EATOM  =     15171.73615219
  ---------------------------------------------------
  free energy    TOTEN  =      -442.58067282 eV

  energy without entropy =     -442.58067282  energy(sigma->0) =     -442.58067282


--------------------------------------------------------------------------------------------------------




--------------------------------------- Iteration      1(   7)  ---------------------------------------


    POTLOK:  cpu time    0.0569: real time    0.0576
    SETDIJ:  cpu time    0.0087: real time    0.0087
    TRIAL :  cpu time    1.7733: real time    1.7763
    CORREC:  cpu time    0.7174: real time    0.7221
    CHARGE:  cpu time    0.1057: real time    0.1057
    --------------------------------------------
      LOOP:  cpu time    2.6678: real time    2.6831

 eigenvalue-minimisations  :     0
 total energy-change (2. order) :-0.3684825E+02  (-0.4393346E+01)
 number of electron     279.9999956 magnetization       0.0000000
 augmentation part       18.5318068 magnetization       0.0153088

 Free energy of the ion-electron system (eV)
  ---------------------------------------------------
  alpha Z        PSCENC =       243.21195820
  Ewald energy   TEWEN  =     14976.06503008
  -Hartree energ DENC   =    -27844.57955950
  -exchange      EXHF   =         0.00000000
  -V(xc)+E(xc)   XCENC  =      1102.15019406
  PAW double counting   =     30476.30450996   -30981.71525701
  entropy T*S    EENTRO =        -0.00000000
  eigenvalues    EBANDS =     -3622.60194790
  atomic energy  EATOM  =     15171.73615219
  ---------------------------------------------------
  free energy    TOTEN  =      -479.42891993 eV

  energy without entropy =     -479.42891993  energy(sigma->0) =     -479.42891993


--------------------------------------------------------------------------------------------------------




--------------------------------------- Iteration      1(   8)  ---------------------------------------


    POTLOK:  cpu time    0.0575: real time    0.0575
    SETDIJ:  cpu time    0.0087: real time    0.0087
    TRIAL :  cpu time    1.7875: real time    1.7915
    CORREC:  cpu time    0.7121: real time    0.7138
    CHARGE:  cpu time    0.1071: real time    0.1072
    --------------------------------------------
      LOOP:  cpu time    2.6755: real time    2.6901

 eigenvalue-minimisations  :     0
 total energy-change (2. order) :-0.4399174E+01  (-0.1133051E+01)
 number of electron     279.9999957 magnetization       0.0000000
 augmentation part       18.4979732 magnetization       0.0143710

 Free energy of the ion-electron system (eV)
  ---------------------------------------------------
  alpha Z        PSCENC =       243.21195820
  Ewald energy   TEWEN  =     14976.06503008
  -Hartree energ DENC   =    -27948.63621804
  -exchange      EXHF   =         0.00000000
  -V(xc)+E(xc)   XCENC  =      1102.81179761
  PAW double counting   =     30736.75041045   -31232.99217723
  entropy T*S    EENTRO =        -0.00000000
  eigenvalues    EBANDS =     -3532.77504710
  atomic energy  EATOM  =     15171.73615219
  ---------------------------------------------------
  free energy    TOTEN  =      -483.82809384 eV

  energy without entropy =     -483.82809384  energy(sigma->0) =     -483.82809384


--------------------------------------------------------------------------------------------------------




--------------------------------------- Iteration      1(   9)  ---------------------------------------


    POTLOK:  cpu time    0.0570: real time    0.0570
    SETDIJ:  cpu time    0.0086: real time    0.0086
    TRIAL :  cpu time    1.7794: real time    1.7832
    CORREC:  cpu time    0.7132: real time    0.7132
    CHARGE:  cpu time    0.1062: real time    0.1062
    --------------------------------------------
      LOOP:  cpu time    2.6738: real time    2.6777

 eigenvalue-minimisations  :     0
 total energy-change (2. order) :-0.1133442E+01  (-0.4668269E+00)
 number of electron     279.9999958 magnetization       0.0000000
 augmentation part       18.4453029 magnetization       0.0105795

 Free energy of the ion-electron system (eV)
  ---------------------------------------------------
  alpha Z        PSCENC =       243.21195820
  Ewald energy   TEWEN  =     14976.06503008
  -Hartree energ DENC   =    -27990.37347830
  -exchange      EXHF   =         0.00000000
  -V(xc)+E(xc)   XCENC  =      1103.63276763
  PAW double counting   =     30713.90522478   -31217.54672783
  entropy T*S    EENTRO =        -0.00000000
  eigenvalues    EBANDS =     -3485.59246285
  atomic energy  EATOM  =     15171.73615219
  ---------------------------------------------------
  free energy    TOTEN  =      -484.96153609 eV

  energy without entropy =     -484.96153609  energy(sigma->0) =     -484.96153609


--------------------------------------------------------------------------------------------------------




--------------------------------------- Iteration      1(  10)  ---------------------------------------


    POTLOK:  cpu time    0.0572: real time    0.0572
    SETDIJ:  cpu time    0.0088: real time    0.0088
    TRIAL :  cpu time    1.7771: real time    1.7817
    CORREC:  cpu time    0.7155: real time    0.7184
    CHARGE:  cpu time    0.1064: real time    0.1064
    --------------------------------------------
      LOOP:  cpu time    2.6768: real time    2.6844

 eigenvalue-minimisations  :     0
 total energy-change (2. order) :-0.4656282E+00  (-0.1686993E+00)
 number of electron     279.9999957 magnetization       0.0000000
 augmentation part       18.4671922 magnetization       0.0083739

 Free energy of the ion-electron system (eV)
  ---------------------------------------------------
  alpha Z        PSCENC =       243.21195820
  Ewald energy   TEWEN  =     14976.06503008
  -Hartree energ DENC   =    -27962.29753298
  -exchange      EXHF   =         0.00000000
  -V(xc)+E(xc)   XCENC  =      1102.94273939
  PAW double counting   =     30638.25529545   -31137.28412336
  entropy T*S    EENTRO =        -0.00000000
  eigenvalues    EBANDS =     -3518.05668328
  atomic energy  EATOM  =     15171.73615219
  ---------------------------------------------------
  free energy    TOTEN  =      -485.42716430 eV

  energy without entropy =     -485.42716430  energy(sigma->0) =     -485.42716430


--------------------------------------------------------------------------------------------------------




--------------------------------------- Iteration      1(  11)  ---------------------------------------


    POTLOK:  cpu time    0.0570: real time    0.0570
    SETDIJ:  cpu time    0.0088: real time    0.0088
    TRIAL :  cpu time    1.7824: real time    1.7858
    CORREC:  cpu time    0.7143: real time    0.7146
    CHARGE:  cpu time    0.1059: real time    0.1079
    --------------------------------------------
      LOOP:  cpu time    2.6753: real time    2.6834

 eigenvalue-minimisations  :     0
 total energy-change (2. order) :-0.1684603E+00  (-0.6021462E-01)
 number of electron     279.9999957 magnetization       0.0000000
 augmentation part       18.4786311 magnetization       0.0061137

 Free energy of the ion-electron system (eV)
  ---------------------------------------------------
  alpha Z        PSCENC =       243.21195820
  Ewald energy   TEWEN  =     14976.06503008
  -Hartree energ DENC   =    -27956.42250372
  -exchange      EXHF   =         0.00000000
  -V(xc)+E(xc)   XCENC  =      1102.87167438
  PAW double counting   =     30597.78816377   -31098.69602609
  entropy T*S    EENTRO =        -0.00000000
  eigenvalues    EBANDS =     -3522.15007341
  atomic energy  EATOM  =     15171.73615219
  ---------------------------------------------------
  free energy    TOTEN  =      -485.59562460 eV

  energy without entropy =     -485.59562460  energy(sigma->0) =     -485.59562460


--------------------------------------------------------------------------------------------------------




--------------------------------------- Iteration      1(  12)  ---------------------------------------


    POTLOK:  cpu time    0.0572: real time    0.0572
    SETDIJ:  cpu time    0.0086: real time    0.0087
    TRIAL :  cpu time    1.7773: real time    1.7805
    CORREC:  cpu time    0.7181: real time    0.7200
    CHARGE:  cpu time    0.1055: real time    0.1055
    --------------------------------------------
      LOOP:  cpu time    2.6700: real time    2.6828

 eigenvalue-minimisations  :     0
 total energy-change (2. order) :-0.6017767E-01  (-0.2194527E-01)
 number of electron     279.9999957 magnetization       0.0000000
 augmentation part       18.4783724 magnetization       0.0044197

 Free energy of the ion-electron system (eV)
  ---------------------------------------------------
  alpha Z        PSCENC =       243.21195820
  Ewald energy   TEWEN  =     14976.06503008
  -Hartree energ DENC   =    -27958.62124300
  -exchange      EXHF   =         0.00000000
  -V(xc)+E(xc)   XCENC  =      1102.86597759
  PAW double counting   =     30589.27468673   -31089.92026669
  entropy T*S    EENTRO =        -0.00000000
  eigenvalues    EBANDS =     -3520.26809736
  atomic energy  EATOM  =     15171.73615219
  ---------------------------------------------------
  free energy    TOTEN  =      -485.65580227 eV

  energy without entropy =     -485.65580227  energy(sigma->0) =     -485.65580227


--------------------------------------------------------------------------------------------------------




--------------------------------------- Iteration      1(  13)  ---------------------------------------


    POTLOK:  cpu time    0.0566: real time    0.0566
    SETDIJ:  cpu time    0.0089: real time    0.0089
    TRIAL :  cpu time    1.7964: real time    1.8027
    CORREC:  cpu time    0.7164: real time    0.7182
    CHARGE:  cpu time    0.1051: real time    0.1051
    --------------------------------------------
      LOOP:  cpu time    2.6911: real time    2.7027

 eigenvalue-minimisations  :     0
 total energy-change (2. order) :-0.2193653E-01  (-0.7978584E-02)
 number of electron     279.9999957 magnetization       0.0000000
 augmentation part       18.4768480 magnetization       0.0030647

 Free energy of the ion-electron system (eV)
  ---------------------------------------------------
  alpha Z        PSCENC =       243.21195820
  Ewald energy   TEWEN  =     14976.06503008
  -Hartree energ DENC   =    -27955.36019598
  -exchange      EXHF   =         0.00000000
  -V(xc)+E(xc)   XCENC  =      1102.77754315
  PAW double counting   =     30599.55061911   -31099.90132423
  entropy T*S    EENTRO =        -0.00000000
  eigenvalues    EBANDS =     -3523.75752132
  atomic energy  EATOM  =     15171.73615219
  ---------------------------------------------------
  free energy    TOTEN  =      -485.67773880 eV

  energy without entropy =     -485.67773880  energy(sigma->0) =     -485.67773880


--------------------------------------------------------------------------------------------------------




--------------------------------------- Iteration      1(  14)  ---------------------------------------


    POTLOK:  cpu time    0.0595: real time    0.0595
    SETDIJ:  cpu time    0.0086: real time    0.0086
    TRIAL :  cpu time    1.7783: real time    1.7824
    CORREC:  cpu time    0.7105: real time    0.7108
    CHARGE:  cpu time    0.1058: real time    0.1058
    --------------------------------------------
      LOOP:  cpu time    2.6730: real time    2.6828

 eigenvalue-minimisations  :     0
 total energy-change (2. order) :-0.7972571E-02  (-0.2969262E-02)
 number of electron     279.9999957 magnetization       0.0000000
 augmentation part       18.4731724 magnetization       0.0020446

 Free energy of the ion-electron system (eV)
  ---------------------------------------------------
  alpha Z        PSCENC =       243.21195820
  Ewald energy   TEWEN  =     14976.06503008
  -Hartree energ DENC   =    -27954.08694332
  -exchange      EXHF   =         0.00000000
  -V(xc)+E(xc)   XCENC  =      1102.75121367
  PAW double counting   =     30610.21281053   -31110.85914960
  entropy T*S    EENTRO =        -0.00000000
  eigenvalues    EBANDS =     -3524.71678313
  atomic energy  EATOM  =     15171.73615219
  ---------------------------------------------------
  free energy    TOTEN  =      -485.68571137 eV

  energy without entropy =     -485.68571137  energy(sigma->0) =     -485.68571137


--------------------------------------------------------------------------------------------------------




--------------------------------------- Iteration      1(  15)  ---------------------------------------


    POTLOK:  cpu time    0.0577: real time    0.0594
    SETDIJ:  cpu time    0.0086: real time    0.0086
    TRIAL :  cpu time    1.7782: real time    1.7834
    CORREC:  cpu time    0.7114: real time    0.7133
    CHARGE:  cpu time    0.1056: real time    0.1056
    --------------------------------------------
      LOOP:  cpu time    2.6713: real time    2.6801

 eigenvalue-minimisations  :     0
 total energy-change (2. order) :-0.2965043E-02  (-0.1160154E-02)
 number of electron     279.9999957 magnetization       0.0000000
 augmentation part       18.4718767 magnetization       0.0012654

 Free energy of the ion-electron system (eV)
  ---------------------------------------------------
  alpha Z        PSCENC =       243.21195820
  Ewald energy   TEWEN  =     14976.06503008
  -Hartree energ DENC   =    -27955.03480113
  -exchange      EXHF   =         0.00000000
  -V(xc)+E(xc)   XCENC  =      1102.76063988
  PAW double counting   =     30613.43816181   -31113.88681268
  entropy T*S    EENTRO =        -0.00000000
  eigenvalues    EBANDS =     -3523.97900476
  atomic energy  EATOM  =     15171.73615219
  ---------------------------------------------------
  free energy    TOTEN  =      -485.68867641 eV

  energy without entropy =     -485.68867641  energy(sigma->0) =     -485.68867641


--------------------------------------------------------------------------------------------------------




--------------------------------------- Iteration      1(  16)  ---------------------------------------


    POTLOK:  cpu time    0.0565: real time    0.0565
    SETDIJ:  cpu time    0.0088: real time    0.0088
    TRIAL :  cpu time    1.7792: real time    1.7820
    CORREC:  cpu time    0.7155: real time    0.7165
    CHARGE:  cpu time    0.1070: real time    0.1072
    --------------------------------------------
      LOOP:  cpu time    2.6758: real time    2.6807

 eigenvalue-minimisations  :     0
 total energy-change (2. order) :-0.1157284E-02  (-0.4601779E-03)
 number of electron     279.9999957 magnetization       0.0000000
 augmentation part       18.4715085 magnetization       0.0007123

 Free energy of the ion-electron system (eV)
  ---------------------------------------------------
  alpha Z        PSCENC =       243.21195820
  Ewald energy   TEWEN  =     14976.06503008
  -Hartree energ DENC   =    -27955.09463916
  -exchange      EXHF   =         0.00000000
  -V(xc)+E(xc)   XCENC  =      1102.76225749
  PAW double counting   =     30610.77158783   -31111.27061069
  entropy T*S    EENTRO =        -0.00000000
  eigenvalues    EBANDS =     -3523.87156964
  atomic energy  EATOM  =     15171.73615219
  ---------------------------------------------------
  free energy    TOTEN  =      -485.68983369 eV

  energy without entropy =     -485.68983369  energy(sigma->0) =     -485.68983369


--------------------------------------------------------------------------------------------------------




--------------------------------------- Iteration      1(  17)  ---------------------------------------


    POTLOK:  cpu time    0.0572: real time    0.0572
    SETDIJ:  cpu time    0.0087: real time    0.0087
    TRIAL :  cpu time    1.7796: real time    1.7838
    CORREC:  cpu time    0.7323: real time    0.7324
    CHARGE:  cpu time    0.1137: real time    0.1137
    --------------------------------------------
      LOOP:  cpu time    2.6978: real time    2.7063

 eigenvalue-minimisations  :     0
 total energy-change (2. order) :-0.4591707E-03  (-0.1809115E-03)
 number of electron     279.9999957 magnetization       0.0000000
 augmentation part       18.4714046 magnetization       0.0003642

 Free energy of the ion-electron system (eV)
  ---------------------------------------------------
  alpha Z        PSCENC =       243.21195820
  Ewald energy   TEWEN  =     14976.06503008
  -Hartree energ DENC   =    -27954.97566402
  -exchange      EXHF   =         0.00000000
  -V(xc)+E(xc)   XCENC  =      1102.76163146
  PAW double counting   =     30606.33598600   -31106.85027773
  entropy T*S    EENTRO =        -0.00000000
  eigenvalues    EBANDS =     -3523.97510905
  atomic energy  EATOM  =     15171.73615219
  ---------------------------------------------------
  free energy    TOTEN  =      -485.69029287 eV

  energy without entropy =     -485.69029287  energy(sigma->0) =     -485.69029287


--------------------------------------------------------------------------------------------------------




--------------------------------------- Iteration      1(  18)  ---------------------------------------


    POTLOK:  cpu time    0.0665: real time    0.0665
    SETDIJ:  cpu time    0.0087: real time    0.0087
    TRIAL :  cpu time    1.7758: real time    1.7816
    CORREC:  cpu time    0.7133: real time    0.7149
    CHARGE:  cpu time    0.1065: real time    0.1065
    --------------------------------------------
      LOOP:  cpu time    2.6802: real time    2.6886

 eigenvalue-minimisations  :     0
 total energy-change (2. order) :-0.1804059E-03  (-0.6742193E-04)
 number of electron     279.9999957 magnetization       0.0000000
 augmentation part       18.4713735 magnetization       0.0001652

 Free energy of the ion-electron system (eV)
  ---------------------------------------------------
  alpha Z        PSCENC =       243.21195820
  Ewald energy   TEWEN  =     14976.06503008
  -Hartree energ DENC   =    -27955.21884123
  -exchange      EXHF   =         0.00000000
  -V(xc)+E(xc)   XCENC  =      1102.76730540
  PAW double counting   =     30603.51149773   -31103.99895682
  entropy T*S    EENTRO =        -0.00000000
  eigenvalues    EBANDS =     -3523.76461882
  atomic energy  EATOM  =     15171.73615219
  ---------------------------------------------------
  free energy    TOTEN  =      -485.69047327 eV

  energy without entropy =     -485.69047327  energy(sigma->0) =     -485.69047327


--------------------------------------------------------------------------------------------------------




--------------------------------------- Iteration      1(  19)  ---------------------------------------


    POTLOK:  cpu time    0.0576: real time    0.0576
    SETDIJ:  cpu time    0.0088: real time    0.0088
    TRIAL :  cpu time    1.7802: real time    1.7838
    CORREC:  cpu time    0.7120: real time    0.7121
    EDDIAG:  cpu time    0.5023: real time    0.5037
    CHARGE:  cpu time    0.1055: real time    0.1056
    --------------------------------------------
      LOOP:  cpu time    3.1743: real time    3.1815

 eigenvalue-minimisations  :     0
 total energy-change (2. order) :-0.6707155E-04  (-0.2231498E-04)
 number of electron     279.9999957 magnetization       0.0000000
 augmentation part       18.4713141 magnetization       0.0000679

 Free energy of the ion-electron system (eV)
  ---------------------------------------------------
  alpha Z        PSCENC =       243.21195820
  Ewald energy   TEWEN  =     14976.06503008
  -Hartree energ DENC   =    -27955.26275591
  -exchange      EXHF   =         0.00000000
  -V(xc)+E(xc)   XCENC  =      1102.76834687
  PAW double counting   =     30602.52831994   -31103.03028623
  entropy T*S    EENTRO =        -0.00000000
  eigenvalues    EBANDS =     -3523.70730549
  atomic energy  EATOM  =     15171.73615219
  ---------------------------------------------------
  free energy    TOTEN  =      -485.69054034 eV

  energy without entropy =     -485.69054034  energy(sigma->0) =     -485.69054034


--------------------------------------------------------------------------------------------------------


  average scaling for gradient   0.7829


 average (electrostatic) potential at core
  the test charge radii are     0.6991  0.7089  0.9911  0.6991  0.7215
  (the norm of the test charge is              1.0000)
       1 -59.9366       2 -59.6152       3 -59.2141       4 -59.9334       5 -59.3711
       6 -59.8711       7 -59.2995       8 -59.7923       9 -59.6383      10 -59.7077
      11 -60.4492      12 -59.2156      13 -59.8473      14 -60.0892      15 -59.2807
      16 -60.0246      17 -59.6278      18 -60.1081      19 -58.7988      20 -59.8007
      21 -60.4919      22 -59.4646      23 -59.8958      24 -59.1926      25 -73.0376
      26 -71.5080      27 -71.4961      28 -70.9303      29 -71.1762      30 -71.4983
      31 -71.5976      32 -74.1226      33 -72.5480      34 -70.8984      35 -71.3916
      36 -72.5687      37 -72.0139      38 -71.5331      39 -70.8049      40 -73.1747
      41 -73.1201      42 -71.7218      43 -71.7160      44 -71.2263      45 -71.5377
      46 -71.6366      47 -71.7484      48 -74.0991      49 -73.7102      50 -70.8523
      51 -70.9835      52 -71.5045      53 -71.4826      54 -71.1053      55 -71.1949
      56 -73.4070      57 -81.4885      58 -58.9783      59 -80.7178



 E-fermi :  -2.0085     XC(G=0):  -4.6936     alpha+bet : -3.6529


 spin component 1

 k-point     1 :       0.0000    0.0000    0.0000
  band No.  band energies     occupation 
      1     -26.8966      1.00000
      2     -26.8712      1.00000
      3     -26.7505      1.00000
      4     -26.7398      1.00000
      5     -26.6779      1.00000
      6     -26.4277      1.00000
      7     -25.8683      1.00000
      8     -25.4704      1.00000
      9     -25.2698      1.00000
     10     -24.7287      1.00000
     11     -24.5394      1.00000
     12     -24.3500      1.00000
     13     -24.2279      1.00000
     14     -23.3538      1.00000
     15     -23.3064      1.00000
     16     -23.1693      1.00000
     17     -22.9720      1.00000
     18     -22.7108      1.00000
     19     -22.6633      1.00000
     20     -22.0746      1.00000
     21     -21.9538      1.00000
     22     -21.8733      1.00000
     23     -21.2974      1.00000
     24     -21.2390      1.00000
     25     -21.0193      1.00000
     26     -20.9437      1.00000
     27     -20.8632      1.00000
     28     -20.7411      1.00000
     29     -20.6635      1.00000
     30     -20.3956      1.00000
     31     -20.2091      1.00000
     32     -20.0816      1.00000
     33     -20.0424      1.00000
     34     -19.8317      1.00000
     35     -19.6716      1.00000
     36     -19.6324      1.00000
     37     -19.3354      1.00000
     38     -19.1115      1.00000
     39     -16.5000      1.00000
     40     -16.4490      1.00000
     41     -16.1672      1.00000
     42     -16.0892      1.00000
     43     -16.0162      1.00000
     44     -15.8571      1.00000
     45     -15.6648      1.00000
     46     -15.2037      1.00000
     47     -14.8298      1.00000
     48     -14.3838      1.00000
     49     -14.3268      1.00000
     50     -14.1080      1.00000
     51     -13.7692      1.00000
     52     -13.5633      1.00000
     53     -13.4594      1.00000
     54     -13.2576      1.00000
     55     -13.0787      1.00000
     56     -13.0365      1.00000
     57     -13.0144      1.00000
     58     -12.7436      1.00000
     59     -12.6208      1.00000
     60     -12.5493      1.00000
     61     -12.4686      1.00000
     62     -12.3569      1.00000
     63     -12.2683      1.00000
     64     -12.0593      1.00000
     65     -11.7656      1.00000
     66     -11.6322      1.00000
     67     -11.5896      1.00000
     68     -11.4875      1.00000
     69     -11.2118      1.00000
     70     -11.1945      1.00000
     71     -11.0161      1.00000
     72     -10.9318      1.00000
     73     -10.7017      1.00000
     74     -10.6178      1.00000
     75     -10.3150      1.00000
     76     -10.1942      1.00000
     77     -10.0764      1.00000
     78     -10.0256      1.00000
     79      -9.8478      1.00000
     80      -9.7375      1.00000
     81      -9.6087      1.00000
     82      -9.3999      1.00000
     83      -9.0891      1.00000
     84      -8.9189      1.00000
     85      -8.9106      1.00000
     86      -8.9069      1.00000
     87      -8.6826      1.00000
     88      -8.6495      1.00000
     89      -8.2376      1.00000
     90      -8.2100      1.00000
     91      -8.1356      1.00000
     92      -8.1063      1.00000
     93      -7.9310      1.00000
     94      -7.6011      1.00000
     95      -7.2541      1.00000
     96      -7.1699      1.00000
     97      -6.9635      1.00000
     98      -6.8374      1.00000
     99      -6.7326      1.00000
    100      -6.6669      1.00000
    101      -6.6284      1.00000
    102      -6.5668      1.00000
    103      -6.5145      1.00000
    104      -6.4525      1.00000
    105      -6.3334      1.00000
    106      -6.3099      1.00000
    107      -6.2382      1.00000
    108      -6.1780      1.00000
    109      -6.1219      1.00000
    110      -6.0800      1.00000
    111      -5.9059      1.00000
    112      -5.8582      1.00000
    113      -5.8209      1.00000
    114      -5.7220      1.00000
    115      -5.5347      1.00000
    116      -5.4406      1.00000
    117      -5.2844      1.00000
    118      -5.2220      1.00000
    119      -5.1185      1.00000
    120      -4.9884      1.00000
    121      -4.7955      1.00000
    122      -4.6468      1.00000
    123      -4.5356      1.00000
    124      -4.4776      1.00000
    125      -4.4308      1.00000
    126      -4.3647      1.00000
    127      -4.3233      1.00000
    128      -4.3133      1.00000
    129      -4.1901      1.00000
    130      -4.1053      1.00000
    131      -4.0288      1.00000
    132      -4.0124      1.00000
    133      -3.8625      1.00000
    134      -3.8168      1.00000
    135      -3.6975      1.00000
    136      -3.6110      1.00000
    137      -3.5279      1.00000
    138      -3.1977      1.00000
    139      -2.8910      1.00000
    140      -2.5189      1.00000
    141      -1.1874      0.00000
[...]
    156       1.1982      0.00000
    157       1.3211      0.00000
    158       1.6905      0.00000
    159       1.9784      0.00000
    160       2.1004      0.00000
    161       2.1805      0.00000
    162       2.3519      0.00000
    163       2.3769      0.00000
    164       2.6158      0.00000
    165       2.8017      0.00000
    166       2.9743      0.00000
    167       3.2041      0.00000
    168       3.3212      0.00000
    169       3.5270      0.00000
    170       3.6181      0.00000
    171       3.7617      0.00000
    172       3.8926      0.00000


--------------------------------------------------------------------------------------------------------


 soft charge-density along one line, spin component           1
         0         1         2         3         4         5         6         7         8         9
 total charge-density along one line

 soft charge-density along one line, spin component           2
         0         1         2         3         4         5         6         7         8         9
 total charge-density along one line

 pseudopotential strength for first ion, spin component:           1
 10.315  13.720   0.002  -0.003  -0.001  -0.006   0.008   0.001
 13.720  18.248   0.003  -0.004  -0.001  -0.007   0.011   0.002
  0.002   0.003  -4.445   0.003   0.001   8.700  -0.004  -0.002
 -0.003  -0.004   0.003  -4.438  -0.000  -0.004   8.691   0.001
 -0.001  -0.001   0.001  -0.000  -4.447  -0.002   0.001   8.703
 -0.006  -0.007   8.700  -0.004  -0.002 -19.173   0.004   0.002
  0.008   0.011  -0.004   8.691   0.001   0.004 -19.161  -0.001
  0.001   0.002  -0.002   0.001   8.703   0.002  -0.001 -19.174
 pseudopotential strength for first ion, spin component:           2
 10.315  13.720   0.002  -0.003  -0.001  -0.006   0.008   0.001
 13.720  18.248   0.003  -0.004  -0.001  -0.007   0.011   0.002
  0.002   0.003  -4.445   0.003   0.001   8.700  -0.004  -0.002
 -0.003  -0.004   0.003  -4.438  -0.000  -0.004   8.691   0.001
 -0.001  -0.001   0.001  -0.000  -4.447  -0.002   0.001   8.703
 -0.006  -0.007   8.700  -0.004  -0.002 -19.173   0.004   0.002
  0.008   0.011  -0.004   8.691   0.001   0.004 -19.161  -0.001
  0.001   0.002  -0.002   0.001   8.703   0.002  -0.001 -19.174
 total augmentation occupancy for first ion, spin component:           1
  8.434  -3.904  -0.052   0.111   0.112  -0.006   0.020   0.017
 -3.904   1.927   0.001  -0.017  -0.058   0.002  -0.010  -0.009
 -0.052   0.001   1.655  -0.166  -0.040   0.159  -0.028  -0.004
  0.111  -0.017  -0.166   1.174  -0.001  -0.028   0.074  -0.002
  0.112  -0.058  -0.040  -0.001   1.864  -0.004  -0.002   0.186
 -0.006   0.002   0.159  -0.028  -0.004   0.018  -0.004  -0.001
  0.020  -0.010  -0.028   0.074  -0.002  -0.004   0.006  -0.000
  0.017  -0.009  -0.004  -0.002   0.186  -0.001  -0.000   0.022
 total augmentation occupancy for first ion, spin component:           2
 -0.000  -0.000  -0.000   0.000  -0.000  -0.000   0.000  -0.000
 -0.000   0.000   0.000  -0.000   0.000   0.000  -0.000   0.000
 -0.000   0.000  -0.000   0.000   0.000   0.000  -0.000   0.000
  0.000  -0.000   0.000   0.000  -0.000   0.000   0.000   0.000
 -0.000   0.000   0.000  -0.000   0.000  -0.000  -0.000   0.000
 -0.000   0.000   0.000   0.000  -0.000   0.000  -0.000   0.000
  0.000  -0.000  -0.000   0.000  -0.000  -0.000  -0.000   0.000
 -0.000   0.000   0.000   0.000   0.000   0.000   0.000   0.000


------------------------ aborting loop because EDIFF is reached ----------------------------------------


    FORLOC:  cpu time    0.0082: real time    0.0082
    FORNL :  cpu time    0.4088: real time    0.4106
    STRESS:  cpu time    1.2398: real time    1.2421
    FORCOR:  cpu time    0.0593: real time    0.0593
    OFIELD:  cpu time    0.0006: real time    0.0006

 ---------------------------------------------------------------------------------------------

         DFTD3 V3.0 Rev 1        
 Edisp (eV)   -4.45095

 E6    (eV) :    -3.1606
 E8    (eV) :    -1.2904
 % E8        : 28.99
    FORVDW:  cpu time    0.1903: real time    0.2603

  FORCE on cell =-STRESS in cart. coord.  units (eV):
  Direction    XX          YY          ZZ          XY          YZ          ZX
  --------------------------------------------------------------------------------------
  Alpha Z   243.21196   243.21196   243.21196
  Ewald   19663.22587 14579.44621-19275.93311  -714.21533  -361.36249   535.35997
  Hartree 22399.77789 18759.26711-13212.95091  -483.48331  -349.41990   165.34860
  E(xc)   -1176.65440 -1182.58232 -1182.34841    -0.64862     0.19190     2.19890
  Local  -45643.99642-37016.13952 28796.40945  1174.50834   718.24347  -654.78047
  n-local  -482.79652  -471.24896  -496.47050     2.12443     2.20208    -0.98857
  augment   152.86668   152.01681   153.71659     0.80592    -0.05226    -0.08212
  Kinetic  4885.74509  4940.53204  4967.59837    10.10113    -9.78546   -46.74438
  Fock        0.00000     0.00000     0.00000     0.00000     0.00000     0.00000
  vdW        -1.43592    -1.64865    -0.49139    -0.08656    -0.00604     0.25717
  -------------------------------------------------------------------------------------
  Total      39.94425     2.85468    -7.25797   -10.89400     0.01131     0.56910
  in kB      41.77182     2.98529    -7.59004   -11.39243     0.01182     0.59514
  external pressure =       12.39 kB  Pullay stress =        0.00 kB


 VOLUME and BASIS-vectors are now :
 -----------------------------------------------------------------------------
  energy-cutoff  :      440.00
  volume of cell :     1532.08
      direct lattice vectors                 reciprocal lattice vectors
    11.905344842 -0.164036808  0.000000000     0.084686476  0.050121063 -0.000000000
    -5.952672421 10.057864255  0.000000000     0.001381178  0.100242126 -0.000000000
     0.000000000  0.000000000 12.900000000    -0.000000000 -0.000000000  0.077519380

  length of vectors
    11.906474872 11.687383895 12.900000000     0.098406911  0.100251641  0.077519380


 FORCES acting on ions:
    Electron-Ion                     Ewald-Force                    Non-Local-Force
 -----------------------------------------------------------------------------------------------
   -.130E+02 0.663E+02 0.258E+03   0.134E+02 -.682E+02 -.255E+03   -.422E+00 0.178E+01 -.279E+01
   -.331E+01 -.437E+02 0.230E+03   0.596E+01 0.443E+02 -.228E+03   -.264E+01 -.615E+00 -.236E+01
   -.168E+02 0.916E+01 0.221E+03   0.142E+02 -.761E+01 -.220E+03   0.263E+01 -.155E+01 -.732E+00
   0.291E+02 -.976E+01 0.132E+03   -.295E+02 0.899E+01 -.136E+03   0.462E+00 0.793E+00 0.349E+01
   -.149E+02 0.129E+02 0.172E+03   0.158E+02 -.144E+02 -.175E+03   -.927E+00 0.156E+01 0.207E+01
   -.651E+02 -.612E+01 0.113E+03   0.676E+02 0.703E+01 -.115E+03   -.258E+01 -.876E+00 0.154E+01
   0.346E+02 0.123E+02 -.589E+02   -.342E+02 -.147E+02 0.560E+02   -.361E+00 0.241E+01 0.288E+01
   0.440E+02 0.252E+02 -.728E+02   -.420E+02 -.245E+02 0.720E+02   -.198E+01 -.637E+00 0.791E+00
   -.189E+02 -.513E+02 -.143E+03   0.162E+02 0.521E+02 0.142E+03   0.270E+01 -.685E+00 0.789E+00
   0.251E+02 -.302E+02 0.867E+02   -.268E+02 0.318E+02 -.875E+02   0.175E+01 -.167E+01 0.727E+00
   0.119E+03 -.983E+02 -.300E+03   -.120E+03 0.962E+02 0.301E+03   0.140E+01 0.210E+01 -.892E+00
   -.304E+02 -.318E+01 -.342E+02   0.322E+02 0.261E+01 0.368E+02   -.189E+01 0.596E+00 -.267E+01
   -.284E+02 0.310E+00 0.593E+02   0.283E+02 -.354E+01 -.580E+02   0.114E+00 0.315E+01 -.121E+01
   0.109E+03 0.512E+02 0.297E+03   -.108E+03 -.495E+02 -.299E+03   -.119E+01 -.167E+01 0.207E+01
   0.125E+02 0.462E+02 -.605E+02   -.158E+02 -.442E+02 0.611E+02   0.336E+01 -.209E+01 -.742E+00
   0.649E+02 0.330E+02 0.134E+03   -.678E+02 -.327E+02 -.135E+03   0.289E+01 -.233E+00 0.150E+01
   0.983E+01 -.756E+01 0.364E+03   -.885E+01 0.588E+01 -.367E+03   -.959E+00 0.173E+01 0.236E+01
   -.170E+02 -.169E+03 -.210E+03   0.196E+02 0.171E+03 0.210E+03   -.270E+01 -.217E+01 0.688E+00
   -.105E+03 0.414E+02 -.151E+03   0.103E+03 -.464E+02 0.157E+03   0.220E+01 0.493E+01 -.564E+01
   -.373E+02 0.123E+01 -.633E+02   0.401E+02 0.497E+00 0.619E+02   -.268E+01 -.171E+01 0.150E+01
   -.106E+03 -.754E+02 -.378E+03   0.106E+03 0.771E+02 0.379E+03   0.765E+00 -.165E+01 -.102E+01
   0.599E+02 -.143E+03 0.188E+03   -.624E+02 0.145E+03 -.187E+03   0.255E+01 -.143E+01 -.174E+01
   -.314E+02 -.517E+02 -.232E+03   0.316E+02 0.510E+02 0.235E+03   -.183E+00 0.709E+00 -.338E+01
   -.596E+02 0.540E+02 -.140E+03   0.614E+02 -.530E+02 0.141E+03   -.178E+01 -.114E+01 -.183E+01
   -.649E+02 0.157E+02 0.407E+03   0.677E+02 -.143E+02 -.423E+03   -.288E+01 -.135E+01 0.160E+02
   -.207E+03 0.507E+02 0.358E+03   0.238E+03 -.409E+02 -.377E+03   -.309E+02 -.982E+01 0.187E+02
   0.326E+02 0.305E+02 0.341E+03   -.462E+02 -.383E+02 -.375E+03   0.136E+02 0.781E+01 0.342E+02
   0.249E+02 0.175E+03 0.310E+03   -.158E+02 -.200E+03 -.336E+03   -.916E+01 0.248E+02 0.264E+02
   -.111E+03 0.772E+02 0.466E+03   0.119E+03 -.101E+03 -.495E+03   -.877E+01 0.238E+02 0.290E+02
   0.671E+02 0.640E+02 0.388E+03   -.805E+02 -.629E+02 -.423E+03   0.134E+02 -.113E+01 0.350E+02
   -.169E+03 -.796E+02 0.195E+03   0.199E+03 0.793E+02 -.215E+03   -.301E+02 0.351E+00 0.200E+02
   -.926E+01 -.223E+02 -.941E+01   0.917E+01 0.229E+02 0.955E+01   0.116E+00 -.523E+00 -.149E+00
   0.539E+02 0.456E+02 -.243E+03   -.568E+02 -.525E+02 0.259E+03   0.290E+01 0.685E+01 -.161E+02
   -.915E+02 0.650E+02 -.273E+03   0.115E+03 -.657E+02 0.301E+03   -.231E+02 0.656E+00 -.284E+02
   0.116E+03 -.151E+03 0.175E+03   -.148E+03 0.165E+03 -.175E+03   0.317E+02 -.134E+02 -.631E+00
   0.403E+02 -.440E+02 -.608E+03   -.431E+02 0.280E+02 0.634E+03   0.277E+01 0.160E+02 -.260E+02
   0.226E+03 0.486E+02 -.455E+03   -.243E+03 -.669E+02 0.480E+03   0.169E+02 0.183E+02 -.247E+02
   0.993E+02 -.574E+02 0.124E+03   -.118E+03 0.774E+02 -.126E+03   0.192E+02 -.200E+02 0.205E+01
   -.616E+02 0.934E+02 -.176E+03   0.824E+02 -.107E+03 0.204E+03   -.209E+02 0.133E+02 -.273E+02
   -.392E+02 -.140E+03 0.278E+03   0.431E+02 0.146E+03 -.282E+03   -.394E+01 -.677E+01 0.456E+01
   -.370E+02 0.530E+02 0.156E+02   0.460E+02 -.483E+02 -.793E+01   -.899E+01 -.477E+01 -.774E+01
   -.134E+03 -.221E+03 -.241E+03   0.154E+03 0.250E+03 0.249E+03   -.195E+02 -.288E+02 -.795E+01
   0.137E+03 0.296E+02 0.250E+03   -.168E+03 -.316E+02 -.268E+03   0.309E+02 0.208E+01 0.176E+02
   -.284E+02 0.485E+02 0.584E+03   0.373E+02 -.597E+02 -.617E+03   -.886E+01 0.113E+02 0.335E+02
   0.102E+03 0.218E+03 0.547E+03   -.106E+03 -.246E+03 -.569E+03   0.453E+01 0.284E+02 0.221E+02
   0.182E+03 0.805E+02 0.338E+03   -.211E+03 -.703E+02 -.354E+03   0.288E+02 -.103E+02 0.162E+02
   -.190E+03 -.283E+03 -.475E+03   0.216E+03 0.303E+03 0.489E+03   -.258E+02 -.191E+02 -.146E+02
   0.101E+03 -.146E+03 -.171E+03   -.103E+03 0.150E+03 0.171E+03   0.237E+01 -.447E+01 0.341E+00
   -.135E+03 0.219E+02 -.155E+03   0.136E+03 -.282E+02 0.149E+03   -.347E+00 0.628E+01 0.620E+01
   -.233E+03 0.432E+02 -.369E+03   0.257E+03 -.336E+02 0.393E+03   -.237E+02 -.967E+01 -.246E+02
   0.235E+03 -.212E+03 0.380E+03   -.266E+03 0.227E+03 -.385E+03   0.311E+02 -.149E+02 0.472E+01
   -.367E+02 0.148E+01 -.513E+03   0.418E+02 -.165E+02 0.548E+03   -.512E+01 0.150E+02 -.351E+02
   -.973E+02 -.590E+01 -.476E+03   0.957E+02 -.549E+01 0.512E+03   0.155E+01 0.114E+02 -.365E+02
   0.175E+03 -.155E+03 0.109E+03   -.198E+03 0.180E+03 -.106E+03   0.229E+02 -.248E+02 -.268E+01
   -.132E+03 0.787E+01 -.372E+03   0.157E+03 -.208E+01 0.398E+03   -.256E+02 -.583E+01 -.259E+02
   -.218E+02 0.127E+02 0.215E+02   0.230E+02 -.123E+02 -.192E+02   -.114E+01 -.443E+00 -.229E+01
   0.281E+03 0.601E+03 -.107E+04   -.289E+03 -.619E+03 0.108E+04   0.826E+01 0.182E+02 -.119E+02
   -.105E+03 -.418E+02 0.690E+02   0.117E+03 0.511E+02 -.918E+02   -.115E+02 -.934E+01 0.228E+02
   0.731E+02 0.717E+02 -.125E+03   -.986E+02 -.924E+02 0.175E+03   0.255E+02 0.207E+02 -.507E+02
 -----------------------------------------------------------------------------------------------
   0.296E+01 -.413E+02 0.383E+02   0.171E-12 -.426E-13 -.398E-12   -.297E+01 0.413E+02 -.384E+02


 POSITION                                       TOTAL-FORCE (eV/Angst)
 -----------------------------------------------------------------------------------
     -0.04195      1.89234      4.41903        -0.001543     -0.028831      0.030315
      0.93742      4.13125      4.50964        -0.024358      0.032408      0.038408
     -1.39363      3.72926      4.25262        -0.043830     -0.004779      0.010678
      5.67869     -0.06121      6.37517         0.030444     -0.000235      0.021966
      3.05581      4.06940      5.08188        -0.024824     -0.026251     -0.021520
      1.16600      0.45540      5.58205         0.025947      0.036814     -0.002387
     -3.31144      6.93242      6.43786         0.012449     -0.019442     -0.018688
     -1.64658      8.46094      7.24062         0.060874      0.008458      0.036495
     -3.84049      9.13588      7.04182         0.029202      0.021281     -0.047630
      1.57810      5.67973      6.07634         0.021671      0.003389     -0.007409
     -0.00545      9.05984      8.58207        -0.014315     -0.005079      0.003085
     -2.43990      5.05639      5.64496        -0.010501     -0.025822     -0.005259
      6.61261      1.95194      6.07784        -0.010002     -0.020496     -0.021110
      6.55931      3.86113      4.36156        -0.015906     -0.016037     -0.046188
      5.06035      3.77462      5.99551         0.002161     -0.059041     -0.054219
     10.66841      0.23196      5.64780        -0.001422      0.017370      0.027553
      8.51228      4.00344      3.64285         0.005686      0.003852     -0.009505
      7.32994      0.88631      7.91230        -0.010594     -0.020094     -0.006020
      2.49430      6.95174      7.90376         0.058767     -0.074118      0.014197
      3.84538      9.10956      7.36240         0.038228     -0.026697      0.022379
      2.09314      9.16224      8.85357         0.019367     -0.022195      0.003582
      7.34434      5.74630      4.88972         0.021847     -0.016931     -0.005776
      6.00688      9.46488      7.53901         0.015525      0.013411      0.012804
      3.82020      5.26439      7.09781         0.022473     -0.019098      0.005090
     -0.09092      3.23563      4.04992        -0.016287      0.064006      0.010563
      1.14930      1.33848      4.60432        -0.019134      0.006798      0.035734
     -1.14709      9.02259      6.13293        -0.001364     -0.013379     -0.003351
      4.19964      3.43925      5.03254        -0.038206     -0.023353     -0.005916
      2.13655      3.71346      4.18616        -0.008289     -0.035269      0.015252
      5.94955      0.92996      5.52613        -0.004646     -0.030439      0.018993
     -3.70065      9.85638      5.94891        -0.037308      0.027507     -0.002690
     -0.01312      0.15096      6.27705         0.024664      0.062828     -0.008851
     -2.97919      8.03658      7.16982        -0.008318     -0.005734      0.001590
     -2.42064      5.94229      6.61707         0.017150     -0.016695     -0.014103
      0.62978      5.20645      5.26380        -0.019009      0.016815      0.006309
      0.95664      8.59787      9.40292        -0.036351      0.011736     -0.017822
     -1.15148      8.41594      8.46783         0.020401      0.011648      0.002343
      1.41659      6.70307      6.93715         0.027796      0.007484      0.025024
     -1.57115      4.06534      5.53805        -0.039397     -0.004217      0.013796
      8.53146      5.02658      4.61651        -0.026086      0.002424      0.013432
      6.33097      3.24563      5.54365        -0.012795     -0.013018     -0.028365
      7.35640      2.00618      7.17906        -0.005527     -0.003314     -0.016572
      3.64410      9.60852      6.14141         0.010858      0.036612     -0.009480
     -2.18448      3.77951      3.20556         0.013012      0.035758      0.000001
      7.39087      3.34886      3.44321         0.033786      0.027022     -0.026243
     10.65997      1.13252      4.67601         0.029124      0.017551      0.006150
      8.22177      0.45886      8.77852         0.006489      0.014967     -0.029593
      6.23722      0.00742      7.66753        -0.013173      0.023134      0.014920
      2.77205      8.40405      8.02475         0.035440      0.004044      0.005217
      3.67609      6.21913      7.94761        -0.014075     -0.000605      0.010716
      6.23377      5.20867      4.41272         0.000412      0.029922      0.001470
     -4.73854      9.19675      8.01406         0.004252      0.009217      0.016989
      4.88823      9.15325      8.17356        -0.016297     -0.038239      0.006340
      7.47990      6.80663      5.69645        -0.053958     -0.020452     -0.040904
      4.96337      4.51822      7.05724        -0.028381     -0.039337     -0.029360
      2.80890      4.99144      6.09052        -0.007912     -0.001160      0.000032
      0.83133      6.41827      8.99772        -0.032089      0.061792      0.023283
      1.07347      5.68704     12.12103        -0.027929      0.011594      0.058025
      0.59132      5.29663      0.18004         0.035801      0.010514     -0.033771
 -----------------------------------------------------------------------------------
    total drift:                               -0.013923      0.026839     -0.018233


--------------------------------------------------------------------------------------------------------



  FREE ENERGIE OF THE ION-ELECTRON SYSTEM (eV)
  ---------------------------------------------------
  free  energy   TOTEN  =      -490.14873928 eV

  energy  without entropy=     -490.14873928  energy(sigma->0) =     -490.14873928

 d Force = 0.2453206E-02[ 0.170E-02, 0.320E-02]  d Energy = 0.2424385E-02 0.288E-04
 d Force = 0.3135448E+01[ 0.314E+01, 0.313E+01]  d Ewald  = 0.3135450E+01-0.200E-05


--------------------------------------------------------------------------------------------------------


    POTLOK:  cpu time    0.0869: real time    0.0869


--------------------------------------------------------------------------------------------------------


 Conjugate gradient step on ions:
 trial-energy change:   -0.002424  1 .order   -0.002453   -0.003202   -0.001705
  (g-gl).g = 0.470E-02      g.g   = 0.472E-02  gl.gl    = 0.590E-02
 g(Force)  = 0.472E-02   g(Stress)= 0.000E+00 ortho     = 0.266E-04
 gamma     =   0.79650
 trial     =   0.67515
 opt step  =   1.44370  (harmonic =   1.44370) maximal distance =0.00507954
 next E    =  -490.149738   (d E  =  -0.00342)


--------------------------------------------------------------------------------------------------------


  
 reached required accuracy - stopping structural energy minimisation
     LOOP+:  cpu time   20.9067: real time   21.1064
    4ORBIT:  cpu time    0.0000: real time    0.0000

 total amount of memory used by VASP MPI-rank0    87669. kBytes
=======================================================================

   base      :      30000. kBytes
   nonlr-proj:       2613. kBytes
   fftplans  :       2461. kBytes
   grid      :       7332. kBytes
   one-center:        155. kBytes
   wavefun   :      45108. kBytes

  
  
 General timing and accounting informations for this job:
 ========================================================
  
                  Total CPU time used (sec):      161.332
                            User time (sec):      157.541
                          System time (sec):        3.791
                         Elapsed time (sec):      163.180
  
                   Maximum memory used (kb):      184108.
                   Average memory used (kb):           0.
  
                          Minor page faults:        87322
                          Major page faults:            0
                 Voluntary context switches:         2060
