       N       E                     dE             d eps       ncg     rms          rms(c)
DAV:   1     0.255051668712E+04    0.25505E+04   -0.11191E+05  4360   0.106E+03
DAV:   2    -0.238738244616E+03   -0.27893E+04   -0.26622E+04  5464   0.281E+02
DAV:   3    -0.700173837680E+03   -0.46144E+03   -0.45730E+03  4592   0.120E+02
DAV:   4    -0.716837798238E+03   -0.16664E+02   -0.16517E+02  4656   0.282E+01
DAV:   5    -0.717386426598E+03   -0.54863E+00   -0.54664E+00  5320   0.428E+00    0.479E+01
DAV:   6    -0.712181159681E+03    0.52053E+01   -0.71014E+01  4760   0.305E+01    0.724E+01
DAV:   7    -0.675377394885E+03    0.36804E+02   -0.75344E+01  5288   0.594E+01    0.254E+01
DAV:   8    -0.668952381046E+03    0.64250E+01   -0.31578E+01  4816   0.129E+01    0.231E+01
DAV:   9    -0.664863398073E+03    0.40890E+01   -0.21707E+01  4600   0.141E+01    0.153E+01
DAV:  10    -0.663430263021E+03    0.14331E+01   -0.90843E+00  5280   0.113E+01    0.751E+00
DAV:  11    -0.663288961113E+03    0.14130E+00   -0.10383E+00  5064   0.313E+00    0.571E+00
DAV:  12    -0.663248604533E+03    0.40357E-01   -0.45135E-01  4504   0.200E+00    0.339E+00
DAV:  13    -0.663241998245E+03    0.66063E-02   -0.22248E-01  4832   0.153E+00    0.210E+00
DAV:  14    -0.663252304519E+03   -0.10306E-01   -0.55379E-02  4568   0.617E-01    0.182E+00
DAV:  15    -0.663253888198E+03   -0.15837E-02   -0.14447E-02  4568   0.284E-01    0.139E+00
DAV:  16    -0.663251621584E+03    0.22666E-02   -0.42014E-03  5096   0.184E-01    0.985E-01
DAV:  17    -0.663251315314E+03    0.30627E-03   -0.26232E-03  4648   0.116E-01    0.781E-01
DAV:  18    -0.663251132331E+03    0.18298E-03   -0.68689E-04  4448   0.683E-02    0.548E-01
DAV:  19    -0.663251064108E+03    0.68224E-04   -0.15384E-04  2680   0.284E-02
   1 F= -.66982279E+03 E0= -.66982279E+03  d E =0.000000E+00  mag=     0.9941
