 vasp.5.4.4.18Apr17-6-g9f103f2a35 (build Jan 14 2022 15:04:31) complex          
  
 executed on             LinuxIFC date 2023.01.27  22:53:26
 running on   48 total cores
 distrk:  each k-point on   48 cores,    1 groups
 distr:  one band on NCORES_PER_BAND=  12 cores,    4 groups


--------------------------------------------------------------------------------------------------------


 INCAR:
 POTCAR:    PAW_PBE C 08Apr2002                   
 POTCAR:    PAW_PBE N 08Apr2002                   
 POTCAR:    PAW_PBE C 08Apr2002                   
 POTCAR:    PAW_PBE Cr_pv 02Aug2007               
 POTCAR:    PAW_PBE C 08Apr2002                   
 POTCAR:    PAW_PBE O 08Apr2002                   
 POTCAR:    PAW_PBE C 08Apr2002                   
   SHA256 =  253f7b50bb8d59471dbedb8285d89021f4a42ed1a2c5d38a03a736e69125dd95 C/
   COPYR  = (c) Copyright 08Apr2002 Georg Kresse                                
   COPYR  = This file is part of the software VASP. Any use, copying, and all ot
   COPYR  = If you do not have a valid VASP license, you may not use, copy or di
   VRHFIN =C: s2p2                                                              
   LEXCH  = PE                                                                  
   EATOM  =   147.1560 eV,   10.8157 Ry                                         
                                                                                
   TITEL  = PAW_PBE C 08Apr2002                                                 
   LULTRA =        F    use ultrasoft PP ?                                      
   IUNSCR =        1    unscreen: 0-lin 1-nonlin 2-no                           
   RPACOR =    1.200    partial core radius                                     
   POMASS =   12.011; ZVAL   =    4.000    mass and valenz                      
   RCORE  =    1.500    outmost cutoff radius                                   
   RWIGS  =    1.630; RWIGS  =    0.863    wigner-seitz radius (au A)           
   ENMAX  =  400.000; ENMIN  =  300.000 eV                                      
   ICORE  =        2    local potential                                         
   LCOR   =        T    correct aug charges                                     
   LPAW   =        T    paw PP                                                  
   EAUG   =  644.873                                                            
   DEXC   =    0.000                                                            
   RMAX   =    1.529    core radius for proj-oper                               
   RAUG   =    1.300    factor for augmentation sphere                          
   RDEP   =    1.501    radius for radial grids                                 
   RDEPT  =    1.300    core radius for aug-charge                              
                                                                                
   Atomic configuration                                                         
    4 entries                                                                   
     n  l   j            E        occ.                                          
     1  0  0.50      -273.3789   2.0000                                         
     2  0  0.50       -13.7508   2.0000                                         
     2  1  0.50        -5.2854   2.0000                                         
     3  2  1.50        -5.4423   0.0000                                         
   Description                                                                  
     l       E           TYP  RCUT    TYP  RCUT                                 
     0    -13.7508458     23  1.200                                             
     0     -8.2022199     23  1.200                                             
     1     -5.2854383     23  1.500                                             
     1     34.0145650     23  1.500                                             
     2     -5.4423304      7  1.500                                             
  local pseudopotential read in
  partial core-charges read in
  partial kinetic energy density read in
  atomic valenz-charges read in
  non local Contribution for L=           0  read in
    real space projection operators read in
  non local Contribution for L=           0  read in
    real space projection operators read in
  non local Contribution for L=           1  read in
    real space projection operators read in
  non local Contribution for L=           1  read in
    real space projection operators read in
    PAW grid and wavefunctions read in
 
   number of l-projection  operators is LMAX  =           4
   number of lm-projection operators is LMMAX =           8
 
 POTCAR:    PAW_PBE N 08Apr2002                   
   SHA256 =  e053789ff3a61a86a1b75d8a110fcc91f86041011e7b0817c7c99e4e8a6349d7 N/
   COPYR  = (c) Copyright 08Apr2002 Georg Kresse                                
   COPYR  = This file is part of the software VASP. Any use, copying, and all ot
   COPYR  = If you do not have a valid VASP license, you may not use, copy or di
   VRHFIN =N: s2p3                                                              
   LEXCH  = PE                                                                  
   EATOM  =   264.5486 eV,   19.4438 Ry                                         
                                                                                
   TITEL  = PAW_PBE N 08Apr2002                                                 
   LULTRA =        F    use ultrasoft PP ?                                      
   IUNSCR =        1    unscreen: 0-lin 1-nonlin 2-no                           
   RPACOR =    1.200    partial core radius                                     
   POMASS =   14.001; ZVAL   =    5.000    mass and valenz                      
   RCORE  =    1.500    outmost cutoff radius                                   
   RWIGS  =    1.400; RWIGS  =    0.741    wigner-seitz radius (au A)           
   ENMAX  =  400.000; ENMIN  =  300.000 eV                                      
   ICORE  =        2    local potential                                         
   LCOR   =        T    correct aug charges                                     
   LPAW   =        T    paw PP                                                  
   EAUG   =  627.112                                                            
   DEXC   =    0.000                                                            
   RMAX   =    1.529    core radius for proj-oper                               
   RAUG   =    1.300    factor for augmentation sphere                          
   RDEP   =    1.514    radius for radial grids                                 
   RDEPT  =    1.338    core radius for aug-charge                              
                                                                                
   Atomic configuration                                                         
    4 entries                                                                   
     n  l   j            E        occ.                                          
     1  0  0.50      -384.7179   2.0000                                         
     2  0  0.50       -18.5828   2.0000                                         
     2  1  0.50        -7.0898   3.0000                                         
     3  2  1.50        -6.8029   0.0000                                         
   Description                                                                  
     l       E           TYP  RCUT    TYP  RCUT                                 
     0    -18.5828119     23  1.200                                             
     0    -13.5018863     23  1.200                                             
     1     -7.0897853     23  1.500                                             
     1      9.5240782     23  1.500                                             
     2     -6.8029130      7  1.500                                             
  local pseudopotential read in
  partial core-charges read in
  partial kinetic energy density read in
  atomic valenz-charges read in
  non local Contribution for L=           0  read in
    real space projection operators read in
  non local Contribution for L=           0  read in
    real space projection operators read in
  non local Contribution for L=           1  read in
    real space projection operators read in
  non local Contribution for L=           1  read in
    real space projection operators read in
    PAW grid and wavefunctions read in
 
   number of l-projection  operators is LMAX  =           4
   number of lm-projection operators is LMMAX =           8
 
 POTCAR:    PAW_PBE C 08Apr2002                   
   SHA256 =  253f7b50bb8d59471dbedb8285d89021f4a42ed1a2c5d38a03a736e69125dd95 C/
   COPYR  = (c) Copyright 08Apr2002 Georg Kresse                                
   COPYR  = This file is part of the software VASP. Any use, copying, and all ot
   COPYR  = If you do not have a valid VASP license, you may not use, copy or di
   VRHFIN =C: s2p2                                                              
   LEXCH  = PE                                                                  
   EATOM  =   147.1560 eV,   10.8157 Ry                                         
                                                                                
   TITEL  = PAW_PBE C 08Apr2002                                                 
   LULTRA =        F    use ultrasoft PP ?                                      
   IUNSCR =        1    unscreen: 0-lin 1-nonlin 2-no                           
   RPACOR =    1.200    partial core radius                                     
   POMASS =   12.011; ZVAL   =    4.000    mass and valenz                      
   RCORE  =    1.500    outmost cutoff radius                                   
   RWIGS  =    1.630; RWIGS  =    0.863    wigner-seitz radius (au A)           
   ENMAX  =  400.000; ENMIN  =  300.000 eV                                      
   ICORE  =        2    local potential                                         
   LCOR   =        T    correct aug charges                                     
   LPAW   =        T    paw PP                                                  
   EAUG   =  644.873                                                            
   DEXC   =    0.000                                                            
   RMAX   =    1.529    core radius for proj-oper                               
   RAUG   =    1.300    factor for augmentation sphere                          
   RDEP   =    1.501    radius for radial grids                                 
   RDEPT  =    1.300    core radius for aug-charge                              
                                                                                
   Atomic configuration                                                         
    4 entries                                                                   
     n  l   j            E        occ.                                          
     1  0  0.50      -273.3789   2.0000                                         
     2  0  0.50       -13.7508   2.0000                                         
     2  1  0.50        -5.2854   2.0000                                         
     3  2  1.50        -5.4423   0.0000                                         
   Description                                                                  
     l       E           TYP  RCUT    TYP  RCUT                                 
     0    -13.7508458     23  1.200                                             
     0     -8.2022199     23  1.200                                             
     1     -5.2854383     23  1.500                                             
     1     34.0145650     23  1.500                                             
     2     -5.4423304      7  1.500                                             
  local pseudopotential read in
  partial core-charges read in
  partial kinetic energy density read in
  atomic valenz-charges read in
  non local Contribution for L=           0  read in
    real space projection operators read in
  non local Contribution for L=           0  read in
    real space projection operators read in
  non local Contribution for L=           1  read in
    real space projection operators read in
  non local Contribution for L=           1  read in
    real space projection operators read in
    PAW grid and wavefunctions read in
 
   number of l-projection  operators is LMAX  =           4
   number of lm-projection operators is LMMAX =           8
 
 POTCAR:    PAW_PBE Cr_pv 02Aug2007               
   SHA256 =  c9a7df34d3cdbacf1090e328ef39c0b420964e11c23f63548d1ac9dd218cdba0 Cr
   COPYR  = (c) Copyright 02Aug2007 Georg Kresse                                
   COPYR  = This file is part of the software VASP. Any use, copying, and all ot
   COPYR  = If you do not have a valid VASP license, you may not use, copy or di
   VRHFIN =Cr : p6d5s1                                                          
   LEXCH  = PE                                                                  
   EATOM  =  1647.9177 eV,  121.1185 Ry                                         
                                                                                
   TITEL  = PAW_PBE Cr_pv 02Aug2007                                             
   LULTRA =        F    use ultrasoft PP ?                                      
   IUNSCR =        1    unscreen: 0-lin 1-nonlin 2-no                           
   RPACOR =    2.080    partial core radius                                     
   POMASS =   51.996; ZVAL   =   12.000    mass and valenz                      
   RCORE  =    2.300    outmost cutoff radius                                   
   RWIGS  =    2.500; RWIGS  =    1.323    wigner-seitz radius (au A)           
   ENMAX  =  265.681; ENMIN  =  199.261 eV                                      
   ICORE  =        3    local potential                                         
   LCOR   =        T    correct aug charges                                     
   LPAW   =        T    paw PP                                                  
   EAUG   =  519.424                                                            
   DEXC   =    0.000                                                            
   RMAX   =    2.356    core radius for proj-oper                               
   RAUG   =    1.300    factor for augmentation sphere                          
   RDEP   =    2.447    radius for radial grids                                 
   RDEPT  =    1.882    core radius for aug-charge                              
                                                                                
   Atomic configuration                                                         
    8 entries                                                                   
     n  l   j            E        occ.                                          
     1  0  0.50     -5880.4963   2.0000                                         
     2  0  0.50      -667.0865   2.0000                                         
     2  1  1.50      -560.6250   6.0000                                         
     3  0  0.50       -73.9860   2.0000                                         
     3  1  1.50       -45.4378   6.0000                                         
     3  2  2.50        -2.9137   5.0000                                         
     4  0  0.50        -4.0071   1.0000                                         
     4  3  2.50        -1.3606   0.0000                                         
   Description                                                                  
     l       E           TYP  RCUT    TYP  RCUT                                 
     1    -45.4377911     23  2.000                                             
     1      1.3605826     23  2.000                                             
     2     -2.9136672     23  2.300                                             
     2     -4.2742498     23  2.300                                             
     0     -4.0071320     23  2.300                                             
     0      9.4498803     23  2.300                                             
     3      2.7211652     23  2.300                                             
  local pseudopotential read in
  partial core-charges read in
  partial kinetic energy density read in
  atomic valenz-charges read in
  non local Contribution for L=           1  read in
    real space projection operators read in
  non local Contribution for L=           1  read in
    real space projection operators read in
  non local Contribution for L=           2  read in
    real space projection operators read in
  non local Contribution for L=           2  read in
    real space projection operators read in
  non local Contribution for L=           0  read in
    real space projection operators read in
  non local Contribution for L=           0  read in
    real space projection operators read in
    PAW grid and wavefunctions read in
 
   number of l-projection  operators is LMAX  =           6
   number of lm-projection operators is LMMAX =          18
 
 POTCAR:    PAW_PBE C 08Apr2002                   
   SHA256 =  253f7b50bb8d59471dbedb8285d89021f4a42ed1a2c5d38a03a736e69125dd95 C/
   COPYR  = (c) Copyright 08Apr2002 Georg Kresse                                
   COPYR  = This file is part of the software VASP. Any use, copying, and all ot
   COPYR  = If you do not have a valid VASP license, you may not use, copy or di
   VRHFIN =C: s2p2                                                              
   LEXCH  = PE                                                                  
   EATOM  =   147.1560 eV,   10.8157 Ry                                         
                                                                                
   TITEL  = PAW_PBE C 08Apr2002                                                 
   LULTRA =        F    use ultrasoft PP ?                                      
   IUNSCR =        1    unscreen: 0-lin 1-nonlin 2-no                           
   RPACOR =    1.200    partial core radius                                     
   POMASS =   12.011; ZVAL   =    4.000    mass and valenz                      
   RCORE  =    1.500    outmost cutoff radius                                   
   RWIGS  =    1.630; RWIGS  =    0.863    wigner-seitz radius (au A)           
   ENMAX  =  400.000; ENMIN  =  300.000 eV                                      
   ICORE  =        2    local potential                                         
   LCOR   =        T    correct aug charges                                     
   LPAW   =        T    paw PP                                                  
   EAUG   =  644.873                                                            
   DEXC   =    0.000                                                            
   RMAX   =    1.529    core radius for proj-oper                               
   RAUG   =    1.300    factor for augmentation sphere                          
   RDEP   =    1.501    radius for radial grids                                 
   RDEPT  =    1.300    core radius for aug-charge                              
                                                                                
   Atomic configuration                                                         
    4 entries                                                                   
     n  l   j            E        occ.                                          
     1  0  0.50      -273.3789   2.0000                                         
     2  0  0.50       -13.7508   2.0000                                         
     2  1  0.50        -5.2854   2.0000                                         
     3  2  1.50        -5.4423   0.0000                                         
   Description                                                                  
     l       E           TYP  RCUT    TYP  RCUT                                 
     0    -13.7508458     23  1.200                                             
     0     -8.2022199     23  1.200                                             
     1     -5.2854383     23  1.500                                             
     1     34.0145650     23  1.500                                             
     2     -5.4423304      7  1.500                                             
  local pseudopotential read in
  partial core-charges read in
  partial kinetic energy density read in
  atomic valenz-charges read in
  non local Contribution for L=           0  read in
    real space projection operators read in
  non local Contribution for L=           0  read in
    real space projection operators read in
  non local Contribution for L=           1  read in
    real space projection operators read in
  non local Contribution for L=           1  read in
    real space projection operators read in
    PAW grid and wavefunctions read in
 
   number of l-projection  operators is LMAX  =           4
   number of lm-projection operators is LMMAX =           8
 
 POTCAR:    PAW_PBE O 08Apr2002                   
   SHA256 =  818f92134a0a090dccd8ba1447fa70422a3b330e708bb4f08108d8ae51209ddf O/
   COPYR  = (c) Copyright 08Apr2002 Georg Kresse                                
   COPYR  = This file is part of the software VASP. Any use, copying, and all ot
   COPYR  = If you do not have a valid VASP license, you may not use, copy or di
   VRHFIN =O: s2p4                                                              
   LEXCH  = PE                                                                  
   EATOM  =   432.3788 eV,   31.7789 Ry                                         
                                                                                
   TITEL  = PAW_PBE O 08Apr2002                                                 
   LULTRA =        F    use ultrasoft PP ?                                      
   IUNSCR =        1    unscreen: 0-lin 1-nonlin 2-no                           
   RPACOR =    1.200    partial core radius                                     
   POMASS =   16.000; ZVAL   =    6.000    mass and valenz                      
   RCORE  =    1.520    outmost cutoff radius                                   
   RWIGS  =    1.550; RWIGS  =    0.820    wigner-seitz radius (au A)           
   ENMAX  =  400.000; ENMIN  =  300.000 eV                                      
   ICORE  =        2    local potential                                         
   LCOR   =        T    correct aug charges                                     
   LPAW   =        T    paw PP                                                  
   EAUG   =  605.392                                                            
   DEXC   =    0.000                                                            
   RMAX   =    1.553    core radius for proj-oper                               
   RAUG   =    1.300    factor for augmentation sphere                          
   RDEP   =    1.550    radius for radial grids                                 
   RDEPT  =    1.329    core radius for aug-charge                              
                                                                                
   Atomic configuration                                                         
    4 entries                                                                   
     n  l   j            E        occ.                                          
     1  0  0.50      -514.6923   2.0000                                         
     2  0  0.50       -23.9615   2.0000                                         
     2  1  0.50        -9.0305   4.0000                                         
     3  2  1.50        -9.5241   0.0000                                         
   Description                                                                  
     l       E           TYP  RCUT    TYP  RCUT                                 
     0    -23.9615318     23  1.200                                             
     0     -9.5240782     23  1.200                                             
     1     -9.0304911     23  1.520                                             
     1      8.1634956     23  1.520                                             
     2     -9.5240782      7  1.500                                             
  local pseudopotential read in
  partial core-charges read in
  partial kinetic energy density read in
  kinetic energy density of atom read in
  atomic valenz-charges read in
  non local Contribution for L=           0  read in
    real space projection operators read in
  non local Contribution for L=           0  read in
    real space projection operators read in
  non local Contribution for L=           1  read in
    real space projection operators read in
  non local Contribution for L=           1  read in
    real space projection operators read in
    PAW grid and wavefunctions read in
 
   number of l-projection  operators is LMAX  =           4
   number of lm-projection operators is LMMAX =           8
 

 ----------------------------------------------------------------------------- 
|                                                                             |
|  ADVICE TO THIS USER RUNNING 'VASP/VAMP'   (HEAR YOUR MASTER'S VOICE ...):  |
|                                                                             |
|      You have a (more or less) 'large supercell' and for larger cells       |
|      it might be more efficient to use real space projection opertators     |
|      So try LREAL= Auto  in the INCAR   file.                               |
|      Mind:          For very  accurate calculation you might also keep the  |
|      reciprocal projection scheme          (i.e. LREAL=.FALSE.)             |
|                                                                             |
 ----------------------------------------------------------------------------- 

  PAW_PBE C 08Apr2002                   :
 energy of atom  1       EATOM= -147.1560
 kinetic energy error for atom=    0.0132 (will be added to EATOM!!)
  PAW_PBE N 08Apr2002                   :
 energy of atom  2       EATOM= -264.5486
 kinetic energy error for atom=    0.0298 (will be added to EATOM!!)
  PAW_PBE C 08Apr2002                   :
 energy of atom  3       EATOM= -147.1560
 kinetic energy error for atom=    0.0132 (will be added to EATOM!!)
  PAW_PBE Cr_pv 02Aug2007               :
 energy of atom  4       EATOM=-1647.9177
 kinetic energy error for atom=    0.0134 (will be added to EATOM!!)
  PAW_PBE C 08Apr2002                   :
 energy of atom  5       EATOM= -147.1560
 kinetic energy error for atom=    0.0132 (will be added to EATOM!!)
  PAW_PBE O 08Apr2002                   :
 energy of atom  6       EATOM= -432.3788
 kinetic energy error for atom=    0.0458 (will be added to EATOM!!)
 
 
 POSCAR: POSCAR-clean                            
  positions in direct lattice
  velocities in cartesian coordinates
 exchange correlation table for  LEXCH =        8
   RHO(1)=    0.500       N(1)  =     2000
   RHO(2)=  100.500       N(2)  =     4000

 VTST: version 3.2, (02/03/18)

 CHAIN: initializing optimizer
 
 OPT: Using VASP Dynamics algorithm
 CHAIN: Read ICHAIN            0
 
 POSCAR: POSCAR-clean                            
  positions in direct lattice
  velocities in cartesian coordinates
 


--------------------------------------------------------------------------------------------------------


 ion  position               nearest neighbor table
   1  0.999  1.000  0.492-   2 1.42  60 1.43  70 1.44
   2  0.055  0.111  0.492-   1 1.42  13 1.42  15 1.43
   3  0.167  0.002  0.492-   4 1.42  62 1.43  60 1.43
   4  0.223  0.113  0.492-   3 1.42  15 1.43  17 1.43
   5  0.334  0.002  0.492-   6 1.42  62 1.43  64 1.43
   6  0.390  0.113  0.494-   5 1.42  19 1.42  17 1.43
   7  0.500  0.001  0.491-  66 1.41   8 1.42  64 1.42
   8  0.556  0.112  0.493-   7 1.42  21 1.42  19 1.44
   9  0.665  0.999  0.490-  66 1.41  10 1.42  68 1.43
  10  0.721  0.110  0.491-   9 1.42  21 1.43  23 1.43
  11  0.832  0.999  0.492-  12 1.42  70 1.43  68 1.44
  12  0.887  0.110  0.491-  11 1.42  23 1.42  13 1.43
  13  0.999  0.166  0.491-  14 1.42   2 1.42  12 1.43
  14  0.055  0.277  0.491-  13 1.42  25 1.43  27 1.43
  15  0.166  0.168  0.491-  16 1.42   4 1.43   2 1.43
  16  0.222  0.279  0.490-  15 1.42  27 1.43  29 1.44
  17  0.334  0.170  0.494-  18 1.42   6 1.43   4 1.43
  18  0.390  0.281  0.497-  17 1.42  29 1.43  31 1.44
  19  0.500  0.169  0.495-   6 1.42  20 1.43   8 1.44
  20  0.556  0.280  0.499-  33 1.42  19 1.43  31 1.45
  21  0.667  0.167  0.493-  22 1.41   8 1.42  10 1.43
  22  0.722  0.278  0.495-  21 1.41  33 1.42  35 1.43
  23  0.832  0.165  0.491-  12 1.42  24 1.43  10 1.43
  24  0.888  0.277  0.492-  35 1.42  23 1.43  25 1.43
  25  0.999  0.333  0.492-  26 1.42  14 1.43  24 1.43
  26  0.055  0.445  0.492-  37 1.42  39 1.42  25 1.42
  27  0.166  0.333  0.491-  28 1.42  16 1.43  14 1.43
  28  0.220  0.445  0.492-  41 1.42  39 1.42  27 1.42
  29  0.334  0.336  0.491-  30 1.41  18 1.43  16 1.44
  30  0.387  0.446  0.490-  29 1.41  41 1.42  71 1.92
  31  0.502  0.339  0.504-  32 1.43  18 1.44  20 1.45
  32  0.559  0.451  0.514-  43 1.42  31 1.43  71 2.05
  33  0.667  0.334  0.499-  34 1.42  20 1.42  22 1.42
  34  0.724  0.445  0.501-  43 1.41  33 1.42  45 1.42
  35  0.833  0.333  0.494-  36 1.42  24 1.42  22 1.43
  36  0.889  0.445  0.495-  45 1.42  35 1.42  37 1.42
  37  1.000  0.500  0.493-  26 1.42  36 1.42  38 1.42
  38  0.055  0.612  0.493-  47 1.42  49 1.42  37 1.42
  39  0.165  0.501  0.493-  28 1.42  26 1.42  40 1.42
  40  0.221  0.612  0.492-  49 1.42  39 1.42  51 1.42
  41  0.331  0.500  0.489-  28 1.42  30 1.42  42 1.44  71 2.52
  42  0.387  0.613  0.487-  51 1.41  53 1.41  41 1.44  71 2.53
  43  0.670  0.500  0.508-  34 1.41  32 1.42  44 1.42
  44  0.725  0.612  0.507-  57 1.41  55 1.42  43 1.42
  45  0.834  0.500  0.498-  36 1.42  46 1.42  34 1.42
  46  0.890  0.612  0.497-  45 1.42  47 1.42  57 1.42
  47  0.001  0.668  0.494-  46 1.42  38 1.42  48 1.42
  48  0.056  0.779  0.493-  47 1.42  61 1.42  59 1.43
  49  0.166  0.668  0.492-  40 1.42  38 1.42  50 1.42
  50  0.222  0.779  0.491-  49 1.42  63 1.42  61 1.42
  51  0.332  0.668  0.490-  42 1.41  40 1.42  52 1.42
  52  0.389  0.780  0.488-  63 1.42  51 1.42  65 1.43
  53  0.497  0.667  0.484-  54 1.41  42 1.41  71 1.95
  54  0.554  0.778  0.486-  53 1.41  65 1.43  67 1.43
  55  0.664  0.661  0.512-  44 1.42  56 1.44  71 2.03
  56  0.718  0.773  0.501-  67 1.43  55 1.44  69 1.45
  57  0.835  0.667  0.500-  44 1.41  58 1.42  46 1.42
  58  0.889  0.778  0.497-  57 1.42  69 1.43  59 1.43
  59  0.000  0.834  0.494-  60 1.42  58 1.43  48 1.43
  60  0.056  0.945  0.493-  59 1.42   1 1.43   3 1.43
  61  0.167  0.835  0.492-  62 1.42  50 1.42  48 1.42
  62  0.223  0.946  0.492-  61 1.42   3 1.43   5 1.43
  63  0.333  0.835  0.490-  64 1.42  52 1.42  50 1.42
  64  0.390  0.946  0.491-  63 1.42   7 1.42   5 1.43
  65  0.500  0.835  0.487-  66 1.41  52 1.43  54 1.43
  66  0.555  0.945  0.489-  65 1.41   9 1.41   7 1.41
  67  0.665  0.831  0.494-  68 1.42  56 1.43  54 1.43
  68  0.720  0.942  0.492-  67 1.42   9 1.43  11 1.44
  69  0.831  0.831  0.497-  70 1.43  58 1.43  56 1.45
  70  0.887  0.943  0.494-  69 1.43  11 1.43   1 1.44
  71  0.513  0.558  0.541-  72 1.91  30 1.92  53 1.95  55 2.03  32 2.05  41 2.52  42 2.53
  72  0.523  0.518  0.660-  73 1.17  71 1.91
  73  0.528  0.496  0.734-  72 1.17
 

IMPORTANT INFORMATION: All symmetrisations will be switched off!
NOSYMM: (Re-)initialisation of all symmetry stuff for point group C_1.

 
 
 KPOINTS: K-Points                                

Automatic generation of k-mesh.
Space group operators:
 irot       det(A)        alpha          n_x          n_y          n_z        tau_x        tau_y        tau_z
    1     1.000000     0.000000     1.000000     0.000000     0.000000     0.000000     0.000000     0.000000
 
 Subroutine IBZKPT returns following result:
 ===========================================
 
 Found      5 irreducible k-points:
 
 Following reciprocal coordinates:
            Coordinates               Weight
  0.000000  0.000000  0.000000      1.000000
  0.333333  0.000000  0.000000      2.000000
  0.000000  0.333333  0.000000      2.000000
  0.333333  0.333333  0.000000      2.000000
 -0.333333  0.333333  0.000000      2.000000
 
 Following cartesian coordinates:
            Coordinates               Weight
  0.000000  0.000000  0.000000      1.000000
  0.022433  0.013066  0.000000      2.000000
 -0.000001  0.026131  0.000000      2.000000
  0.022431  0.039197  0.000000      2.000000
 -0.022434  0.013066  0.000000      2.000000
 
 TETIRR: Found     24 inequivalent tetrahedra from       54


--------------------------------------------------------------------------------------------------------




 Dimension of arrays:
   k-points           NKPTS =      5   k-points in BZ     NKDIM =      5   number of bands    NBANDS=    192
   number of dos      NEDOS =   4000   number of ions     NIONS =     73
   non local maximal  LDIM  =      6   non local SUM 2l+1 LMDIM =     18
   total plane-waves  NPLWV = 512000
   max r-space proj   IRMAX =      1   max aug-charges    IRDMAX=   6465
   dimension x,y,z NGX =    80 NGY =   80 NGZ =   80
   dimension x,y,z NGXF=   160 NGYF=  160 NGZF=  160
   support grid    NGXF=   160 NGYF=  160 NGZF=  160
   ions per type =              65   1   4   1   1   1
   NGX,Y,Z   is equivalent  to a cutoff of   8.95,  9.01,  8.87 a.u.
   NGXF,Y,Z  is equivalent  to a cutoff of  17.90, 18.02, 17.73 a.u.

 SYSTEM =  unknown system                          
 POSCAR =  POSCAR-clean                            

 Startparameter for this run:
   NWRITE =      2    write-flag & timer
   PREC   = normal    normal or accurate (medium, high low for compatibility)
   ISTART =      0    job   : 0-new  1-cont  2-samecut
   ICHARG =      2    charge: 1-file 2-atom 10-const
   ISPIN  =      2    spin polarized calculation?
   LNONCOLLINEAR =      F non collinear calculations
   LSORBIT =      F    spin-orbit coupling
   INIWAV =      1    electr: 0-lowe 1-rand  2-diag
   LASPH  =      F    aspherical Exc in radial PAW
   METAGGA=      F    non-selfconsistent MetaGGA calc.

 Electronic Relaxation 1
   ENCUT  =  440.0 eV  32.34 Ry    5.69 a.u.  25.41 25.25 25.66*2*pi/ulx,y,z
   ENINI  =  440.0     initial cutoff
   ENAUG  =  644.9 eV  augmentation charge cutoff
   NELM   =    100;   NELMIN=  2; NELMDL= -5     # of ELM steps 
   EDIFF  = 0.1E-03   stopping-criterion for ELM
   LREAL  =      F    real-space projection
   NLSPLINE    = F    spline interpolate recip. space projectors
   LCOMPAT=      F    compatible to vasp.4.4
   GGA_COMPAT  = T    GGA compatible to vasp.4.4-vasp.4.6
   LMAXPAW     = -100 max onsite density
   LMAXMIX     =    2 max onsite mixed and CHGCAR
   VOSKOWN=      0    Vosko Wilk Nusair interpolation
   ROPT   =    0.00000   0.00000   0.00000   0.00000
   ROPT   =    0.00000   0.00000
 Ionic relaxation
   EDIFFG = -.1E-01   stopping-criterion for IOM
   NSW    =      0    number of steps for IOM
   NBLOCK =      1;   KBLOCK =      1    inner block; outer block 
   IBRION =     -1    ionic relax: 0-MD 1-quasi-New 2-CG
   NFREE  =      0    steps in history (QN), initial steepest desc. (CG)
   ISIF   =      2    stress and relaxation
   IWAVPR =     10    prediction:  0-non 1-charg 2-wave 3-comb
   ISYM   =      0    0-nonsym 1-usesym 2-fastsym
   LCORR  =      T    Harris-Foulkes like correction to forces

   POTIM  = 0.5000    time-step for ionic-motion
   TEIN   =    0.0    initial temperature
   TEBEG  =    0.0;   TEEND  =   0.0 temperature during run
   SMASS  =  -3.00    Nose mass-parameter (am)
   estimated Nose-frequenzy (Omega)   =  0.10E-29 period in steps =****** mass=  -0.505E-26a.u.
   SCALEE = 1.0000    scale energy and forces
   NPACO  =    256;   APACO  = 16.0  distance and # of slots for P.C.
   PSTRESS=    0.0 pullay stress

  Mass of Ions in am
   POMASS =  12.01 14.00 12.01 52.00 12.01 16.00
  Ionic Valenz
   ZVAL   =   4.00  5.00  4.00 12.00  4.00  6.00
  Atomic Wigner-Seitz radii
   RWIGS  =  -1.00 -1.00 -1.00 -1.00 -1.00 -1.00
  virtual crystal weights 
   VCA    =   1.00  1.00  1.00  1.00  1.00  1.00
   NELECT =     303.0000    total number of electrons
   NUPDOWN=      -1.0000    fix difference up-down

 DOS related values:
   EMIN   = -14.00;   EMAX   =  6.00  energy-range for DOS
   EFERMI =   0.00
   ISMEAR =    -5;   SIGMA  =   0.20  broadening in eV -4-tet -1-fermi 0-gaus

 Electronic relaxation 2 (details)
   IALGO  =     38    algorithm
   LDIAG  =      T    sub-space diagonalisation (order eigenvalues)
   LSUBROT=      F    optimize rotation matrix (better conditioning)
   TURBO    =      0    0=normal 1=particle mesh
   IRESTART =      0    0=no restart 2=restart with 2 vectors
   NREBOOT  =      0    no. of reboots
   NMIN     =      0    reboot dimension
   EREF     =   0.00    reference energy to select bands
   IMIX   =      4    mixing-type and parameters
     AMIX     =   0.25;   BMIX     =  0.00
     AMIX_MAG =   1.00;   BMIX_MAG =  0.00
     AMIN     =   0.10
     WC   =   100.;   INIMIX=   1;  MIXPRE=   1;  MAXMIX= -45

 Intra band minimization:
   WEIMIN = 0.0000     energy-eigenvalue tresh-hold
   EBREAK =  0.13E-06  absolut break condition
   DEPER  =   0.30     relativ break condition  

   TIME   =   0.40     timestep for ELM

  volume/ion in A,a.u.               =      38.95       262.83
  Fermi-wavevector in a.u.,A,eV,Ry     =   0.776169  1.466747  8.196669  0.602438
  Thomas-Fermi vector in A             =   1.878590
 
 Write flags
   LWAVE        =      F    write WAVECAR
   LDOWNSAMPLE  =      F    k-point downsampling of WAVECAR
   LCHARG       =      F    write CHGCAR
   LVTOT        =      F    write LOCPOT, total local potential
   LVHAR        =      F    write LOCPOT, Hartree potential only
   LELF         =      F    write electronic localiz. function (ELF)
   LORBIT       =     11    0 simple, 1 ext, 2 COOP (PROOUT), +10 PAW based schemes


 Dipole corrections
   LMONO  =      F    monopole corrections only (constant potential shift)
   LDIPOL =      F    correct potential (dipole corrections)
   IDIPOL =      0    1-x, 2-y, 3-z, 4-all directions 
   EPSILON=  1.0000000 bulk dielectric constant

 Exchange correlation treatment:
   GGA     =    --    GGA type
   LEXCH   =     8    internal setting for exchange type
   VOSKOWN=      0    Vosko Wilk Nusair interpolation
   LHFCALC =     F    Hartree Fock is set to
   LHFONE  =     F    Hartree Fock one center treatment
   AEXX    =    0.0000 exact exchange contribution

 Linear response parameters
   LEPSILON=     F    determine dielectric tensor
   LRPA    =     F    only Hartree local field effects (RPA)
   LNABLA  =     F    use nabla operator in PAW spheres
   LVEL    =     F    velocity operator in full k-point grid
   LINTERFAST=   F  fast interpolation
   KINTER  =     0    interpolate to denser k-point grid
   CSHIFT  =0.1000    complex shift for real part using Kramers Kronig
   OMEGAMAX=  -1.0    maximum frequency
   DEG_THRESHOLD= 0.2000000E-02 threshold for treating states as degnerate
   RTIME   =   -0.100 relaxation time in fs
  (WPLASMAI=    0.000 imaginary part of plasma frequency in eV, 0.658/RTIME)
   DFIELD  = 0.0000000 0.0000000 0.0000000 field for delta impulse in time
 
 Orbital magnetization related:
   ORBITALMAG=     F  switch on orbital magnetization
   LCHIMAG   =     F  perturbation theory with respect to B field
   DQ        =  0.001000  dq finite difference perturbation B field
   LLRAUG    =     F  two centre corrections for induced B field



--------------------------------------------------------------------------------------------------------


 Static calculation
 charge density and potential will be updated during run
 spin polarized calculation
 Variant of blocked Davidson
 Davidson routine will perform the subspace rotation
 perform sub-space diagonalisation
    after iterative eigenvector-optimisation
 modified Broyden-mixing scheme, WC =      100.0
 initial mixing is a Kerker type mixing with AMIX =  0.2500 and BMIX =      0.0001
 Hartree-type preconditioning will be used
 using additional bands           40
 reciprocal scheme for non local part
 use partial core corrections
 calculate Harris-corrections to forces 
   (improved forces if not selfconsistent)
 use gradient corrections 
 use of overlap-Matrix (Vanderbilt PP)
 Fermi weights with tetrahedron method with Bloechl corrections


--------------------------------------------------------------------------------------------------------


  energy-cutoff  :      440.00
  volume of cell :     2843.14
      direct lattice vectors                 reciprocal lattice vectors
    14.858866394  0.000814954  0.000000000     0.067297735  0.039196617  0.000000000
    -7.429433197 12.755795407  0.000000000    -0.000004300  0.078393234  0.000000000
     0.000000000  0.000000000 15.000000000     0.000000000  0.000000000  0.066666667

  length of vectors
    14.858866416 14.761666372 15.000000000     0.077880421  0.078393234  0.066666667


 
 k-points in units of 2pi/SCALE and weight: K-Points                                
   0.00000000  0.00000000  0.00000000       0.111
   0.02243258  0.01306554  0.00000000       0.222
  -0.00000143  0.02613108  0.00000000       0.222
   0.02243115  0.03919662  0.00000000       0.222
  -0.02243401  0.01306554  0.00000000       0.222
 
 k-points in reciprocal lattice and weights: K-Points                                
   0.00000000  0.00000000  0.00000000       0.111
   0.33333333  0.00000000  0.00000000       0.222
   0.00000000  0.33333333  0.00000000       0.222
   0.33333333  0.33333333  0.00000000       0.222
  -0.33333333  0.33333333  0.00000000       0.222
 
 position of ions in fractional coordinates (direct lattice) 
   0.99874900  0.99958240  0.49236880
   0.05474310  0.11109729  0.49153191
   0.16723107  0.00164720  0.49188718
   0.22285735  0.11299384  0.49186558
   0.33440346  0.00229041  0.49208896
   0.38955887  0.11337028  0.49421211
   0.50031599  0.00061868  0.49084387
   0.55579818  0.11188452  0.49298874
   0.66487877  0.99891433  0.48977204
   0.72069119  0.10986319  0.49096678
   0.83154635  0.99899095  0.49236855
   0.88749818  0.11005208  0.49135657
   0.99882060  0.16610308  0.49129529
   0.05450252  0.27748062  0.49134495
   0.16631549  0.16752156  0.49108825
   0.22194361  0.27883258  0.48985306
   0.33449835  0.16969243  0.49418356
   0.39039490  0.28114631  0.49691454
   0.50043350  0.16856161  0.49528280
   0.55632092  0.28047276  0.49932257
   0.66652946  0.16689171  0.49293021
   0.72207806  0.27772725  0.49539359
   0.83204220  0.16535941  0.49131189
   0.88801786  0.27712968  0.49242854
   0.99914811  0.33314282  0.49213632
   0.05477156  0.44470413  0.49244191
   0.16555106  0.33343291  0.49104154
   0.22025274  0.44480361  0.49224354
   0.33398208  0.33595890  0.49095211
   0.38733727  0.44616689  0.49017684
   0.50206002  0.33894599  0.50376592
   0.55923050  0.45073060  0.51398742
   0.66699208  0.33353501  0.49915291
   0.72365270  0.44480721  0.50136336
   0.83325224  0.33313407  0.49434321
   0.88915789  0.44450647  0.49500191
   0.99984347  0.50034801  0.49328879
   0.05549097  0.61181292  0.49292437
   0.16549413  0.50069721  0.49255094
   0.22121721  0.61230587  0.49188270
   0.33069653  0.50021478  0.48861127
   0.38692249  0.61325240  0.48670582
   0.66954403  0.50025553  0.50803045
   0.72509526  0.61177602  0.50696323
   0.83445859  0.50033975  0.49759318
   0.89001815  0.61163545  0.49694490
   0.00059783  0.66756802  0.49400202
   0.05592673  0.77897404  0.49308716
   0.16620748  0.66769088  0.49165821
   0.22212834  0.77915886  0.49093230
   0.33208189  0.66844462  0.49014844
   0.38882099  0.78003936  0.48848674
   0.49701496  0.66746325  0.48358810
   0.55403290  0.77762452  0.48640821
   0.66410822  0.66108178  0.51194643
   0.71831051  0.77292208  0.50107068
   0.83465220  0.66713281  0.49980642
   0.88908408  0.77835897  0.49707662
   0.00014064  0.83433704  0.49390315
   0.05562521  0.94544310  0.49251300
   0.16686681  0.83484588  0.49160250
   0.22301025  0.94625469  0.49169940
   0.33290372  0.83480307  0.48985164
   0.38967179  0.94594125  0.49069380
   0.49985430  0.83484834  0.48687259
   0.55487308  0.94502910  0.48906550
   0.66534284  0.83116387  0.49357829
   0.71969388  0.94215738  0.49157370
   0.83107559  0.83137251  0.49720175
   0.88693341  0.94307097  0.49353435
   0.51305564  0.55776158  0.54065176
   0.52318907  0.51763576  0.65974761
   0.52846586  0.49624447  0.73359661
 
 position of ions in cartesian coordinates  (Angst):
   7.41394729 12.75128256  7.38553197
  -0.01196947  1.41717887  7.37297869
   2.47262633  0.02114766  7.37830766
   2.47192737  1.44150786  7.37798371
   4.95183989  0.02948855  7.38133434
   4.94612633  1.44644554  7.41318171
   7.42953199  0.00829946  7.36265801
   7.42729230  1.42762902  7.39483105
   2.45797746 12.74248866  7.34658067
   9.89243288  1.40197965  7.36450173
   4.93389953 12.74360183  7.38552832
  12.36959230  1.40452507  7.37034861
  13.60729016  2.11959090  7.36942934
  -1.25167807  3.53953048  7.37017421
   1.22666939  2.13700628  7.36632371
   1.22626247  3.55691223  7.34779596
   3.70954766  2.16483455  7.41275345
   3.71206785  3.58656298  7.45371810
   6.18355734  2.15054526  7.42924196
   6.18254462  3.57810652  7.48983861
   8.66396146  2.12937966  7.39395311
   8.66590540  3.54322043  7.43090392
  11.13467727  2.10996885  7.36967839
  11.13602221  3.53573324  7.38642805
  12.37114596  4.25031591  7.38204476
  -2.49005635  5.67259952  7.38662869
  -0.01731655  4.25333695  7.36562310
  -0.03193271  5.67400340  7.38365304
   2.46661098  4.28569512  7.36428171
   2.44062572  5.69152917  7.35265266
   4.94186610  4.32393487  7.55648877
   4.96085834  5.74988304  7.70981134
   7.43277010  4.25504796  7.48729370
   7.44799327  5.67445954  7.52045037
   9.90618638  4.25006906  7.41514816
   9.90944710  5.67075820  7.42502864
  11.13923840  6.38315172  7.39933183
  -3.72089036  7.80420570  7.39386562
  -1.26084130  6.38692606  7.38826413
  -1.26204853  7.81062865  7.37824055
   1.19746322  6.38090687  7.32916899
   1.19311184  7.82283746  7.30058726
   6.23205022  6.38170281  7.62045674
   6.22894449  7.80428062  7.60444852
   8.68186796  6.38291154  7.46389764
   8.68055602  7.80262201  7.45417351
  -4.95076901  8.51536160  7.41003027
  -4.95632787  9.93647911  7.39630746
  -2.49091010  8.51706371  7.37487315
  -2.48813332  9.93897200  7.36398454
  -0.03180415  8.52681345  7.35222664
  -0.01781120  9.95033939  7.32730107
   2.42620528  8.51442970  7.25382145
   2.45499137  9.91967084  7.29612311
   4.95643242  8.43316514  7.67919652
   4.93090698  9.85982127  7.51606022
   7.44556691  8.51048986  7.49709630
   7.42801561  9.92931235  7.45614937
  -6.19656154 10.64263272  7.40854728
  -6.19757869 12.05992404  7.38769504
  -3.72298005 10.64925926  7.37403746
  -3.71645652 12.07041295  7.37549094
  -1.25554185 10.64884853  7.34777461
  -1.23772618 12.06655057  7.36040699
   1.22481820 10.64956204  7.30308888
   1.22375442 12.05505002  7.33598247
   3.71116396 10.60269846  7.40367442
   3.69413989 12.01855325  7.37360553
   6.17221467 10.60549488  7.45802624
   6.17234222 12.03034316  7.40301521
   3.47957292  7.11511066  8.10977642
   3.92825629  6.60328218  9.89621415
   4.16558845  6.33042360 11.00394921
 


--------------------------------------------------------------------------------------------------------


 k-point  1 :   0.0000 0.0000 0.0000  plane waves:   59589
 k-point  2 :   0.3333 0.0000 0.0000  plane waves:   59566
 k-point  3 :   0.0000 0.3333 0.0000  plane waves:   59614
 k-point  4 :   0.3333 0.3333 0.0000  plane waves:   59640
 k-point  5 :  -0.3333 0.3333 0.0000  plane waves:   59560

 maximum and minimum number of plane-waves per node :      4998     4939

 maximum number of plane-waves:     59640
 maximum index in each direction: 
   IXMAX=   25   IYMAX=   25   IZMAX=   25
   IXMIN=  -25   IYMIN=  -25   IZMIN=  -25


 parallel 3D FFT for wavefunctions:
    minimum data exchange during FFTs selected (reduces bandwidth)
 parallel 3D FFT for charge:
    minimum data exchange during FFTs selected (reduces bandwidth)


 total amount of memory used by VASP MPI-rank0   116147. kBytes
=======================================================================

   base      :      30000. kBytes
   nonl-proj :      27330. kBytes
   fftplans  :       4700. kBytes
   grid      :      15193. kBytes
   one-center:        217. kBytes
   wavefun   :      38707. kBytes
 
     INWAV:  cpu time    0.0000: real time    0.0000
 Broyden mixing: mesh for mixing (old mesh)
   NGX = 51   NGY = 51   NGZ = 51
  (NGX  =160   NGY  =160   NGZ  =160)
  gives a total of 132651 points

 initial charge density was supplied:
 charge density of overlapping atoms calculated
 number of electron     303.0000000 magnetization       2.0000000
 keeping initial charge density in first step


--------------------------------------------------------------------------------------------------------


 Maximum index for augmentation-charges          180 (set IRDMAX)


--------------------------------------------------------------------------------------------------------


 First call to EWALD:  gamma=   0.125
 Maximum number of real-space cells 3x 3x 3
 Maximum number of reciprocal cells 3x 3x 3

    FEWALD:  cpu time    0.0048: real time    0.0050


--------------------------------------- Iteration      1(   1)  ---------------------------------------


    POTLOK:  cpu time    0.1758: real time    0.2011
    SETDIJ:  cpu time    0.0084: real time    0.0091
     EDDAV:  cpu time   11.1730: real time   11.2658
 BZINTS: Fermi energy:  8.081552;303.000000 electrons
         Band energy:***********;  BLOECHL correction: -0.017640
       DOS:  cpu time    0.1145: real time    0.1147
    --------------------------------------------
      LOOP:  cpu time   11.4717: real time   11.5906

 eigenvalue-minimisations  :  4360
 total energy-change (2. order) : 0.2550517E+04  (-0.1119070E+05)
 number of electron     303.0000000 magnetization       2.0000000
 augmentation part      303.0000000 magnetization       2.0000000

 Free energy of the ion-electron system (eV)
  ---------------------------------------------------
  alpha Z        PSCENC =       167.25321061
  Ewald energy   TEWEN  =     30903.47868443
  -Hartree energ DENC   =    -40574.13085799
  -exchange      EXHF   =         0.00000000
  -V(xc)+E(xc)   XCENC  =      1023.27010452
  PAW double counting   =      9455.23336183    -9546.47664214
  entropy T*S    EENTRO =         0.00000000
  eigenvalues    EBANDS =     -1522.86432762
  atomic energy  EATOM  =     12644.75315347
  Solvation  Ediel_sol  =         0.00000000
  ---------------------------------------------------
  free energy    TOTEN  =      2550.51668712 eV

  energy without entropy =     2550.51668712  energy(sigma->0) =     2550.51668712


--------------------------------------------------------------------------------------------------------




--------------------------------------- Iteration      1(   2)  ---------------------------------------


     EDDAV:  cpu time   15.0215: real time   15.1457
 BZINTS: Fermi energy: -1.946830;303.000000 electrons
         Band energy:***********;  BLOECHL correction:  0.000000
       DOS:  cpu time    0.0052: real time    0.0052
    --------------------------------------------
      LOOP:  cpu time   15.0267: real time   15.1508

 eigenvalue-minimisations  :  5464
 total energy-change (2. order) :-0.2789255E+04  (-0.2662169E+04)
 number of electron     303.0000000 magnetization       2.0000000
 augmentation part      303.0000000 magnetization       2.0000000

 Free energy of the ion-electron system (eV)
  ---------------------------------------------------
  alpha Z        PSCENC =       167.25321061
  Ewald energy   TEWEN  =     30903.47868443
  -Hartree energ DENC   =    -40574.13085799
  -exchange      EXHF   =         0.00000000
  -V(xc)+E(xc)   XCENC  =      1023.27010452
  PAW double counting   =      9455.23336183    -9546.47664214
  entropy T*S    EENTRO =         0.00000000
  eigenvalues    EBANDS =     -4312.11925935
  atomic energy  EATOM  =     12644.75315347
  Solvation  Ediel_sol  =         0.00000000
  ---------------------------------------------------
  free energy    TOTEN  =      -238.73824462 eV

  energy without entropy =     -238.73824462  energy(sigma->0) =     -238.73824462


--------------------------------------------------------------------------------------------------------




--------------------------------------- Iteration      1(   3)  ---------------------------------------


     EDDAV:  cpu time   12.5088: real time   12.6175
 BZINTS: Fermi energy: -4.583454;303.000000 electrons
         Band energy:***********;  BLOECHL correction: -0.040096
       DOS:  cpu time    0.0115: real time    0.0115
    --------------------------------------------
      LOOP:  cpu time   12.5203: real time   12.6290

 eigenvalue-minimisations  :  4592
 total energy-change (2. order) :-0.4614356E+03  (-0.4572963E+03)
 number of electron     303.0000000 magnetization       2.0000000
 augmentation part      303.0000000 magnetization       2.0000000

 Free energy of the ion-electron system (eV)
  ---------------------------------------------------
  alpha Z        PSCENC =       167.25321061
  Ewald energy   TEWEN  =     30903.47868443
  -Hartree energ DENC   =    -40574.13085799
  -exchange      EXHF   =         0.00000000
  -V(xc)+E(xc)   XCENC  =      1023.27010452
  PAW double counting   =      9455.23336183    -9546.47664214
  entropy T*S    EENTRO =         0.00000000
  eigenvalues    EBANDS =     -4773.55485241
  atomic energy  EATOM  =     12644.75315347
  Solvation  Ediel_sol  =         0.00000000
  ---------------------------------------------------
  free energy    TOTEN  =      -700.17383768 eV

  energy without entropy =     -700.17383768  energy(sigma->0) =     -700.17383768


--------------------------------------------------------------------------------------------------------




--------------------------------------- Iteration      1(   4)  ---------------------------------------


     EDDAV:  cpu time   12.8023: real time   12.8777
 BZINTS: Fermi energy: -4.724320;303.000000 electrons
         Band energy:***********;  BLOECHL correction: -0.045517
       DOS:  cpu time    0.0113: real time    0.0113
    --------------------------------------------
      LOOP:  cpu time   12.8136: real time   12.8890

 eigenvalue-minimisations  :  4656
 total energy-change (2. order) :-0.1666396E+02  (-0.1651717E+02)
 number of electron     303.0000000 magnetization       2.0000000
 augmentation part      303.0000000 magnetization       2.0000000

 Free energy of the ion-electron system (eV)
  ---------------------------------------------------
  alpha Z        PSCENC =       167.25321061
  Ewald energy   TEWEN  =     30903.47868443
  -Hartree energ DENC   =    -40574.13085799
  -exchange      EXHF   =         0.00000000
  -V(xc)+E(xc)   XCENC  =      1023.27010452
  PAW double counting   =      9455.23336183    -9546.47664214
  entropy T*S    EENTRO =         0.00000000
  eigenvalues    EBANDS =     -4790.21881297
  atomic energy  EATOM  =     12644.75315347
  Solvation  Ediel_sol  =         0.00000000
  ---------------------------------------------------
  free energy    TOTEN  =      -716.83779824 eV

  energy without entropy =     -716.83779824  energy(sigma->0) =     -716.83779824


--------------------------------------------------------------------------------------------------------




--------------------------------------- Iteration      1(   5)  ---------------------------------------


     EDDAV:  cpu time   14.2746: real time   14.3582
 BZINTS: Fermi energy: -4.731401;303.000000 electrons
         Band energy:***********;  BLOECHL correction: -0.046112
       DOS:  cpu time    0.0121: real time    0.0121
    CHARGE:  cpu time    0.1653: real time    0.1697
    MIXING:  cpu time    0.0049: real time    0.0051
    --------------------------------------------
      LOOP:  cpu time   14.4569: real time   14.5451

 eigenvalue-minimisations  :  5320
 total energy-change (2. order) :-0.5486284E+00  (-0.5466411E+00)
 number of electron     303.0000017 magnetization       0.0451813
 augmentation part       12.4680177 magnetization       0.0857544

 Broyden mixing:
  rms(total) = 0.47928E+01    rms(broyden)= 0.47922E+01
  rms(prec ) = 0.54818E+01
  weight for this iteration     100.00

 Free energy of the ion-electron system (eV)
  ---------------------------------------------------
  alpha Z        PSCENC =       167.25321061
  Ewald energy   TEWEN  =     30903.47868443
  -Hartree energ DENC   =    -40574.13085799
  -exchange      EXHF   =         0.00000000
  -V(xc)+E(xc)   XCENC  =      1023.27010452
  PAW double counting   =      9455.23336183    -9546.47664214
  entropy T*S    EENTRO =         0.00000000
  eigenvalues    EBANDS =     -4790.76744133
  atomic energy  EATOM  =     12644.75315347
  Solvation  Ediel_sol  =         0.00000000
  ---------------------------------------------------
  free energy    TOTEN  =      -717.38642660 eV

  energy without entropy =     -717.38642660  energy(sigma->0) =     -717.38642660


--------------------------------------------------------------------------------------------------------




--------------------------------------- Iteration      1(   6)  ---------------------------------------


    POTLOK:  cpu time    0.1409: real time    0.1426
    SETDIJ:  cpu time    0.0088: real time    0.0088
     EDDAV:  cpu time   12.2631: real time   12.3419
 BZINTS: Fermi energy: -5.517723;303.000000 electrons
         Band energy:***********;  BLOECHL correction: -0.021587
       DOS:  cpu time    0.0124: real time    0.0124
    CHARGE:  cpu time    0.1637: real time    0.1700
    MIXING:  cpu time    0.0034: real time    0.0039
    --------------------------------------------
      LOOP:  cpu time   12.5923: real time   12.6797

 eigenvalue-minimisations  :  4760
 total energy-change (2. order) : 0.5205267E+01  (-0.7101369E+01)
 number of electron     303.0000050 magnetization       0.0316000
 augmentation part       17.8561862 magnetization       0.0595950

 Broyden mixing:
  rms(total) = 0.72414E+01    rms(broyden)= 0.72411E+01
  rms(prec ) = 0.82801E+01
  weight for this iteration     100.00

 eigenvalues of (default mixing * dielectric matrix)
  average eigenvalue GAMMA=   0.2785
  0.2785

 Free energy of the ion-electron system (eV)
  ---------------------------------------------------
  alpha Z        PSCENC =       167.25321061
  Ewald energy   TEWEN  =     30903.47868443
  -Hartree energ DENC   =    -40933.78779541
  -exchange      EXHF   =         0.00000000
  -V(xc)+E(xc)   XCENC  =      1035.87170009
  PAW double counting   =     13271.20667024   -13362.78274894
  entropy T*S    EENTRO =         0.00000000
  eigenvalues    EBANDS =     -4438.17403416
  atomic energy  EATOM  =     12644.75315347
  Solvation  Ediel_sol  =         0.00000000
  ---------------------------------------------------
  free energy    TOTEN  =      -712.18115968 eV

  energy without entropy =     -712.18115968  energy(sigma->0) =     -712.18115968


--------------------------------------------------------------------------------------------------------




--------------------------------------- Iteration      1(   7)  ---------------------------------------


    POTLOK:  cpu time    0.1871: real time    0.1949
    SETDIJ:  cpu time    0.0084: real time    0.0084
     EDDAV:  cpu time   13.2609: real time   13.3372
 BZINTS: Fermi energy: -4.059823;303.000000 electrons
         Band energy:***********;  BLOECHL correction: -0.003640
       DOS:  cpu time    0.0118: real time    0.0119
    CHARGE:  cpu time    0.1970: real time    0.2017
    MIXING:  cpu time    0.0039: real time    0.0039
    --------------------------------------------
      LOOP:  cpu time   13.6690: real time   13.7581

 eigenvalue-minimisations  :  5288
 total energy-change (2. order) : 0.3680376E+02  (-0.7534357E+01)
 number of electron     303.0000020 magnetization       0.5671205
 augmentation part       14.0378571 magnetization       0.2444936

 Broyden mixing:
  rms(total) = 0.25419E+01    rms(broyden)= 0.25414E+01
  rms(prec ) = 0.27800E+01
  weight for this iteration     100.00

 eigenvalues of (default mixing * dielectric matrix)
  average eigenvalue GAMMA=   0.7456
  1.2075  0.2836

 Free energy of the ion-electron system (eV)
  ---------------------------------------------------
  alpha Z        PSCENC =       167.25321061
  Ewald energy   TEWEN  =     30903.47868443
  -Hartree energ DENC   =    -41086.28510061
  -exchange      EXHF   =         0.00000000
  -V(xc)+E(xc)   XCENC  =      1040.20554018
  PAW double counting   =     14445.67306810   -14541.56013019
  entropy T*S    EENTRO =         0.00000000
  eigenvalues    EBANDS =     -4248.89582086
  atomic energy  EATOM  =     12644.75315347
  Solvation  Ediel_sol  =         0.00000000
  ---------------------------------------------------
  free energy    TOTEN  =      -675.37739489 eV

  energy without entropy =     -675.37739489  energy(sigma->0) =     -675.37739489


--------------------------------------------------------------------------------------------------------




--------------------------------------- Iteration      1(   8)  ---------------------------------------


    POTLOK:  cpu time    0.1442: real time    0.1464
    SETDIJ:  cpu time    0.0089: real time    0.0089
     EDDAV:  cpu time   12.3927: real time   12.4585
 BZINTS: Fermi energy: -2.502920;303.000000 electrons
         Band energy:***********;  BLOECHL correction: -0.031951
       DOS:  cpu time    0.0117: real time    0.0117
    CHARGE:  cpu time    0.1629: real time    0.1644
    MIXING:  cpu time    0.0033: real time    0.0035
    --------------------------------------------
      LOOP:  cpu time   12.7237: real time   12.7935

 eigenvalue-minimisations  :  4816
 total energy-change (2. order) : 0.6425014E+01  (-0.3157792E+01)
 number of electron     303.0000021 magnetization       0.3629766
 augmentation part       12.4463933 magnetization       0.1824160

 Broyden mixing:
  rms(total) = 0.23123E+01    rms(broyden)= 0.23120E+01
  rms(prec ) = 0.26870E+01
  weight for this iteration     100.00

 eigenvalues of (default mixing * dielectric matrix)
  average eigenvalue GAMMA=   1.2093
  2.7724  0.5341  0.3213

 Free energy of the ion-electron system (eV)
  ---------------------------------------------------
  alpha Z        PSCENC =       167.25321061
  Ewald energy   TEWEN  =     30903.47868443
  -Hartree energ DENC   =    -41403.54329021
  -exchange      EXHF   =         0.00000000
  -V(xc)+E(xc)   XCENC  =      1051.38106930
  PAW double counting   =     18805.75609220   -18905.06845159
  entropy T*S    EENTRO =         0.00000000
  eigenvalues    EBANDS =     -3932.96284925
  atomic energy  EATOM  =     12644.75315347
  Solvation  Ediel_sol  =         0.00000000
  ---------------------------------------------------
  free energy    TOTEN  =      -668.95238105 eV

  energy without entropy =     -668.95238105  energy(sigma->0) =     -668.95238105


--------------------------------------------------------------------------------------------------------




--------------------------------------- Iteration      1(   9)  ---------------------------------------


    POTLOK:  cpu time    0.1357: real time    0.1378
    SETDIJ:  cpu time    0.0104: real time    0.0104
     EDDAV:  cpu time   12.0156: real time   12.0911
 BZINTS: Fermi energy: -2.711270;303.000000 electrons
         Band energy:***********;  BLOECHL correction: -0.051189
       DOS:  cpu time    0.0119: real time    0.0120
    CHARGE:  cpu time    0.1640: real time    0.1647
    MIXING:  cpu time    0.0036: real time    0.0037
    --------------------------------------------
      LOOP:  cpu time   12.3412: real time   12.4197

 eigenvalue-minimisations  :  4600
 total energy-change (2. order) : 0.4088983E+01  (-0.2170738E+01)
 number of electron     303.0000026 magnetization       0.1253654
 augmentation part       14.4213650 magnetization      -0.0537964

 Broyden mixing:
  rms(total) = 0.15334E+01    rms(broyden)= 0.15326E+01
  rms(prec ) = 0.18911E+01
  weight for this iteration     100.00

 eigenvalues of (default mixing * dielectric matrix)
  average eigenvalue GAMMA=   1.2250
  3.1756  1.0144  0.3549  0.3549

 Free energy of the ion-electron system (eV)
  ---------------------------------------------------
  alpha Z        PSCENC =       167.25321061
  Ewald energy   TEWEN  =     30903.47868443
  -Hartree energ DENC   =    -41789.57325902
  -exchange      EXHF   =         0.00000000
  -V(xc)+E(xc)   XCENC  =      1065.60211692
  PAW double counting   =     26429.43494042   -26531.93657156
  entropy T*S    EENTRO =         0.00000000
  eigenvalues    EBANDS =     -3553.87567333
  atomic energy  EATOM  =     12644.75315347
  Solvation  Ediel_sol  =         0.00000000
  ---------------------------------------------------
  free energy    TOTEN  =      -664.86339807 eV

  energy without entropy =     -664.86339807  energy(sigma->0) =     -664.86339807


--------------------------------------------------------------------------------------------------------




--------------------------------------- Iteration      1(  10)  ---------------------------------------


    POTLOK:  cpu time    0.1351: real time    0.1377
    SETDIJ:  cpu time    0.0106: real time    0.0106
     EDDAV:  cpu time   13.2663: real time   13.3361
 BZINTS: Fermi energy: -1.938274;303.000000 electrons
         Band energy:***********;  BLOECHL correction: -0.005739
       DOS:  cpu time    0.0119: real time    0.0119
    CHARGE:  cpu time    0.1603: real time    0.1608
    MIXING:  cpu time    0.0037: real time    0.0038
    --------------------------------------------
      LOOP:  cpu time   13.5879: real time   13.6608

 eigenvalue-minimisations  :  5280
 total energy-change (2. order) : 0.1433135E+01  (-0.9084323E+00)
 number of electron     303.0000021 magnetization       0.3930932
 augmentation part       13.0115573 magnetization       0.0386211

 Broyden mixing:
  rms(total) = 0.75067E+00    rms(broyden)= 0.75007E+00
  rms(prec ) = 0.82641E+00
  weight for this iteration     100.00

 eigenvalues of (default mixing * dielectric matrix)
  average eigenvalue GAMMA=   1.2642
  3.5097  1.4475  0.6770  0.3435  0.3435

 Free energy of the ion-electron system (eV)
  ---------------------------------------------------
  alpha Z        PSCENC =       167.25321061
  Ewald energy   TEWEN  =     30903.47868443
  -Hartree energ DENC   =    -41811.71181990
  -exchange      EXHF   =         0.00000000
  -V(xc)+E(xc)   XCENC  =      1066.38714134
  PAW double counting   =     28429.95886319   -28532.78172078
  entropy T*S    EENTRO =         0.00000000
  eigenvalues    EBANDS =     -3530.76777538
  atomic energy  EATOM  =     12644.75315347
  Solvation  Ediel_sol  =         0.00000000
  ---------------------------------------------------
  free energy    TOTEN  =      -663.43026302 eV

  energy without entropy =     -663.43026302  energy(sigma->0) =     -663.43026302


--------------------------------------------------------------------------------------------------------




--------------------------------------- Iteration      1(  11)  ---------------------------------------


    POTLOK:  cpu time    0.1428: real time    0.1446
    SETDIJ:  cpu time    0.0105: real time    0.0105
     EDDAV:  cpu time   12.9890: real time   13.0718
 BZINTS: Fermi energy: -2.034509;303.000000 electrons
         Band energy:***********;  BLOECHL correction:  0.000000
       DOS:  cpu time    0.0042: real time    0.0042
    CHARGE:  cpu time    0.1627: real time    0.1636
    MIXING:  cpu time    0.0039: real time    0.0039
    --------------------------------------------
      LOOP:  cpu time   13.3131: real time   13.3987

 eigenvalue-minimisations  :  5064
 total energy-change (2. order) : 0.1413019E+00  (-0.1038280E+00)
 number of electron     303.0000024 magnetization       0.9765271
 augmentation part       13.1524482 magnetization       0.3214336

 Broyden mixing:
  rms(total) = 0.57124E+00    rms(broyden)= 0.57102E+00
  rms(prec ) = 0.61878E+00
  weight for this iteration     100.00

 eigenvalues of (default mixing * dielectric matrix)
  average eigenvalue GAMMA=   1.1731
  3.5197  1.6733  0.5679  0.5679  0.3549  0.3549

 Free energy of the ion-electron system (eV)
  ---------------------------------------------------
  alpha Z        PSCENC =       167.25321061
  Ewald energy   TEWEN  =     30903.47868443
  -Hartree energ DENC   =    -41782.05956189
  -exchange      EXHF   =         0.00000000
  -V(xc)+E(xc)   XCENC  =      1065.90849479
  PAW double counting   =     30083.77432553   -30186.12732708
  entropy T*S    EENTRO =         0.00000000
  eigenvalues    EBANDS =     -3560.26994097
  atomic energy  EATOM  =     12644.75315347
  Solvation  Ediel_sol  =         0.00000000
  ---------------------------------------------------
  free energy    TOTEN  =      -663.28896111 eV

  energy without entropy =     -663.28896111  energy(sigma->0) =     -663.28896111


--------------------------------------------------------------------------------------------------------




--------------------------------------- Iteration      1(  12)  ---------------------------------------


    POTLOK:  cpu time    0.1458: real time    0.1481
    SETDIJ:  cpu time    0.0090: real time    0.0097
     EDDAV:  cpu time   11.6701: real time   11.7418
 BZINTS: Fermi energy: -2.152033;303.000000 electrons
         Band energy:***********;  BLOECHL correction:  0.000000
       DOS:  cpu time    0.0069: real time    0.0070
    CHARGE:  cpu time    0.1598: real time    0.1612
    MIXING:  cpu time    0.0040: real time    0.0040
    --------------------------------------------
      LOOP:  cpu time   11.9955: real time   12.0717

 eigenvalue-minimisations  :  4504
 total energy-change (2. order) : 0.4035658E-01  (-0.4513498E-01)
 number of electron     303.0000024 magnetization       0.9600669
 augmentation part       13.2713445 magnetization       0.4282256

 Broyden mixing:
  rms(total) = 0.33861E+00    rms(broyden)= 0.33849E+00
  rms(prec ) = 0.35638E+00
  weight for this iteration     100.00

 eigenvalues of (default mixing * dielectric matrix)
  average eigenvalue GAMMA=   1.3313
  3.7735  2.3672  0.8515  0.8139  0.8139  0.3497  0.3497

 Free energy of the ion-electron system (eV)
  ---------------------------------------------------
  alpha Z        PSCENC =       167.25321061
  Ewald energy   TEWEN  =     30903.47868443
  -Hartree energ DENC   =    -41739.45483473
  -exchange      EXHF   =         0.00000000
  -V(xc)+E(xc)   XCENC  =      1064.60547836
  PAW double counting   =     31057.68221246   -31159.46547592
  entropy T*S    EENTRO =         0.00000000
  eigenvalues    EBANDS =     -3602.10103321
  atomic energy  EATOM  =     12644.75315347
  Solvation  Ediel_sol  =         0.00000000
  ---------------------------------------------------
  free energy    TOTEN  =      -663.24860453 eV

  energy without entropy =     -663.24860453  energy(sigma->0) =     -663.24860453


--------------------------------------------------------------------------------------------------------




--------------------------------------- Iteration      1(  13)  ---------------------------------------


    POTLOK:  cpu time    0.1752: real time    0.1784
    SETDIJ:  cpu time    0.0087: real time    0.0087
     EDDAV:  cpu time   12.9235: real time   12.9956
 BZINTS: Fermi energy: -2.247059;303.000000 electrons
         Band energy:***********;  BLOECHL correction:  0.000000
       DOS:  cpu time    0.0071: real time    0.0071
    CHARGE:  cpu time    0.1621: real time    0.1631
    MIXING:  cpu time    0.0040: real time    0.0040
    --------------------------------------------
      LOOP:  cpu time   13.2807: real time   13.3570

 eigenvalue-minimisations  :  4832
 total energy-change (2. order) : 0.6606288E-02  (-0.2224784E-01)
 number of electron     303.0000024 magnetization       0.9368721
 augmentation part       13.3983233 magnetization       0.5036036

 Broyden mixing:
  rms(total) = 0.21033E+00    rms(broyden)= 0.21024E+00
  rms(prec ) = 0.21330E+00
  weight for this iteration     100.00

 eigenvalues of (default mixing * dielectric matrix)
  average eigenvalue GAMMA=   1.3446
  3.8251  2.3648  1.1774  1.1774  0.3496  0.3496  0.7566  0.7566

 Free energy of the ion-electron system (eV)
  ---------------------------------------------------
  alpha Z        PSCENC =       167.25321061
  Ewald energy   TEWEN  =     30903.47868443
  -Hartree energ DENC   =    -41713.30518933
  -exchange      EXHF   =         0.00000000
  -V(xc)+E(xc)   XCENC  =      1063.85328813
  PAW double counting   =     31845.75348510   -31947.12410261
  entropy T*S    EENTRO =         0.00000000
  eigenvalues    EBANDS =     -3627.90452805
  atomic energy  EATOM  =     12644.75315347
  Solvation  Ediel_sol  =         0.00000000
  ---------------------------------------------------
  free energy    TOTEN  =      -663.24199824 eV

  energy without entropy =     -663.24199824  energy(sigma->0) =     -663.24199824


--------------------------------------------------------------------------------------------------------




--------------------------------------- Iteration      1(  14)  ---------------------------------------


    POTLOK:  cpu time    0.1356: real time    0.1379
    SETDIJ:  cpu time    0.0100: real time    0.0104
     EDDAV:  cpu time   12.0025: real time   12.0698
 BZINTS: Fermi energy: -2.247059;303.000000 electrons
         Band energy:***********;  BLOECHL correction:  0.000000
       DOS:  cpu time    0.0073: real time    0.0074
    CHARGE:  cpu time    0.1612: real time    0.1617
    MIXING:  cpu time    0.0043: real time    0.0043
    --------------------------------------------
      LOOP:  cpu time   12.3209: real time   12.3915

 eigenvalue-minimisations  :  4568
 total energy-change (2. order) :-0.1030627E-01  (-0.5537935E-02)
 number of electron     303.0000024 magnetization       0.9512505
 augmentation part       13.4157043 magnetization       0.5382245

 Broyden mixing:
  rms(total) = 0.18239E+00    rms(broyden)= 0.18237E+00
  rms(prec ) = 0.18978E+00
  weight for this iteration     100.00

 eigenvalues of (default mixing * dielectric matrix)
  average eigenvalue GAMMA=   1.3703
  3.6694  2.3120  2.3120  0.3497  0.3497  0.7886  0.7886  0.9532  0.8098

 Free energy of the ion-electron system (eV)
  ---------------------------------------------------
  alpha Z        PSCENC =       167.25321061
  Ewald energy   TEWEN  =     30903.47868443
  -Hartree energ DENC   =    -41716.40411362
  -exchange      EXHF   =         0.00000000
  -V(xc)+E(xc)   XCENC  =      1063.95267066
  PAW double counting   =     31899.58643000   -32000.94037043
  entropy T*S    EENTRO =         0.00000000
  eigenvalues    EBANDS =     -3624.93196963
  atomic energy  EATOM  =     12644.75315347
  Solvation  Ediel_sol  =         0.00000000
  ---------------------------------------------------
  free energy    TOTEN  =      -663.25230452 eV

  energy without entropy =     -663.25230452  energy(sigma->0) =     -663.25230452


--------------------------------------------------------------------------------------------------------




--------------------------------------- Iteration      1(  15)  ---------------------------------------


    POTLOK:  cpu time    0.1461: real time    0.1482
    SETDIJ:  cpu time    0.0100: real time    0.0100
     EDDAV:  cpu time   12.0104: real time   12.0783
 BZINTS: Fermi energy: -2.237057;303.000000 electrons
         Band energy:***********;  BLOECHL correction:  0.000000
       DOS:  cpu time    0.0068: real time    0.0069
    CHARGE:  cpu time    0.1587: real time    0.1595
    MIXING:  cpu time    0.0045: real time    0.0045
    --------------------------------------------
      LOOP:  cpu time   12.3365: real time   12.4074

 eigenvalue-minimisations  :  4568
 total energy-change (2. order) :-0.1583679E-02  (-0.1444702E-02)
 number of electron     303.0000024 magnetization       0.9842655
 augmentation part       13.4097769 magnetization       0.5890718

 Broyden mixing:
  rms(total) = 0.13885E+00    rms(broyden)= 0.13883E+00
  rms(prec ) = 0.14769E+00
  weight for this iteration     100.00

 eigenvalues of (default mixing * dielectric matrix)
  average eigenvalue GAMMA=   1.3440
  3.6592  2.4294  2.4294  0.3496  0.3496  0.8530  0.8530  0.9125  0.8021  0.8021

 Free energy of the ion-electron system (eV)
  ---------------------------------------------------
  alpha Z        PSCENC =       167.25321061
  Ewald energy   TEWEN  =     30903.47868443
  -Hartree energ DENC   =    -41719.04922194
  -exchange      EXHF   =         0.00000000
  -V(xc)+E(xc)   XCENC  =      1064.02374136
  PAW double counting   =     31846.59942663   -31947.92018003
  entropy T*S    EENTRO =         0.00000000
  eigenvalues    EBANDS =     -3622.39270271
  atomic energy  EATOM  =     12644.75315347
  Solvation  Ediel_sol  =         0.00000000
  ---------------------------------------------------
  free energy    TOTEN  =      -663.25388820 eV

  energy without entropy =     -663.25388820  energy(sigma->0) =     -663.25388820


--------------------------------------------------------------------------------------------------------




--------------------------------------- Iteration      1(  16)  ---------------------------------------


    POTLOK:  cpu time    0.1367: real time    0.1392
    SETDIJ:  cpu time    0.0086: real time    0.0086
     EDDAV:  cpu time   12.9590: real time   13.0336
 BZINTS: Fermi energy: -2.227054;303.000000 electrons
         Band energy:***********;  BLOECHL correction:  0.000000
       DOS:  cpu time    0.0070: real time    0.0070
    CHARGE:  cpu time    0.1614: real time    0.1652
    MIXING:  cpu time    0.0043: real time    0.0045
    --------------------------------------------
      LOOP:  cpu time   13.2769: real time   13.3582

 eigenvalue-minimisations  :  5096
 total energy-change (2. order) : 0.2266614E-02  (-0.4201405E-03)
 number of electron     303.0000024 magnetization       0.9883951
 augmentation part       13.3911733 magnetization       0.6053369

 Broyden mixing:
  rms(total) = 0.98467E-01    rms(broyden)= 0.98463E-01
  rms(prec ) = 0.10285E+00
  weight for this iteration     100.00

 eigenvalues of (default mixing * dielectric matrix)
  average eigenvalue GAMMA=   1.3433
  3.6898  2.1177  2.1177  1.8159  0.3496  0.3496  0.9255  0.9255  0.7894  0.7894
  0.9062

 Free energy of the ion-electron system (eV)
  ---------------------------------------------------
  alpha Z        PSCENC =       167.25321061
  Ewald energy   TEWEN  =     30903.47868443
  -Hartree energ DENC   =    -41718.34799907
  -exchange      EXHF   =         0.00000000
  -V(xc)+E(xc)   XCENC  =      1064.00694373
  PAW double counting   =     31858.06855445   -31959.32378633
  entropy T*S    EENTRO =         0.00000000
  eigenvalues    EBANDS =     -3623.14038287
  atomic energy  EATOM  =     12644.75315347
  Solvation  Ediel_sol  =         0.00000000
  ---------------------------------------------------
  free energy    TOTEN  =      -663.25162158 eV

[...]
   0.160E+02 -.125E+01 0.788E+01   -.160E+02 0.109E+01 -.767E+01   0.613E-01 0.164E+00 -.178E+00   0.223E-02 0.275E-02 -.139E-01
   0.543E+02 0.162E+02 0.671E+02   -.542E+02 -.169E+02 -.689E+02   0.307E-01 0.851E+00 0.189E+01   -.852E-01 -.657E-01 -.613E-01
   0.516E+02 -.146E+02 0.693E+02   -.512E+02 0.152E+02 -.707E+02   -.294E+00 -.667E+00 0.146E+01   -.107E+00 0.416E-01 -.676E-01
   -.441E+02 0.125E+02 0.133E+02   0.429E+02 -.125E+02 -.130E+02   0.112E+01 0.988E-01 -.307E+00   0.619E-01 -.446E-01 -.404E-01
   -.406E+02 -.229E+02 0.111E+02   0.392E+02 0.230E+02 -.108E+02   0.129E+01 -.194E+00 -.298E+00   0.748E-01 0.245E-01 -.426E-01
   -.157E+02 0.157E+01 0.952E+01   0.155E+02 -.154E+01 -.951E+01   0.257E+00 0.111E-01 0.433E-02   -.250E-02 -.577E-02 -.909E-02
   -.145E+02 -.524E+01 0.104E+02   0.142E+02 0.522E+01 -.104E+02   0.297E+00 -.839E-02 -.551E-02   0.596E-03 -.170E-02 -.889E-02
   -.561E+01 -.408E+01 0.971E+01   0.541E+01 0.401E+01 -.974E+01   0.167E+00 0.501E-01 0.427E-01   0.683E-03 0.385E-02 -.541E-02
   -.262E+01 -.496E+01 0.900E+01   0.241E+01 0.499E+01 -.896E+01   0.209E+00 0.260E-01 -.439E-01   0.982E-02 -.379E-02 -.489E-02
   0.885E+01 -.269E+01 0.947E+01   -.898E+01 0.248E+01 -.949E+01   0.105E+00 0.178E+00 0.273E-01   0.728E-02 0.856E-02 -.675E-02
   0.740E+01 -.311E+01 0.102E+02   -.786E+01 0.290E+01 -.102E+02   0.451E+00 0.250E+00 -.176E-01   0.908E-02 0.705E-02 -.570E-02
   0.279E+02 -.960E+01 0.167E+02   -.278E+02 0.884E+01 -.164E+02   -.218E+00 0.779E+00 -.279E+00   -.172E-01 0.802E-02 -.243E-01
   0.164E+02 -.550E+01 0.217E+02   -.172E+02 0.452E+01 -.217E+02   0.784E+00 0.101E+01 0.239E-01   -.410E-02 0.155E-01 -.136E-01
   -.544E+01 -.532E+02 0.140E+03   0.133E+02 0.489E+02 -.142E+03   -.777E+01 0.402E+01 0.128E+01   -.146E+00 0.181E+00 -.141E+00
   -.202E+01 -.274E+02 0.572E+02   0.353E+01 0.256E+02 -.572E+02   -.142E+01 0.177E+01 0.583E-01   -.286E-01 0.531E-01 -.385E-01
   -.164E+02 -.541E+02 0.466E+01   0.987E+01 0.496E+02 -.275E+01   0.633E+01 0.439E+01 -.176E+01   0.169E+00 0.158E+00 -.883E-01
   -.122E+02 -.283E+02 0.730E+01   0.123E+02 0.265E+02 -.733E+01   -.737E-01 0.181E+01 0.411E-01   0.196E-01 0.401E-01 -.289E-01
   -.232E+02 -.132E+02 0.115E+02   0.227E+02 0.129E+02 -.117E+02   0.602E+00 0.295E+00 0.162E+00   0.104E-01 -.210E-02 -.150E-01
   -.117E+02 -.154E+02 0.825E+01   0.115E+02 0.154E+02 -.816E+01   0.196E+00 0.108E+00 -.632E-01   0.331E-02 -.598E-02 -.968E-02
   -.533E+01 -.391E+01 0.965E+01   0.509E+01 0.386E+01 -.966E+01   0.192E+00 0.420E-02 0.308E-01   0.641E-02 -.774E-02 -.555E-02
   -.313E+01 -.425E+01 0.994E+01   0.308E+01 0.426E+01 -.995E+01   0.612E-01 0.280E-01 0.105E-01   0.506E-02 0.136E-03 -.497E-02
   0.260E+01 -.120E+01 0.100E+02   -.286E+01 0.120E+01 -.100E+02   0.258E+00 0.725E-02 0.344E-01   0.869E-02 -.241E-02 -.446E-02
   0.169E+01 0.631E-01 0.965E+01   -.191E+01 -.398E-01 -.964E+01   0.217E+00 0.398E-02 0.118E-02   0.964E-02 -.128E-02 -.454E-02
   0.144E+02 -.117E+01 0.131E+02   -.150E+02 0.761E+00 -.131E+02   0.667E+00 0.397E+00 0.486E-02   0.204E-02 0.387E-02 -.679E-02
   0.140E+02 -.449E+01 0.111E+02   -.154E+02 0.414E+01 -.111E+02   0.135E+01 0.325E+00 0.108E-01   0.166E-01 0.777E-03 -.548E-02
   0.731E+01 0.102E+02 0.335E+02   -.667E+01 -.166E+02 -.338E+02   -.673E+00 0.643E+01 0.318E+00   -.122E-01 0.244E-01 -.151E-01
   0.400E+01 -.137E+02 0.216E+02   -.391E+01 0.138E+02 -.217E+02   -.580E-01 -.101E+00 0.104E+00   -.605E-02 0.111E-01 -.103E-01
   -.113E+02 -.177E+02 0.191E+02   0.122E+02 0.164E+02 -.188E+02   -.101E+01 0.128E+01 -.319E+00   -.536E-02 0.396E-01 -.245E-01
   -.109E+02 -.159E+02 0.147E+02   0.124E+02 0.150E+02 -.146E+02   -.140E+01 0.986E+00 -.605E-01   -.207E-01 0.430E-02 -.110E-01
   -.555E+01 -.142E+02 0.791E+01   0.507E+01 0.137E+02 -.790E+01   0.496E+00 0.467E+00 -.108E-01   -.190E-02 0.265E-02 -.126E-01
   -.584E+01 -.897E+01 0.106E+02   0.596E+01 0.865E+01 -.107E+02   -.136E+00 0.321E+00 0.103E+00   -.454E-02 -.595E-03 -.726E-02
   0.488E+02 -.809E+02 -.291E+03   -.393E+02 0.791E+02 0.284E+03   -.950E+01 0.180E+01 0.715E+01   -.237E-01 -.677E-01 -.361E+00
   0.228E+02 -.151E+02 -.266E+03   -.272E+02 0.201E+02 0.247E+03   0.434E+01 -.491E+01 0.181E+02   0.667E-01 -.695E-01 0.219E+00
   -.484E+02 0.647E+02 -.680E+03   0.604E+02 -.784E+02 0.736E+03   -.119E+02 0.138E+02 -.559E+02   0.349E-01 -.346E-01 0.102E+00
 -----------------------------------------------------------------------------------------------
   0.152E+02 -.115E+02 0.313E+02   -.355E-12 0.000E+00 -.114E-12   -.153E+02 0.116E+02 -.299E+02   0.798E-01 -.134E+00 -.141E+01
 
 
 POSITION                                       TOTAL-FORCE (eV/Angst)
 -----------------------------------------------------------------------------------
      7.41395     12.75128      7.38553         0.014233     -0.012391      0.011793
     -0.01197      1.41718      7.37298        -0.011350      0.039564     -0.010930
      2.47263      0.02115      7.37831        -0.022165     -0.002071     -0.009546
      2.47193      1.44151      7.37798         0.031445      0.052159     -0.001032
      4.95184      0.02949      7.38133        -0.041133     -0.076497     -0.009949
      4.94613      1.44645      7.41318         0.016805      0.054346     -0.003161
      7.42953      0.00830      7.36266        -0.003142     -0.004374      0.001301
      7.42729      1.42763      7.39483         0.011529      0.067250      0.001467
      2.45798     12.74249      7.34658         0.013299     -0.096653     -0.000092
      9.89243      1.40198      7.36450        -0.039291      0.058112      0.001138
      4.93390     12.74360      7.38553         0.001276     -0.066096     -0.002093
     12.36959      1.40453      7.37035        -0.028490      0.018156      0.004332
     13.60729      2.11959      7.36943         0.046075      0.028112     -0.004687
     -1.25168      3.53953      7.37017        -0.005704      0.009759      0.004149
      1.22667      2.13701      7.36632        -0.022153     -0.037293     -0.015745
      1.22626      3.55691      7.34780         0.018666      0.061959      0.015049
      3.70955      2.16483      7.41275        -0.012775     -0.077620     -0.000125
      3.71207      3.58656      7.45372         0.050386      0.049670     -0.004797
      6.18356      2.15055      7.42924         0.007459     -0.041408     -0.002121
      6.18254      3.57811      7.48984        -0.031883      0.004497      0.005598
      8.66396      2.12938      7.39395        -0.013061     -0.048074      0.001619
      8.66591      3.54322      7.43090        -0.026918      0.034910      0.001407
     11.13468      2.10997      7.36968        -0.007243      0.029777      0.022613
     11.13602      3.53573      7.38643        -0.028800      0.012506      0.000198
     12.37115      4.25032      7.38204        -0.022517     -0.077037     -0.008553
     -2.49006      5.67260      7.38663        -0.003734     -0.026809      0.011517
     -0.01732      4.25334      7.36562        -0.017600     -0.020500     -0.009113
     -0.03193      5.67400      7.38365         0.011522     -0.006671     -0.006719
      2.46661      4.28570      7.36428         0.017108     -0.043450      0.009792
      2.44063      5.69153      7.35265         0.002789      0.062144      0.005374
      4.94187      4.32393      7.55649        -0.056470     -0.002082     -0.028360
      4.96086      5.74988      7.70981        -0.040540      0.055860      0.016685
      7.43277      4.25505      7.48729         0.043221      0.036870      0.004072
      7.44799      5.67446      7.52045         0.002191     -0.062204      0.014025
      9.90619      4.25007      7.41515         0.017656     -0.028358     -0.011546
      9.90945      5.67076      7.42503         0.011185     -0.012330     -0.021048
     11.13924      6.38315      7.39933         0.003550      0.007653      0.007827
     -3.72089      7.80421      7.39387         0.046613      0.013591     -0.010408
     -1.26084      6.38693      7.38826        -0.009654      0.006896     -0.000087
     -1.26205      7.81063      7.37824         0.022592      0.002958      0.015227
      1.19746      6.38091      7.32917         0.009790      0.043198     -0.016222
      1.19311      7.82284      7.30059         0.056720     -0.016674      0.001694
      6.23205      6.38170      7.62046        -0.003961      0.061967     -0.023267
      6.22894      7.80428      7.60445        -0.040825     -0.113148     -0.018122
      8.68187      6.38291      7.46390         0.005427      0.036046      0.005667
      8.68056      7.80262      7.45417         0.004898     -0.034256      0.017953
     -4.95077      8.51536      7.41003        -0.025634     -0.013133      0.005585
     -4.95633      9.93648      7.39631         0.011821      0.055219     -0.008613
     -2.49091      8.51706      7.37487        -0.022052     -0.022716     -0.004715
     -2.48813      9.93897      7.36398         0.002188      0.051112      0.005727
     -0.03180      8.52681      7.35223        -0.070600      0.019758      0.005161
     -0.01781      9.95034      7.32730         0.006844      0.054271     -0.007848
      2.42621      8.51443      7.25382         0.013968     -0.088391     -0.038005
      2.45499      9.91967      7.29612         0.061832      0.017067      0.026303
      4.95643      8.43317      7.67920        -0.052950     -0.014257      0.062581
      4.93091      9.85982      7.51606        -0.002135     -0.009101     -0.015836
      7.44557      8.51049      7.49710         0.056342      0.058585      0.002764
      7.42802      9.92931      7.45615        -0.000136      0.038787      0.018002
     -6.19656     10.64263      7.40855        -0.044211     -0.048029      0.016036
     -6.19758     12.05992      7.38770         0.008325      0.037645     -0.007105
     -3.72298     10.64926      7.37404         0.003476      0.005186      0.013141
     -3.71646     12.07041      7.37549         0.007860      0.026344      0.009308
     -1.25554     10.64885      7.34777         0.019132     -0.006603     -0.003754
     -1.23773     12.06655      7.36041        -0.018031     -0.016883      0.000294
      1.22482     10.64956      7.30309        -0.046927     -0.019331      0.000244
      1.22375     12.05505      7.33598         0.018743     -0.016477      0.001109
      3.71116     10.60270      7.40367        -0.036510     -0.035388      0.002542
      3.69414     12.01855      7.37361         0.020091      0.049747      0.000513
      6.17221     10.60549      7.45803         0.014064     -0.023657     -0.007227
      6.17234     12.03034      7.40302        -0.019852     -0.002075      0.005318
      3.47957      7.11511      8.10978         0.038771     -0.008510      0.039872
      3.92826      6.60328      9.89621         0.043707     -0.029533     -0.041011
      4.16559      6.33042     11.00395         0.034849     -0.001596     -0.043157
 -----------------------------------------------------------------------------------
    total drift:                               -0.014607      0.003538      0.031056


--------------------------------------------------------------------------------------------------------



  FREE ENERGIE OF THE ION-ELECTRON SYSTEM (eV)
  ---------------------------------------------------
  free  energy   TOTEN  =      -669.82278569 eV

  energy  without entropy=     -669.82278569  energy(sigma->0) =     -669.82278569
 


--------------------------------------------------------------------------------------------------------


    POTLOK:  cpu time    0.1471: real time    0.1476


--------------------------------------------------------------------------------------------------------


 stress matrix after NEB project (eV)
     -9.65589     -1.19001      0.15365
     -1.19001     -1.25733     -0.04045
      0.15365     -0.04045     -3.28455
  FORCES: max atom, RMS     0.121646    0.053875
  FORCE total and by dimension    0.460312    0.113148
  Stress total and by dimension   10.415765    9.655894
     LOOP+:  cpu time  254.3723: real time  256.0243
    4ORBIT:  cpu time    0.0000: real time    0.0000
 


 total charge     
 
# of ion       s       p       d       tot
------------------------------------------
    1        0.863   1.780   0.000   2.642
    2        0.864   1.780   0.000   2.644
    3        0.864   1.780   0.000   2.644
    4        0.864   1.780   0.000   2.644
    5        0.863   1.781   0.000   2.644
    6        0.865   1.788   0.000   2.653
    7        0.852   1.750   0.000   2.602
    8        0.861   1.786   0.000   2.647
    9        0.851   1.748   0.000   2.599
   10        0.862   1.790   0.000   2.653
   11        0.862   1.782   0.000   2.645
   12        0.865   1.788   0.000   2.653
   13        0.864   1.787   0.000   2.651
   14        0.866   1.785   0.000   2.651
   15        0.864   1.783   0.000   2.647
   16        0.865   1.775   0.000   2.640
   17        0.863   1.777   0.000   2.640
   18        0.866   1.768   0.000   2.634
   19        0.861   1.773   0.000   2.635
   20        0.862   1.766   0.000   2.628
   21        0.866   1.790   0.000   2.656
   22        0.865   1.791   0.000   2.657
   23        0.862   1.787   0.000   2.649
   24        0.864   1.783   0.000   2.648
   25        0.864   1.786   0.000   2.650
   26        0.866   1.792   0.000   2.658
   27        0.865   1.788   0.000   2.653
   28        0.869   1.791   0.000   2.660
   29        0.865   1.775   0.000   2.640
   30        0.881   1.690   0.000   2.571
   31        0.858   1.749   0.000   2.607
   32        0.869   1.631   0.000   2.500
   33        0.866   1.792   0.000   2.658
   34        0.870   1.797   0.000   2.667
   35        0.865   1.789   0.000   2.654
   36        0.867   1.793   0.000   2.660
   37        0.866   1.794   0.000   2.660
   38        0.866   1.793   0.000   2.660
   39        0.866   1.791   0.000   2.657
   40        0.866   1.791   0.000   2.657
   41        0.868   1.775   0.000   2.642
   42        0.870   1.776   0.000   2.646
   43        0.876   1.792   0.000   2.668
   44        0.877   1.786   0.000   2.663
   45        0.868   1.791   0.000   2.659
   46        0.867   1.793   0.000   2.660
   47        0.868   1.790   0.000   2.658
   48        0.865   1.788   0.000   2.652
   49        0.868   1.793   0.000   2.660
   50        0.864   1.792   0.000   2.657
   51        0.867   1.795   0.000   2.662
   52        0.864   1.792   0.000   2.655
   53        0.878   1.707   0.000   2.585
   54        0.864   1.780   0.000   2.643
   55        0.870   1.646   0.000   2.517
   56        0.858   1.749   0.000   2.607
   57        0.870   1.796   0.000   2.666
   58        0.865   1.788   0.000   2.653
   59        0.866   1.786   0.000   2.652
   60        0.864   1.785   0.000   2.649
   61        0.866   1.787   0.000   2.652
   62        0.864   1.783   0.000   2.646
   63        0.867   1.789   0.000   2.656
   64        0.862   1.793   0.000   2.655
   65        0.854   1.741   0.000   2.595
   66        1.210   2.696   0.000   3.906
   67        0.866   1.776   0.000   2.642
   68        0.861   1.780   0.000   2.641
   69        0.863   1.763   0.000   2.626
   70        0.862   1.773   0.000   2.635
   71        0.408   6.446   4.326  11.180
   72        0.982   1.541   0.000   2.523
   73        1.627   3.527   0.000   5.154
--------------------------------------------------
tot         63.924 136.738   4.326 204.987
 


 magnetization (x)
 
# of ion       s       p       d       tot
------------------------------------------
    1        0.000   0.002   0.000   0.002
    2       -0.000  -0.002   0.000  -0.002
    3        0.000   0.002   0.000   0.002
    4       -0.000  -0.004   0.000  -0.004
    5        0.000   0.001   0.000   0.001
    6       -0.000  -0.004   0.000  -0.004
    7        0.000   0.004   0.000   0.004
    8       -0.000  -0.003   0.000  -0.003
    9        0.000   0.001   0.000   0.001
   10       -0.000  -0.001   0.000  -0.001
   11        0.000   0.001   0.000   0.001
   12       -0.000  -0.000   0.000  -0.000
   13        0.000   0.003   0.000   0.003
   14       -0.000  -0.003   0.000  -0.003
   15        0.000   0.001   0.000   0.001
   16       -0.001  -0.003   0.000  -0.004
   17        0.001   0.005   0.000   0.006
   18       -0.001  -0.014   0.000  -0.015
   19        0.000   0.003   0.000   0.003
   20       -0.001  -0.003   0.000  -0.004
   21        0.000   0.003   0.000   0.003
   22       -0.000  -0.003   0.000  -0.003
   23        0.000   0.003   0.000   0.003
   24       -0.000  -0.002   0.000  -0.002
   25        0.000   0.001   0.000   0.002
   26       -0.000  -0.001   0.000  -0.002
   27        0.000   0.008   0.000   0.008
   28       -0.000  -0.005   0.000  -0.005
   29        0.002   0.015   0.000   0.017
   30       -0.008  -0.046   0.000  -0.054
   31        0.001   0.008   0.000   0.009
   32       -0.007  -0.035   0.000  -0.042
   33        0.000   0.006   0.000   0.007
   34       -0.000  -0.004   0.000  -0.004
   35        0.000   0.001   0.000   0.001
   36       -0.000  -0.001   0.000  -0.002
   37        0.000   0.001   0.000   0.001
   38       -0.000  -0.002   0.000  -0.002
   39        0.000   0.002   0.000   0.002
   40       -0.000  -0.004   0.000  -0.004
   41        0.002   0.011   0.000   0.012
   42        0.000  -0.005   0.000  -0.005
   43        0.002   0.008   0.000   0.010
   44        0.001  -0.003   0.000  -0.002
   45        0.000  -0.001   0.000  -0.001
   46       -0.000  -0.003   0.000  -0.003
   47        0.000   0.002   0.000   0.003
   48       -0.000  -0.004   0.000  -0.004
   49        0.000   0.001   0.000   0.001
   50       -0.000  -0.003   0.000  -0.004
   51        0.000   0.002   0.000   0.002
   52       -0.000  -0.001   0.000  -0.001
   53       -0.003  -0.003   0.000  -0.006
   54        0.000   0.002   0.000   0.002
   55       -0.005  -0.022   0.000  -0.027
   56        0.000   0.004   0.000   0.005
   57        0.000   0.000   0.000   0.000
   58       -0.000  -0.000   0.000  -0.000
   59        0.000  -0.000   0.000  -0.000
   60       -0.000   0.000   0.000   0.000
   61        0.000   0.003   0.000   0.003
   62       -0.000  -0.004   0.000  -0.004
   63        0.000   0.003   0.000   0.003
   64       -0.000  -0.001   0.000  -0.001
   65       -0.000   0.002   0.000   0.002
   66       -0.000  -0.001   0.000  -0.001
   67        0.000  -0.003   0.000  -0.003
   68        0.000  -0.001   0.000  -0.001
   69       -0.000   0.000   0.000   0.000
   70       -0.000  -0.002   0.000  -0.002
   71        0.011   0.014   0.960   0.985
   72       -0.003   0.013   0.000   0.010
   73        0.001   0.039   0.000   0.040
--------------------------------------------------
tot         -0.009  -0.027   0.960   0.925
 
 BZINTS: Fermi energy: -2.217052;303.000000 electrons
         Band energy:***********;  BLOECHL correction:  0.000000

 total amount of memory used by VASP MPI-rank0   116147. kBytes
=======================================================================

   base      :      30000. kBytes
   nonl-proj :      27330. kBytes
   fftplans  :       4700. kBytes
   grid      :      15193. kBytes
   one-center:        217. kBytes
   wavefun   :      38707. kBytes
 
  
  
 General timing and accounting informations for this job:
 ========================================================
  
                  Total CPU time used (sec):      272.065
                            User time (sec):      267.293
                          System time (sec):        4.773
                         Elapsed time (sec):      282.363
  
                   Maximum memory used (kb):      473108.
                   Average memory used (kb):           0.
  
                          Minor page faults:       345864
                          Major page faults:            0
                 Voluntary context switches:         8787
