       N       E                     dE             d eps       ncg     rms          rms(c)
DAV:   1     0.252670616341E+04    0.25267E+04   -0.99691E+04  3952   0.112E+03
DAV:   2     0.666062016623E+02   -0.24601E+04   -0.23615E+04  4864   0.277E+02
DAV:   3    -0.481647688212E+03   -0.54825E+03   -0.54383E+03  4204   0.144E+02
DAV:   4    -0.505551713122E+03   -0.23904E+02   -0.23305E+02  4192   0.408E+01
DAV:   5    -0.506758367354E+03   -0.12067E+01   -0.11947E+01  5168   0.769E+00    0.367E+01
DAV:   6    -0.485543730253E+03    0.21215E+02   -0.59436E+01  4152   0.195E+01    0.216E+01
DAV:   7    -0.483546740423E+03    0.19970E+01   -0.34567E+01  4312   0.152E+01    0.149E+01
DAV:   8    -0.482147072399E+03    0.13997E+01   -0.14832E+01  4160   0.108E+01    0.105E+01
DAV:   9    -0.482329495113E+03   -0.18242E+00   -0.16804E+01  4864   0.836E+00    0.627E+00
DAV:  10    -0.481595209874E+03    0.73429E+00   -0.73845E+00  4520   0.671E+00    0.321E+00
DAV:  11    -0.481506812584E+03    0.88397E-01   -0.33039E+00  4512   0.391E+00    0.238E+00
DAV:  12    -0.481414081132E+03    0.92731E-01   -0.16216E+00  4872   0.249E+00    0.138E+00
DAV:  13    -0.481379611160E+03    0.34470E-01   -0.20357E-01  3968   0.119E+00    0.799E-01
DAV:  14    -0.481374141363E+03    0.54698E-02   -0.12989E-01  4200   0.727E-01    0.491E-01
DAV:  15    -0.481376015801E+03   -0.18744E-02   -0.12637E-01  4176   0.592E-01    0.525E-01
DAV:  16    -0.481371875038E+03    0.41408E-02   -0.63048E-02  4240   0.404E-01    0.208E-01
DAV:  17    -0.481372060168E+03   -0.18513E-03   -0.82620E-03  3864   0.171E-01    0.117E-01
DAV:  18    -0.481372185591E+03   -0.12542E-03   -0.29699E-03  3960   0.986E-02    0.117E-01
DAV:  19    -0.481372141299E+03    0.44291E-04   -0.25846E-03  3280   0.763E-02    0.626E-02
DAV:  20    -0.481372261584E+03   -0.12028E-03   -0.45121E-04  2448   0.383E-02    0.790E-02
DAV:  21    -0.481371996689E+03    0.26490E-03   -0.14653E-03  2320   0.350E-02    0.597E-02
DAV:  22    -0.481371960879E+03    0.35810E-04   -0.11527E-03  2752   0.335E-02    0.326E-02
DAV:  23    -0.481372046845E+03   -0.85966E-04   -0.14663E-04  2080   0.248E-02
   1 F= -.48518160E+03 E0= -.48518160E+03  d E =0.000000E+00  mag=    -0.0000
