       N       E                     dE             d eps       ncg     rms          ort
DAV:   1     0.245099886025E+04    0.24510E+04   -0.97884E+04   688   0.112E+03
DAV:   2     0.130878750940E+03   -0.23201E+04   -0.22238E+04   688   0.260E+02
DAV:   3    -0.445879118088E+03   -0.57676E+03   -0.57184E+03   688   0.141E+02
DAV:   4    -0.474177319013E+03   -0.28298E+02   -0.27455E+02   688   0.416E+01
DAV:   5    -0.475882916772E+03   -0.17056E+01   -0.16853E+01   688   0.890E+00
SDA:   6    -0.408593452960E+03    0.67289E+02   -0.16853E+01   688   0.216E+03 0.000E+00
CGA:   7    -0.446314583580E+03   -0.37721E+02   -0.37910E+02   688   0.357E+02 0.331E+01
CGA:   8    -0.451558238586E+03   -0.52437E+01   -0.53416E+01   688   0.133E+02-0.102E+01
CGA:   9    -0.453826529568E+03   -0.22683E+01   -0.22510E+01   688   0.355E+01-0.332E+00
CGA:  10    -0.454623503330E+03   -0.79697E+00   -0.79604E+00   688   0.108E+01 0.184E-01
CGA:  11    -0.454927811934E+03   -0.30431E+00   -0.30435E+00   688   0.357E+00-0.375E-03
CGA:  12    -0.455027919356E+03   -0.10011E+00   -0.10039E+00   688   0.257E+00-0.277E-02
CGA:  13    -0.455072316945E+03   -0.44398E-01   -0.44453E-01   688   0.130E+00 0.506E-03
CGA:  14    -0.455109018649E+03   -0.36702E-01   -0.36734E-01   688   0.653E-01-0.346E-03
CGA:  15    -0.455129906205E+03   -0.20888E-01   -0.20945E-01   688   0.476E-01-0.437E-03
CGA:  16    -0.455139950016E+03   -0.10044E-01   -0.10044E-01   688   0.273E-01 0.291E-03
CGA:  17    -0.455147412311E+03   -0.74623E-02   -0.74613E-02   688   0.135E-01 0.153E-04
CGA:  18    -0.455151097043E+03   -0.36847E-02   -0.36688E-02   688   0.102E-01 0.203E-03
CGA:  19    -0.455153606583E+03   -0.25095E-02   -0.25023E-02   688   0.633E-02 0.184E-03
CGA:  20    -0.455155981337E+03   -0.23748E-02   -0.23561E-02   688   0.526E-02 0.116E-03
CGA:  21    -0.455158324260E+03   -0.23429E-02   -0.23657E-02   688   0.561E-02-0.107E-03
CGA:  22    -0.455160327521E+03   -0.20033E-02   -0.19281E-02   688   0.460E-02 0.529E-03
CGA:  23    -0.455162125191E+03   -0.17977E-02   -0.18411E-02   688   0.413E-02-0.293E-03
CGA:  24    -0.455163586460E+03   -0.14613E-02   -0.14340E-02   688   0.274E-02 0.168E-03
CGA:  25    -0.455164804129E+03   -0.12177E-02   -0.12124E-02   688   0.280E-02 0.415E-04
CGA:  26    -0.455165820588E+03   -0.10165E-02   -0.10189E-02   688   0.256E-02 0.610E-06
CGA:  27    -0.455166990974E+03   -0.11704E-02   -0.11901E-02   688   0.348E-02-0.426E-04
CGA:  28    -0.455168275424E+03   -0.12844E-02   -0.12947E-02   688   0.407E-02-0.881E-04
CGA:  29    -0.455169608263E+03   -0.13328E-02   -0.13188E-02   688   0.442E-02 0.180E-03
CGA:  30    -0.455170884356E+03   -0.12761E-02   -0.12766E-02   688   0.357E-02 0.664E-04
CGA:  31    -0.455171824514E+03   -0.94016E-03   -0.93847E-03   688   0.331E-02 0.299E-04
CGA:  32    -0.455172622557E+03   -0.79804E-03   -0.80126E-03   688   0.302E-02 0.965E-04
CGA:  33    -0.455173331731E+03   -0.70917E-03   -0.71632E-03   688   0.271E-02 0.116E-03
CGA:  34    -0.455173990016E+03   -0.65829E-03   -0.66126E-03   688   0.249E-02 0.990E-04
CGA:  35    -0.455174523398E+03   -0.53338E-03   -0.52806E-03   688   0.219E-02 0.803E-04
CGA:  36    -0.455174916578E+03   -0.39318E-03   -0.38588E-03   688   0.197E-02 0.991E-04
SDA:  37    -0.455175236149E+03   -0.31957E-03   -0.31652E-03   688   0.181E-02 0.894E-04
CGA:  38    -0.455176276896E+03   -0.10407E-02   -0.10161E-02   688   0.204E-02 0.832E-04
CGA:  39    -0.455177144088E+03   -0.86719E-03   -0.86953E-03   688   0.153E-02-0.157E-04
CGA:  40    -0.455177656615E+03   -0.51253E-03   -0.50962E-03   688   0.733E-03 0.388E-04
CGA:  41    -0.455177898363E+03   -0.24175E-03   -0.24192E-03   688   0.326E-03-0.314E-05
CGA:  42    -0.455178044492E+03   -0.14613E-03   -0.14619E-03   688   0.276E-03-0.331E-06
CGA:  43    -0.455178140871E+03   -0.96379E-04   -0.96667E-04   688   0.141E-03-0.438E-05
   1 F= -.45867526E+03 E0= -.45865980E+03  d E =-.458675E+03  mag=     1.7300
       N       E                     dE             d eps       ncg     rms          ort
SDA:   1    -0.323414472654E+03    0.13176E+03    0.00000E+00   688   0.353E+03 0.000E+00
CGA:   2    -0.422897577533E+03   -0.99483E+02   -0.99942E+02   688   0.123E+03 0.846E+01
CGA:   3    -0.449975951949E+03   -0.27078E+02   -0.27680E+02   688   0.357E+02 0.223E+01
CGA:   4    -0.456565343231E+03   -0.65894E+01   -0.67649E+01   688   0.734E+01 0.567E+00
CGA:   5    -0.458248460600E+03   -0.16831E+01   -0.16902E+01   688   0.168E+01 0.320E-01
CGA:   6    -0.458651982666E+03   -0.40352E+00   -0.40383E+00   688   0.503E+00 0.260E-02
CGA:   7    -0.458787294190E+03   -0.13531E+00   -0.13534E+00   688   0.178E+00 0.536E-03
CGA:   8    -0.458844846469E+03   -0.57552E-01   -0.57526E-01   688   0.780E-01 0.500E-03
CGA:   9    -0.458871590175E+03   -0.26744E-01   -0.26736E-01   688   0.347E-01 0.120E-03
CGA:  10    -0.458883266604E+03   -0.11676E-01   -0.11670E-01   688   0.145E-01 0.124E-03
CGA:  11    -0.458888112054E+03   -0.48455E-02   -0.48454E-02   688   0.638E-02 0.869E-05
CGA:  12    -0.458890224539E+03   -0.21125E-02   -0.21114E-02   688   0.295E-02 0.216E-04
CGA:  13    -0.458891276192E+03   -0.10517E-02   -0.10522E-02   688   0.138E-02-0.992E-05
CGA:  14    -0.458891794481E+03   -0.51829E-03   -0.51831E-03   688   0.640E-03-0.105E-05
CGA:  15    -0.458892035089E+03   -0.24061E-03   -0.24099E-03   688   0.282E-03-0.521E-05
CGA:  16    -0.458892135696E+03   -0.10061E-03   -0.10063E-03   688   0.129E-03-0.224E-06
CGA:  17    -0.458892182214E+03   -0.46518E-04   -0.46626E-04   688   0.636E-04-0.174E-05
   2 F= -.46240807E+03 E0= -.46240055E+03  d E =-.373281E+01  mag=     1.8950
       N       E                     dE             d eps       ncg     rms          ort
SDA:   1    -0.447607321257E+03    0.11285E+02    0.00000E+00   688   0.353E+02 0.000E+00
CGA:   2    -0.457133962464E+03   -0.95266E+01   -0.94931E+01   688   0.119E+02-0.225E+00
CGA:   3    -0.459999106503E+03   -0.28651E+01   -0.28814E+01   688   0.291E+01 0.633E-01
CGA:   4    -0.460570876903E+03   -0.57177E+00   -0.57170E+00   688   0.676E+00 0.246E-02
CGA:   5    -0.460707661365E+03   -0.13678E+00   -0.13661E+00   688   0.144E+00 0.408E-03
CGA:   6    -0.460740907533E+03   -0.33246E-01   -0.33258E-01   688   0.351E-01 0.485E-04
CGA:   7    -0.460750891838E+03   -0.99843E-02   -0.99839E-02   688   0.133E-01-0.179E-04
CGA:   8    -0.460755228297E+03   -0.43365E-02   -0.43369E-02   688   0.663E-02-0.687E-05
CGA:   9    -0.460757602407E+03   -0.23741E-02   -0.23749E-02   688   0.312E-02-0.107E-04
CGA:  10    -0.460758669178E+03   -0.10668E-02   -0.10670E-02   688   0.123E-02-0.545E-05
CGA:  11    -0.460759081026E+03   -0.41185E-03   -0.41211E-03   688   0.456E-03-0.786E-05
CGA:  12    -0.460759242251E+03   -0.16122E-03   -0.16121E-03   688   0.188E-03 0.333E-06
CGA:  13    -0.460759309651E+03   -0.67400E-04   -0.67440E-04   688   0.101E-03-0.763E-06
   3 F= -.46426940E+03 E0= -.46426016E+03  d E =-.559414E+01  mag=     1.8627
       N       E                     dE             d eps       ncg     rms          ort
SDA:   1    -0.429168062443E+03    0.31591E+02    0.00000E+00   688   0.977E+02 0.000E+00
CGA:   2    -0.455812977188E+03   -0.26645E+02   -0.26707E+02   688   0.292E+02 0.629E+00
CGA:   3    -0.463515067658E+03   -0.77021E+01   -0.76823E+01   688   0.575E+01-0.112E+00
CGA:   4    -0.464856217773E+03   -0.13412E+01   -0.13412E+01   688   0.115E+01 0.945E-03
CGA:   5    -0.465114994648E+03   -0.25878E+00   -0.25893E+00   688   0.253E+00 0.533E-03
CGA:   6    -0.465180201162E+03   -0.65207E-01   -0.65210E-01   688   0.868E-01 0.961E-04
CGA:   7    -0.465206156159E+03   -0.25955E-01   -0.25955E-01   688   0.394E-01 0.682E-04
CGA:   8    -0.465220395649E+03   -0.14239E-01   -0.14237E-01   688   0.198E-01 0.417E-04
CGA:   9    -0.465226899804E+03   -0.65042E-02   -0.65025E-02   688   0.794E-02 0.532E-04
CGA:  10    -0.465229371508E+03   -0.24717E-02   -0.24716E-02   688   0.278E-02 0.114E-04
CGA:  11    -0.465230273822E+03   -0.90231E-03   -0.90211E-03   688   0.112E-02 0.697E-05
CGA:  12    -0.465230656626E+03   -0.38280E-03   -0.38318E-03   688   0.563E-03-0.965E-05
CGA:  13    -0.465230848146E+03   -0.19152E-03   -0.19165E-03   688   0.278E-03-0.369E-05
CGA:  14    -0.465230949939E+03   -0.10179E-03   -0.10213E-03   688   0.129E-03-0.534E-05
CGA:  15    -0.465230995214E+03   -0.45275E-04   -0.45320E-04   688   0.545E-04-0.906E-06
   4 F= -.46875256E+03 E0= -.46874547E+03  d E =-.448316E+01  mag=     1.8986
       N       E                     dE             d eps       ncg     rms          ort
SDA:   1    -0.247635523367E+03    0.21760E+03    0.00000E+00   688   0.606E+03 0.000E+00
CGA:   2    -0.412145828457E+03   -0.16451E+03   -0.16542E+03   688   0.180E+03 0.813E+01
CGA:   3    -0.457806175564E+03   -0.45660E+02   -0.45940E+02   688   0.387E+02 0.180E+01
CGA:   4    -0.466192496056E+03   -0.83863E+01   -0.83301E+01   688   0.101E+02 0.752E-01
CGA:   5    -0.468303703756E+03   -0.21112E+01   -0.21136E+01   688   0.225E+01 0.106E-01
CGA:   6    -0.468864994525E+03   -0.56129E+00   -0.56086E+00   688   0.683E+00-0.123E-02
CGA:   7    -0.469081885226E+03   -0.21689E+00   -0.21690E+00   688   0.281E+00-0.326E-03
CGA:   8    -0.469184472950E+03   -0.10259E+00   -0.10254E+00   688   0.138E+00 0.510E-03
CGA:   9    -0.469227937345E+03   -0.43464E-01   -0.43472E-01   688   0.594E-01-0.307E-03
CGA:  10    -0.469244310763E+03   -0.16373E-01   -0.16386E-01   688   0.231E-01 0.245E-03
CGA:  11    -0.469251029548E+03   -0.67188E-02   -0.67166E-02   688   0.941E-02-0.872E-04
CGA:  12    -0.469254180624E+03   -0.31511E-02   -0.31499E-02   688   0.414E-02 0.167E-04
CGA:  13    -0.469255776153E+03   -0.15955E-02   -0.15982E-02   688   0.200E-02-0.290E-04
CGA:  14    -0.469256490458E+03   -0.71431E-03   -0.71443E-03   688   0.109E-02-0.381E-05
CGA:  15    -0.469256808991E+03   -0.31853E-03   -0.31838E-03   688   0.480E-03-0.908E-05
CGA:  16    -0.469256964684E+03   -0.15569E-03   -0.15568E-03   688   0.169E-03 0.812E-06
CGA:  17    -0.469257028984E+03   -0.64299E-04   -0.64382E-04   688   0.748E-04-0.118E-05
   5 F= -.47280543E+03 E0= -.47280111E+03  d E =-.853603E+01  mag=     1.9569
       N       E                     dE             d eps       ncg     rms          ort
SDA:   1    -0.464656154769E+03    0.46008E+01    0.00000E+00   688   0.130E+02 0.000E+00
CGA:   2    -0.468049443185E+03   -0.33933E+01   -0.33873E+01   688   0.449E+01-0.346E-01
CGA:   3    -0.469062717872E+03   -0.10133E+01   -0.10278E+01   688   0.109E+01 0.275E-01
CGA:   4    -0.469276355547E+03   -0.21364E+00   -0.21183E+00   688   0.257E+00 0.140E-02
CGA:   5    -0.469331403110E+03   -0.55048E-01   -0.55021E-01   688   0.564E-01 0.576E-04
CGA:   6    -0.469343735681E+03   -0.12333E-01   -0.12338E-01   688   0.166E-01-0.117E-04
CGA:   7    -0.469348486321E+03   -0.47506E-02   -0.47505E-02   688   0.634E-02-0.206E-04
CGA:   8    -0.469350707038E+03   -0.22207E-02   -0.22195E-02   688   0.383E-02 0.174E-04
CGA:   9    -0.469351852130E+03   -0.11451E-02   -0.11451E-02   688   0.178E-02-0.394E-05
CGA:  10    -0.469352401260E+03   -0.54913E-03   -0.54904E-03   688   0.591E-03 0.620E-05
CGA:  11    -0.469352595130E+03   -0.19387E-03   -0.19393E-03   688   0.219E-03-0.199E-05
CGA:  12    -0.469352665742E+03   -0.70612E-04   -0.70564E-04   688   0.898E-04 0.188E-05
   6 F= -.47289730E+03 E0= -.47289279E+03  d E =-.862790E+01  mag=     1.9508
       N       E                     dE             d eps       ncg     rms          ort
SDA:   1    -0.450413155135E+03    0.18939E+02    0.00000E+00   688   0.586E+02 0.000E+00
CGA:   2    -0.465342920837E+03   -0.14930E+02   -0.14961E+02   688   0.175E+02 0.245E+00
CGA:   3    -0.469992640652E+03   -0.46497E+01   -0.46360E+01   688   0.377E+01-0.132E+00
CGA:   4    -0.470841693162E+03   -0.84905E+00   -0.85084E+00   688   0.879E+00 0.578E-02
CGA:   5    -0.471041440722E+03   -0.19975E+00   -0.19964E+00   688   0.213E+00-0.166E-03
CGA:   6    -0.471096090133E+03   -0.54649E-01   -0.54666E-01   688   0.871E-01 0.202E-03
CGA:   7    -0.471120393081E+03   -0.24303E-01   -0.24306E-01   688   0.425E-01 0.168E-03
CGA:   8    -0.471133904595E+03   -0.13512E-01   -0.13513E-01   688   0.197E-01-0.395E-04
CGA:   9    -0.471139950381E+03   -0.60458E-02   -0.60451E-02   688   0.686E-02 0.230E-04
CGA:  10    -0.471142120478E+03   -0.21701E-02   -0.21703E-02   688   0.219E-02-0.595E-05
CGA:  11    -0.471142904607E+03   -0.78413E-03   -0.78440E-03   688   0.854E-03-0.425E-05
CGA:  12    -0.471143229086E+03   -0.32448E-03   -0.32507E-03   688   0.429E-03-0.701E-05
CGA:  13    -0.471143378249E+03   -0.14916E-03   -0.14940E-03   688   0.211E-03-0.463E-05
CGA:  14    -0.471143449868E+03   -0.71619E-04   -0.71776E-04   688   0.877E-04-0.384E-05
   7 F= -.47469513E+03 E0= -.47468925E+03  d E =-.179783E+01  mag=     1.9319
       N       E                     dE             d eps       ncg     rms          ort
SDA:   1    -0.426284530492E+03    0.44859E+02    0.00000E+00   688   0.130E+03 0.000E+00
CGA:   2    -0.459349752136E+03   -0.33065E+02   -0.33158E+02   688   0.388E+02 0.638E+00
CGA:   3    -0.469590001676E+03   -0.10240E+02   -0.10218E+02   688   0.864E+01-0.137E+00
CGA:   4    -0.471445779109E+03   -0.18558E+01   -0.18604E+01   688   0.233E+01 0.936E-02
CGA:   5    -0.471929739472E+03   -0.48396E+00   -0.48326E+00   688   0.584E+00 0.302E-03
CGA:   6    -0.472071369467E+03   -0.14163E+00   -0.14174E+00   688   0.200E+00 0.759E-03
CGA:   7    -0.472132482981E+03   -0.61114E-01   -0.61101E-01   688   0.905E-01 0.539E-03
CGA:   8    -0.472163798927E+03   -0.31316E-01   -0.31320E-01   688   0.404E-01-0.518E-04
CGA:   9    -0.472176794152E+03   -0.12995E-01   -0.12997E-01   688   0.146E-01-0.388E-04
CGA:  10    -0.472181063601E+03   -0.42694E-02   -0.42695E-02   688   0.570E-02 0.405E-05
CGA:  11    -0.472182670815E+03   -0.16072E-02   -0.16067E-02   688   0.244E-02-0.203E-04
CGA:  12    -0.472183491407E+03   -0.82059E-03   -0.82068E-03   688   0.103E-02-0.384E-05
CGA:  13    -0.472183917416E+03   -0.42601E-03   -0.42730E-03   688   0.461E-03-0.109E-04
CGA:  14    -0.472184095725E+03   -0.17831E-03   -0.17876E-03   688   0.238E-03-0.504E-05
CGA:  15    -0.472184162639E+03   -0.66914E-04   -0.66859E-04   688   0.114E-03-0.211E-05
   8 F= -.47574701E+03 E0= -.47573714E+03  d E =-.284971E+01  mag=     1.8795
       N       E                     dE             d eps       ncg     rms          ort
SDA:   1    -0.447279248299E+03    0.24905E+02    0.00000E+00   688   0.697E+02 0.000E+00
CGA:   2    -0.465650480676E+03   -0.18371E+02   -0.18377E+02   688   0.228E+02 0.754E-01
CGA:   3    -0.471474011428E+03   -0.58235E+01   -0.58223E+01   688   0.584E+01 0.142E-01
CGA:   4    -0.472616931043E+03   -0.11429E+01   -0.11480E+01   688   0.157E+01 0.150E-02
CGA:   5    -0.472940460590E+03   -0.32353E+00   -0.32317E+00   688   0.378E+00 0.344E-03
CGA:   6    -0.473038027233E+03   -0.97567E-01   -0.97607E-01   688   0.130E+00 0.494E-03
CGA:   7    -0.473078713462E+03   -0.40686E-01   -0.40683E-01   688   0.601E-01 0.879E-04
CGA:   8    -0.473099425198E+03   -0.20712E-01   -0.20725E-01   688   0.268E-01-0.168E-03
CGA:   9    -0.473108012285E+03   -0.85871E-02   -0.85876E-02   688   0.101E-01-0.232E-04
CGA:  10    -0.473111091928E+03   -0.30796E-02   -0.30797E-02   688   0.408E-02-0.617E-05
CGA:  11    -0.473112261467E+03   -0.11695E-02   -0.11694E-02   688   0.227E-02-0.165E-04
CGA:  12    -0.473112890843E+03   -0.62938E-03   -0.62909E-03   688   0.120E-02-0.122E-04
CGA:  13    -0.473113257413E+03   -0.36657E-03   -0.36661E-03   688   0.707E-03-0.391E-05
CGA:  14    -0.473113476437E+03   -0.21902E-03   -0.21913E-03   688   0.316E-03-0.596E-05
CGA:  15    -0.473113600118E+03   -0.12368E-03   -0.12374E-03   688   0.146E-03-0.604E-06
CGA:  16    -0.473113654623E+03   -0.54505E-04   -0.54532E-04   688   0.114E-03-0.772E-07
   9 F= -.47668105E+03 E0= -.47665995E+03  d E =-.934047E+00  mag=     1.6825
       N       E                     dE             d eps       ncg     rms          ort
SDA:   1    -0.472707966502E+03    0.40563E+00    0.00000E+00   688   0.113E+01 0.000E+00
CGA:   2    -0.473009294345E+03   -0.30133E+00   -0.30129E+00   688   0.373E+00-0.360E-03
CGA:   3    -0.473105512065E+03   -0.96218E-01   -0.96254E-01   688   0.890E-01 0.312E-03
CGA:   4    -0.473124287511E+03   -0.18775E-01   -0.18775E-01   688   0.220E-01-0.463E-05
CGA:   5    -0.473128889079E+03   -0.46016E-02   -0.46025E-02   688   0.589E-02 0.965E-05
CGA:   6    -0.473130325779E+03   -0.14367E-02   -0.14365E-02   688   0.225E-02-0.673E-05
CGA:   7    -0.473130973158E+03   -0.64738E-03   -0.64737E-03   688   0.105E-02 0.520E-05
CGA:   8    -0.473131315424E+03   -0.34227E-03   -0.34196E-03   688   0.527E-03 0.776E-05
CGA:   9    -0.473131456719E+03   -0.14129E-03   -0.14136E-03   688   0.250E-03 0.280E-05
CGA:  10    -0.473131519176E+03   -0.62457E-04   -0.62560E-04   688   0.901E-04 0.249E-05
  10 F= -.47669859E+03 E0= -.47667857E+03  d E =-.951586E+00  mag=     1.6922
       N       E                     dE             d eps       ncg     rms          ort
SDA:   1    -0.469660308619E+03    0.34711E+01    0.00000E+00   688   0.975E+01 0.000E+00
CGA:   2    -0.472666870098E+03   -0.30066E+01   -0.30064E+01   688   0.339E+01 0.303E-02
CGA:   3    -0.473438931905E+03   -0.77206E+00   -0.77289E+00   688   0.963E+00 0.364E-02
CGA:   4    -0.473607900941E+03   -0.16897E+00   -0.16924E+00   688   0.216E+00-0.433E-03
CGA:   5    -0.473653948774E+03   -0.46048E-01   -0.46024E-01   688   0.482E-01-0.340E-04
CGA:   6    -0.473667329773E+03   -0.13381E-01   -0.13381E-01   688   0.166E-01-0.988E-05
CGA:   7    -0.473672562936E+03   -0.52332E-02   -0.52345E-02   688   0.858E-02-0.309E-04
CGA:   8    -0.473675357639E+03   -0.27947E-02   -0.27947E-02   688   0.414E-02 0.840E-06
CGA:   9    -0.473676653498E+03   -0.12959E-02   -0.12963E-02   688   0.171E-02-0.136E-04
CGA:  10    -0.473677140448E+03   -0.48695E-03   -0.48696E-03   688   0.781E-03-0.288E-05
CGA:  11    -0.473677322909E+03   -0.18246E-03   -0.18244E-03   688   0.361E-03-0.486E-06
CGA:  12    -0.473677433177E+03   -0.11027E-03   -0.11029E-03   688   0.145E-03-0.736E-06
CGA:  13    -0.473677489798E+03   -0.56621E-04   -0.56478E-04   688   0.712E-04 0.129E-05
  11 F= -.47724433E+03 E0= -.47722364E+03  d E =-.545736E+00  mag=     1.7154
       N       E                     dE             d eps       ncg     rms          ort
SDA:   1    -0.469566142045E+03    0.41113E+01    0.00000E+00   688   0.104E+02 0.000E+00
CGA:   2    -0.472778967360E+03   -0.32128E+01   -0.32126E+01   688   0.361E+01 0.469E-02
CGA:   3    -0.473606576682E+03   -0.82761E+00   -0.82834E+00   688   0.103E+01 0.339E-02
CGA:   4    -0.473786164058E+03   -0.17959E+00   -0.17991E+00   688   0.230E+00-0.495E-03
CGA:   5    -0.473835208030E+03   -0.49044E-01   -0.49016E-01   688   0.510E-01-0.422E-04
CGA:   6    -0.473849431917E+03   -0.14224E-01   -0.14224E-01   688   0.174E-01-0.147E-04
CGA:   7    -0.473854996151E+03   -0.55642E-02   -0.55666E-02   688   0.911E-02-0.510E-04
CGA:   8    -0.473857952622E+03   -0.29565E-02   -0.29567E-02   688   0.444E-02-0.507E-05
CGA:   9    -0.473859310071E+03   -0.13574E-02   -0.13579E-02   688   0.195E-02-0.165E-04
CGA:  10    -0.473859823953E+03   -0.51388E-03   -0.51381E-03   688   0.920E-03-0.511E-05
CGA:  11    -0.473860043367E+03   -0.21941E-03   -0.21940E-03   688   0.384E-03-0.781E-06
CGA:  12    -0.473860170876E+03   -0.12751E-03   -0.12753E-03   688   0.163E-03-0.521E-06
CGA:  13    -0.473860234110E+03   -0.63234E-04   -0.63081E-04   688   0.859E-04 0.143E-05
  12 F= -.47742664E+03 E0= -.47740454E+03  d E =-.728045E+00  mag=     1.7546
       N       E                     dE             d eps       ncg     rms          ort
SDA:   1    -0.469851652020E+03    0.40085E+01    0.00000E+00   688   0.112E+02 0.000E+00
CGA:   2    -0.473122742915E+03   -0.32711E+01   -0.32712E+01   688   0.373E+01-0.182E-01
CGA:   3    -0.473935855449E+03   -0.81311E+00   -0.81423E+00   688   0.109E+01 0.439E-02
CGA:   4    -0.474128111273E+03   -0.19226E+00   -0.19283E+00   688   0.235E+00-0.671E-03
CGA:   5    -0.474178654002E+03   -0.50543E-01   -0.50517E-01   688   0.504E-01-0.112E-04
CGA:   6    -0.474191896186E+03   -0.13242E-01   -0.13242E-01   688   0.146E-01-0.702E-05
CGA:   7    -0.474196377718E+03   -0.44815E-02   -0.44817E-02   688   0.703E-02-0.622E-05
CGA:   8    -0.474198646653E+03   -0.22689E-02   -0.22684E-02   688   0.335E-02 0.134E-04
CGA:   9    -0.474199767732E+03   -0.11211E-02   -0.11213E-02   688   0.134E-02-0.456E-05
CGA:  10    -0.474200176320E+03   -0.40859E-03   -0.40859E-03   688   0.540E-03-0.111E-06
CGA:  11    -0.474200312987E+03   -0.13667E-03   -0.13668E-03   688   0.280E-03 0.452E-06
CGA:  12    -0.474200385097E+03   -0.72110E-04   -0.72098E-04   688   0.110E-03-0.468E-06
  13 F= -.47777036E+03 E0= -.47774799E+03  d E =-.343726E+00  mag=     1.7355
       N       E                     dE             d eps       ncg     rms          ort
SDA:   1    -0.470688674826E+03    0.35116E+01    0.00000E+00   688   0.923E+01 0.000E+00
CGA:   2    -0.473400347704E+03   -0.27117E+01   -0.27119E+01   688   0.305E+01-0.158E-01
CGA:   3    -0.474073477745E+03   -0.67313E+00   -0.67394E+00   688   0.878E+00 0.380E-02
CGA:   4    -0.474228465858E+03   -0.15499E+00   -0.15538E+00   688   0.192E+00-0.398E-03
CGA:   5    -0.474269380048E+03   -0.40914E-01   -0.40895E-01   688   0.414E-01-0.198E-06
CGA:   6    -0.474280201991E+03   -0.10822E-01   -0.10822E-01   688   0.120E-01-0.104E-04
CGA:   7    -0.474283878165E+03   -0.36762E-02   -0.36764E-02   688   0.584E-02-0.671E-05
CGA:   8    -0.474285741129E+03   -0.18630E-02   -0.18625E-02   688   0.283E-02 0.122E-04
CGA:   9    -0.474286668055E+03   -0.92693E-03   -0.92716E-03   688   0.119E-02-0.478E-05
CGA:  10    -0.474287003511E+03   -0.33546E-03   -0.33546E-03   688   0.542E-03-0.682E-06
CGA:  11    -0.474287129416E+03   -0.12591E-03   -0.12594E-03   688   0.232E-03 0.641E-06
CGA:  12    -0.474287199248E+03   -0.69832E-04   -0.69846E-04   688   0.915E-04-0.622E-06
  14 F= -.47786088E+03 E0= -.47783793E+03  d E =-.434239E+00  mag=     1.7136
       N       E                     dE             d eps       ncg     rms          ort
SDA:   1    -0.472608804774E+03    0.16783E+01    0.00000E+00   688   0.508E+01 0.000E+00
CGA:   2    -0.474070386043E+03   -0.14616E+01   -0.14616E+01   688   0.160E+01-0.350E-02
CGA:   3    -0.474433610995E+03   -0.36322E+00   -0.36349E+00   688   0.453E+00 0.164E-02
CGA:   4    -0.474515032155E+03   -0.81421E-01   -0.81553E-01   688   0.104E+00-0.117E-03
CGA:   5    -0.474536851091E+03   -0.21819E-01   -0.21811E-01   688   0.227E-01 0.825E-06
CGA:   6    -0.474542881650E+03   -0.60306E-02   -0.60305E-02   688   0.694E-02-0.129E-04
CGA:   7    -0.474544968645E+03   -0.20870E-02   -0.20871E-02   688   0.344E-02-0.163E-05
CGA:   8    -0.474546038095E+03   -0.10695E-02   -0.10689E-02   688   0.166E-02 0.148E-04
CGA:   9    -0.474546558210E+03   -0.52011E-03   -0.52012E-03   688   0.760E-03-0.533E-06
CGA:  10    -0.474546754237E+03   -0.19603E-03   -0.19604E-03   688   0.336E-03 0.192E-06
CGA:  11    -0.474546839524E+03   -0.85286E-04   -0.85352E-04   688   0.126E-03 0.280E-05
  15 F= -.47812407E+03 E0= -.47810116E+03  d E =-.263190E+00  mag=     1.6984
       N       E                     dE             d eps       ncg     rms          ort
SDA:   1    -0.457520505093E+03    0.17026E+02    0.00000E+00   688   0.464E+02 0.000E+00
CGA:   2    -0.470332404649E+03   -0.12812E+02   -0.12811E+02   688   0.172E+02-0.169E+00
CGA:   3    -0.473757719757E+03   -0.34253E+01   -0.34385E+01   688   0.496E+01 0.712E-01
CGA:   4    -0.474689064232E+03   -0.93134E+00   -0.93577E+00   688   0.983E+00 0.289E-02
CGA:   5    -0.474911127022E+03   -0.22206E+00   -0.22194E+00   688   0.210E+00-0.760E-03
CGA:   6    -0.474967138124E+03   -0.56011E-01   -0.56011E-01   688   0.645E-01 0.601E-05
CGA:   7    -0.474986088468E+03   -0.18950E-01   -0.18952E-01   688   0.307E-01-0.354E-04
CGA:   8    -0.474996142347E+03   -0.10054E-01   -0.10051E-01   688   0.142E-01 0.548E-04
CGA:   9    -0.475000780035E+03   -0.46377E-02   -0.46365E-02   688   0.650E-02 0.159E-04
CGA:  10    -0.475002496926E+03   -0.17169E-02   -0.17171E-02   688   0.270E-02 0.842E-05
CGA:  11    -0.475003218218E+03   -0.72129E-03   -0.72137E-03   688   0.105E-02 0.881E-05
CGA:  12    -0.475003570047E+03   -0.35183E-03   -0.35181E-03   688   0.450E-03 0.334E-06
CGA:  13    -0.475003744149E+03   -0.17410E-03   -0.17403E-03   688   0.234E-03 0.626E-06
CGA:  14    -0.475003820917E+03   -0.76768E-04   -0.76792E-04   688   0.130E-03-0.482E-06
  16 F= -.47859142E+03 E0= -.47856802E+03  d E =-.730544E+00  mag=     1.6399
       N       E                     dE             d eps       ncg     rms          ort
SDA:   1    -0.471766183564E+03    0.32376E+01    0.00000E+00   688   0.861E+01 0.000E+00
CGA:   2    -0.474218731992E+03   -0.24525E+01   -0.24526E+01   688   0.282E+01-0.104E-01
CGA:   3    -0.474839643716E+03   -0.62091E+00   -0.62209E+00   688   0.825E+00 0.521E-02
CGA:   4    -0.474986565086E+03   -0.14692E+00   -0.14730E+00   688   0.183E+00-0.323E-03
CGA:   5    -0.475025519374E+03   -0.38954E-01   -0.38939E-01   688   0.386E-01-0.219E-04
CGA:   6    -0.475035828625E+03   -0.10309E-01   -0.10309E-01   688   0.120E-01-0.891E-05
CGA:   7    -0.475039306985E+03   -0.34784E-02   -0.34786E-02   688   0.592E-02-0.872E-05
CGA:   8    -0.475041168045E+03   -0.18611E-02   -0.18602E-02   688   0.270E-02 0.210E-04
CGA:   9    -0.475042079905E+03   -0.91186E-03   -0.91188E-03   688   0.111E-02-0.669E-06
CGA:  10    -0.475042413993E+03   -0.33409E-03   -0.33408E-03   688   0.446E-03 0.379E-06
CGA:  11    -0.475042535700E+03   -0.12171E-03   -0.12173E-03   688   0.200E-03 0.349E-05
CGA:  12    -0.475042596781E+03   -0.61082E-04   -0.61078E-04   688   0.896E-04 0.160E-06
  17 F= -.47863432E+03 E0= -.47861082E+03  d E =-.773444E+00  mag=     1.6206
       N       E                     dE             d eps       ncg     rms          ort
SDA:   1    -0.469862502953E+03    0.51800E+01    0.00000E+00   688   0.146E+02 0.000E+00
CGA:   2    -0.474047886145E+03   -0.41854E+01   -0.41854E+01   688   0.452E+01-0.591E-02
CGA:   3    -0.475059790295E+03   -0.10119E+01   -0.10122E+01   688   0.136E+01 0.141E-02
CGA:   4    -0.475298787022E+03   -0.23900E+00   -0.23997E+00   688   0.299E+00-0.928E-03
CGA:   5    -0.475363536946E+03   -0.64750E-01   -0.64721E-01   688   0.631E-01-0.410E-04
CGA:   6    -0.475380781833E+03   -0.17245E-01   -0.17245E-01   688   0.203E-01 0.717E-05
CGA:   7    -0.475386692777E+03   -0.59109E-02   -0.59109E-02   688   0.103E-01-0.165E-06
CGA:   8    -0.475389932998E+03   -0.32402E-02   -0.32390E-02   688   0.466E-02 0.286E-04
CGA:   9    -0.475391539647E+03   -0.16066E-02   -0.16068E-02   688   0.190E-02-0.126E-05
CGA:  10    -0.475392122065E+03   -0.58242E-03   -0.58240E-03   688   0.762E-03 0.841E-06
CGA:  11    -0.475392346810E+03   -0.22475E-03   -0.22470E-03   688   0.381E-03 0.337E-05
CGA:  12    -0.475392465547E+03   -0.11874E-03   -0.11880E-03   688   0.217E-03-0.182E-05
CGA:  13    -0.475392549444E+03   -0.83897E-04   -0.84026E-04   688   0.129E-03-0.126E-05
  18 F= -.47899004E+03 E0= -.47896411E+03  d E =-.355720E+00  mag=     1.4730
       N       E                     dE             d eps       ncg     rms          ort
SDA:   1    -0.425729639073E+03    0.49663E+02    0.00000E+00   688   0.137E+03 0.000E+00
CGA:   2    -0.461603701932E+03   -0.35874E+02   -0.35893E+02   688   0.516E+02 0.225E+00
CGA:   3    -0.472368834077E+03   -0.10765E+02   -0.10761E+02   688   0.130E+02 0.134E+00
CGA:   4    -0.475042910119E+03   -0.26741E+01   -0.26867E+01   688   0.246E+01 0.230E-01
CGA:   5    -0.475619410855E+03   -0.57650E+00   -0.57619E+00   688   0.598E+00-0.102E-02
CGA:   6    -0.475776184014E+03   -0.15677E+00   -0.15680E+00   688   0.186E+00 0.478E-03
CGA:   7    -0.475833387555E+03   -0.57204E-01   -0.57203E-01   688   0.872E-01 0.867E-05
CGA:   8    -0.475863050244E+03   -0.29663E-01   -0.29659E-01   688   0.404E-01 0.632E-04
CGA:   9    -0.475876451763E+03   -0.13402E-01   -0.13406E-01   688   0.190E-01-0.498E-04
CGA:  10    -0.475881483366E+03   -0.50316E-02   -0.50305E-02   688   0.864E-02-0.129E-04
CGA:  11    -0.475883994059E+03   -0.25107E-02   -0.25109E-02   688   0.428E-02-0.208E-04
CGA:  12    -0.475885640200E+03   -0.16461E-02   -0.16477E-02   688   0.306E-02-0.129E-04
CGA:  13    -0.475887095526E+03   -0.14553E-02   -0.14652E-02   688   0.319E-02-0.486E-04
CGA:  14    -0.475888461329E+03   -0.13658E-02   -0.13658E-02   688   0.378E-02-0.160E-05
CGA:  15    -0.475890007658E+03   -0.15463E-02   -0.15783E-02   688   0.482E-02-0.229E-03
CGA:  16    -0.475892045777E+03   -0.20381E-02   -0.21542E-02   688   0.610E-02-0.646E-03
CGA:  17    -0.475893953367E+03   -0.19076E-02   -0.19711E-02   688   0.537E-02-0.788E-03
CGA:  18    -0.475895317354E+03   -0.13640E-02   -0.13557E-02   688   0.413E-02-0.958E-04
CGA:  19    -0.475896384064E+03   -0.10667E-02   -0.10769E-02   688   0.305E-02 0.596E-04
CGA:  20    -0.475897264673E+03   -0.88061E-03   -0.88190E-03   688   0.242E-02 0.353E-04
CGA:  21    -0.475897977493E+03   -0.71282E-03   -0.71297E-03   688   0.180E-02 0.221E-04
CGA:  22    -0.475898497381E+03   -0.51989E-03   -0.52049E-03   688   0.148E-02 0.262E-04
CGA:  23    -0.475898917938E+03   -0.42056E-03   -0.42184E-03   688   0.109E-02 0.293E-04
CGA:  24    -0.475899250415E+03   -0.33248E-03   -0.33290E-03   688   0.901E-03 0.226E-04
CGA:  25    -0.475899520914E+03   -0.27050E-03   -0.27059E-03   688   0.702E-03 0.807E-05
CGA:  26    -0.475899738235E+03   -0.21732E-03   -0.21732E-03   688   0.611E-03 0.287E-05
CGA:  27    -0.475899914162E+03   -0.17593E-03   -0.17598E-03   688   0.514E-03 0.154E-05
CGA:  28    -0.475900068597E+03   -0.15444E-03   -0.15443E-03   688   0.472E-03-0.898E-06
CGA:  29    -0.475900198533E+03   -0.12994E-03   -0.12990E-03   688   0.380E-03-0.159E-05
CGA:  30    -0.475900306625E+03   -0.10809E-03   -0.10806E-03   688   0.318E-03-0.178E-05
CGA:  31    -0.475900389595E+03   -0.82970E-04   -0.82875E-04   688   0.236E-03-0.209E-05
  19 F= -.47951357E+03 E0= -.47950108E+03  d E =-.879253E+00  mag=     0.1540
       N       E                     dE             d eps       ncg     rms          ort
SDA:   1    -0.465092106532E+03    0.10808E+02    0.00000E+00   688   0.294E+02 0.000E+00
CGA:   2    -0.473692163508E+03   -0.86001E+01   -0.86005E+01   688   0.895E+01 0.233E-01
CGA:   3    -0.475743822533E+03   -0.20517E+01   -0.20517E+01   688   0.262E+01 0.164E-02
CGA:   4    -0.476205369534E+03   -0.46155E+00   -0.46422E+00   688   0.592E+00-0.363E-02
CGA:   5    -0.476330742206E+03   -0.12537E+00   -0.12524E+00   688   0.127E+00-0.411E-04
CGA:   6    -0.476365546731E+03   -0.34805E-01   -0.34805E-01   688   0.396E-01 0.211E-04
CGA:   7    -0.476377504933E+03   -0.11958E-01   -0.11958E-01   688   0.197E-01 0.329E-05
CGA:   8    -0.476383803183E+03   -0.62983E-02   -0.62978E-02   688   0.892E-02 0.221E-04
CGA:   9    -0.476386798040E+03   -0.29949E-02   -0.29951E-02   688   0.339E-02-0.562E-05
CGA:  10    -0.476387834312E+03   -0.10363E-02   -0.10362E-02   688   0.116E-02 0.198E-05
CGA:  11    -0.476388201191E+03   -0.36688E-03   -0.36681E-03   688   0.525E-03 0.315E-05
CGA:  12    -0.476388358684E+03   -0.15749E-03   -0.15750E-03   688   0.309E-03-0.143E-05
CGA:  13    -0.476388451125E+03   -0.92440E-04   -0.92446E-04   688   0.144E-03-0.117E-05
  20 F= -.48000876E+03 E0= -.47999823E+03  d E =-.495188E+00  mag=     0.1151
       N       E                     dE             d eps       ncg     rms          ort
SDA:   1    -0.463278415451E+03    0.13110E+02    0.00000E+00   688   0.346E+02 0.000E+00
CGA:   2    -0.473368049075E+03   -0.10090E+02   -0.10090E+02   688   0.107E+02 0.325E-01
CGA:   3    -0.475801411855E+03   -0.24334E+01   -0.24329E+01   688   0.313E+01 0.111E-02
CGA:   4    -0.476353204477E+03   -0.55179E+00   -0.55551E+00   688   0.703E+00-0.437E-02
CGA:   5    -0.476503313977E+03   -0.15011E+00   -0.14995E+00   688   0.150E+00-0.132E-03
CGA:   6    -0.476544429800E+03   -0.41116E-01   -0.41116E-01   688   0.470E-01 0.280E-04
CGA:   7    -0.476558527205E+03   -0.14097E-01   -0.14097E-01   688   0.233E-01 0.111E-04
CGA:   8    -0.476565992853E+03   -0.74656E-02   -0.74653E-02   688   0.104E-01 0.201E-04
CGA:   9    -0.476569511185E+03   -0.35183E-02   -0.35186E-02   688   0.395E-02-0.585E-05
CGA:  10    -0.476570716928E+03   -0.12057E-02   -0.12057E-02   688   0.135E-02 0.982E-06
CGA:  11    -0.476571136652E+03   -0.41972E-03   -0.41966E-03   688   0.623E-03 0.323E-05
CGA:  12    -0.476571314875E+03   -0.17822E-03   -0.17821E-03   688   0.346E-03-0.149E-05
CGA:  13    -0.476571421021E+03   -0.10615E-03   -0.10618E-03   688   0.153E-03-0.192E-05
CGA:  14    -0.476571476192E+03   -0.55171E-04   -0.55230E-04   688   0.591E-04-0.809E-06
  21 F= -.48019927E+03 E0= -.48018935E+03  d E =-.685692E+00  mag=     0.1006
       N       E                     dE             d eps       ncg     rms          ort
SDA:   1    -0.464392367107E+03    0.12179E+02    0.00000E+00   688   0.327E+02 0.000E+00
CGA:   2    -0.474046370583E+03   -0.96540E+01   -0.96542E+01   688   0.938E+01 0.320E-01
CGA:   3    -0.476348894644E+03   -0.23025E+01   -0.23026E+01   688   0.237E+01 0.166E-02
CGA:   4    -0.476801411286E+03   -0.45252E+00   -0.45394E+00   688   0.575E+00-0.215E-03
CGA:   5    -0.476918011977E+03   -0.11660E+00   -0.11639E+00   688   0.136E+00 0.256E-04
CGA:   6    -0.476954294542E+03   -0.36283E-01   -0.36285E-01   688   0.405E-01 0.518E-04
CGA:   7    -0.476967696931E+03   -0.13402E-01   -0.13402E-01   688   0.196E-01-0.763E-06
CGA:   8    -0.476974224877E+03   -0.65279E-02   -0.65280E-02   688   0.907E-02 0.530E-05
CGA:   9    -0.476977160546E+03   -0.29357E-02   -0.29358E-02   688   0.317E-02-0.757E-05
CGA:  10    -0.476978120941E+03   -0.96040E-03   -0.96037E-03   688   0.111E-02 0.261E-05
CGA:  11    -0.476978454048E+03   -0.33311E-03   -0.33312E-03   688   0.503E-03-0.140E-05
CGA:  12    -0.476978605155E+03   -0.15111E-03   -0.15112E-03   688   0.269E-03-0.217E-05
CGA:  13    -0.476978686479E+03   -0.81324E-04   -0.81344E-04   688   0.132E-03-0.167E-05
  22 F= -.48061385E+03 E0= -.48060453E+03  d E =-.414585E+00  mag=     0.0894
       N       E                     dE             d eps       ncg     rms          ort
SDA:   1    -0.466979167949E+03    0.99994E+01    0.00000E+00   688   0.263E+02 0.000E+00
CGA:   2    -0.474732793359E+03   -0.77536E+01   -0.77536E+01   688   0.752E+01 0.246E-01
CGA:   3    -0.476587531703E+03   -0.18547E+01   -0.18547E+01   688   0.187E+01 0.525E-03
CGA:   4    -0.476948364339E+03   -0.36083E+00   -0.36171E+00   688   0.453E+00 0.119E-03
CGA:   5    -0.477039574353E+03   -0.91210E-01   -0.91052E-01   688   0.110E+00 0.344E-05
CGA:   6    -0.477068437312E+03   -0.28863E-01   -0.28865E-01   688   0.324E-01 0.282E-04
CGA:   7    -0.477079237974E+03   -0.10801E-01   -0.10800E-01   688   0.155E-01 0.231E-05
CGA:   8    -0.477084466467E+03   -0.52285E-02   -0.52287E-02   688   0.727E-02 0.125E-05
CGA:   9    -0.477086779024E+03   -0.23126E-02   -0.23127E-02   688   0.267E-02-0.757E-05
CGA:  10    -0.477087531387E+03   -0.75236E-03   -0.75237E-03   688   0.106E-02 0.902E-06
CGA:  11    -0.477087804887E+03   -0.27350E-03   -0.27349E-03   688   0.459E-03-0.182E-06
CGA:  12    -0.477087946139E+03   -0.14125E-03   -0.14131E-03   688   0.212E-03-0.281E-05
CGA:  13    -0.477088019713E+03   -0.73574E-04   -0.73667E-04   688   0.105E-03-0.150E-05
  23 F= -.48072947E+03 E0= -.48071998E+03  d E =-.530208E+00  mag=     0.0869
       N       E                     dE             d eps       ncg     rms          ort
SDA:   1    -0.471179595616E+03    0.59084E+01    0.00000E+00   688   0.166E+02 0.000E+00
CGA:   2    -0.476041129621E+03   -0.48615E+01   -0.48615E+01   688   0.459E+01 0.222E-01
CGA:   3    -0.477217138312E+03   -0.11760E+01   -0.11759E+01   688   0.102E+01-0.125E-02
CGA:   4    -0.477438390967E+03   -0.22125E+00   -0.22132E+00   688   0.206E+00 0.240E-03
CGA:   5    -0.477486005639E+03   -0.47615E-01   -0.47630E-01   688   0.580E-01 0.841E-04
CGA:   6    -0.477500217472E+03   -0.14212E-01   -0.14211E-01   688   0.208E-01-0.143E-04
CGA:   7    -0.477506700932E+03   -0.64835E-02   -0.64839E-02   688   0.100E-01-0.101E-04
CGA:   8    -0.477510123589E+03   -0.34227E-02   -0.34228E-02   688   0.456E-02-0.449E-05
CGA:   9    -0.477511554503E+03   -0.14309E-02   -0.14311E-02   688   0.183E-02-0.405E-05
CGA:  10    -0.477512046277E+03   -0.49177E-03   -0.49178E-03   688   0.698E-03-0.474E-06
CGA:  11    -0.477512250606E+03   -0.20433E-03   -0.20433E-03   688   0.274E-03-0.225E-06
CGA:  12    -0.477512345964E+03   -0.95358E-04   -0.95356E-04   688   0.137E-03-0.345E-07
  24 F= -.48115606E+03 E0= -.48114677E+03  d E =-.426591E+00  mag=     0.1010
       N       E                     dE             d eps       ncg     rms          ort
SDA:   1    -0.437702508344E+03    0.39810E+02    0.00000E+00   688   0.106E+03 0.000E+00
CGA:   2    -0.468615335824E+03   -0.30913E+02   -0.30913E+02   688   0.292E+02 0.249E+00
CGA:   3    -0.476005731630E+03   -0.73904E+01   -0.73962E+01   688   0.672E+01 0.681E-01
CGA:   4    -0.477434799071E+03   -0.14291E+01   -0.14304E+01   688   0.151E+01 0.553E-02
CGA:   5    -0.477760007249E+03   -0.32521E+00   -0.32455E+00   688   0.432E+00-0.121E-02
CGA:   6    -0.477865055165E+03   -0.10505E+00   -0.10510E+00   688   0.137E+00 0.419E-03
CGA:   7    -0.477910641420E+03   -0.45586E-01   -0.45603E-01   688   0.637E-01-0.216E-03
CGA:   8    -0.477932965645E+03   -0.22324E-01   -0.22321E-01   688   0.283E-01 0.277E-04
CGA:   9    -0.477941892591E+03   -0.89269E-02   -0.89305E-02   688   0.105E-01-0.761E-04
CGA:  10    -0.477944805116E+03   -0.29125E-02   -0.29128E-02   688   0.416E-02 0.117E-04
CGA:  11    -0.477945905975E+03   -0.11009E-02   -0.11007E-02   688   0.183E-02-0.296E-05
CGA:  12    -0.477946484220E+03   -0.57825E-03   -0.57822E-03   688   0.845E-03-0.193E-05
CGA:  13    -0.477946797679E+03   -0.31346E-03   -0.31372E-03   688   0.462E-03-0.332E-05
CGA:  14    -0.477946948176E+03   -0.15050E-03   -0.15049E-03   688   0.245E-03-0.522E-06
CGA:  15    -0.477947032255E+03   -0.84079E-04   -0.84192E-04   688   0.127E-03-0.209E-05
  25 F= -.48159422E+03 E0= -.48158361E+03  d E =-.864746E+00  mag=     0.1570
       N       E                     dE             d eps       ncg     rms          ort
SDA:   1    -0.467562843638E+03    0.10384E+02    0.00000E+00   688   0.283E+02 0.000E+00
CGA:   2    -0.475781739805E+03   -0.82189E+01   -0.82204E+01   688   0.799E+01 0.574E-01
CGA:   3    -0.477797052794E+03   -0.20153E+01   -0.20130E+01   688   0.184E+01-0.106E-01
CGA:   4    -0.478187440971E+03   -0.39039E+00   -0.39006E+00   688   0.379E+00-0.638E-04
CGA:   5    -0.478273258823E+03   -0.85818E-01   -0.85762E-01   688   0.103E+00-0.921E-04
CGA:   6    -0.478298434399E+03   -0.25176E-01   -0.25172E-01   688   0.357E-01-0.349E-04
CGA:   7    -0.478309154314E+03   -0.10720E-01   -0.10722E-01   688   0.174E-01-0.760E-04
CGA:   8    -0.478314821694E+03   -0.56674E-02   -0.56679E-02   688   0.811E-02-0.156E-04
CGA:   9    -0.478317348660E+03   -0.25270E-02   -0.25283E-02   688   0.365E-02-0.372E-04
CGA:  10    -0.478318278240E+03   -0.92958E-03   -0.92998E-03   688   0.163E-02 0.320E-05
CGA:  11    -0.478318766239E+03   -0.48800E-03   -0.48813E-03   688   0.810E-03-0.908E-05
CGA:  12    -0.478319103146E+03   -0.33691E-03   -0.33654E-03   688   0.644E-03 0.824E-06
CGA:  13    -0.478319389829E+03   -0.28668E-03   -0.28970E-03   688   0.712E-03-0.173E-04
CGA:  14    -0.478319660900E+03   -0.27107E-03   -0.26928E-03   688   0.615E-03 0.136E-04
CGA:  15    -0.478319937699E+03   -0.27680E-03   -0.28354E-03   688   0.665E-03-0.398E-04
CGA:  16    -0.478320183183E+03   -0.24548E-03   -0.24442E-03   688   0.550E-03 0.783E-05
CGA:  17    -0.478320432113E+03   -0.24893E-03   -0.25312E-03   688   0.457E-03-0.243E-04
CGA:  18    -0.478320609409E+03   -0.17730E-03   -0.17720E-03   688   0.346E-03 0.187E-05
CGA:  19    -0.478320726206E+03   -0.11680E-03   -0.11688E-03   688   0.251E-03-0.719E-05
CGA:  20    -0.478320807363E+03   -0.81157E-04   -0.81157E-04   688   0.159E-03-0.426E-08
  26 F= -.48196845E+03 E0= -.48195004E+03  d E =-.374227E+00  mag=     0.4513
       N       E                     dE             d eps       ncg     rms          ort
SDA:   1    -0.472711419794E+03    0.56093E+01    0.00000E+00   688   0.149E+02 0.000E+00
CGA:   2    -0.477027305448E+03   -0.43159E+01   -0.43192E+01   688   0.434E+01 0.233E-01
CGA:   3    -0.478095779581E+03   -0.10685E+01   -0.10623E+01   688   0.105E+01-0.587E-02
CGA:   4    -0.478311687973E+03   -0.21591E+00   -0.21546E+00   688   0.226E+00 0.561E-03
CGA:   5    -0.478360364965E+03   -0.48677E-01   -0.48502E-01   688   0.636E-01 0.566E-04
CGA:   6    -0.478375239839E+03   -0.14875E-01   -0.14852E-01   688   0.215E-01-0.439E-04
CGA:   7    -0.478381470817E+03   -0.62310E-02   -0.62289E-02   688   0.102E-01-0.327E-04
CGA:   8    -0.478384878120E+03   -0.34073E-02   -0.34081E-02   688   0.525E-02-0.288E-04
CGA:   9    -0.478386418628E+03   -0.15405E-02   -0.15400E-02   688   0.284E-02-0.136E-04
CGA:  10    -0.478387112736E+03   -0.69411E-03   -0.69401E-03   688   0.115E-02-0.264E-05
CGA:  11    -0.478387493535E+03   -0.38080E-03   -0.38095E-03   688   0.607E-03-0.599E-05
CGA:  12    -0.478387733207E+03   -0.23967E-03   -0.23985E-03   688   0.551E-03-0.297E-05
CGA:  13    -0.478387936216E+03   -0.20301E-03   -0.20342E-03   688   0.542E-03-0.627E-05
CGA:  14    -0.478388161327E+03   -0.22511E-03   -0.22492E-03   688   0.505E-03-0.161E-06
CGA:  15    -0.478388388076E+03   -0.22675E-03   -0.22826E-03   688   0.565E-03-0.102E-04
CGA:  16    -0.478388625895E+03   -0.23782E-03   -0.23806E-03   688   0.565E-03-0.381E-05
CGA:  17    -0.478388895338E+03   -0.26944E-03   -0.27010E-03   688   0.604E-03-0.402E-05
CGA:  18    -0.478389107058E+03   -0.21172E-03   -0.21198E-03   688   0.534E-03-0.131E-04
CGA:  19    -0.478389299884E+03   -0.19283E-03   -0.19271E-03   688   0.272E-03 0.137E-05
CGA:  20    -0.478389430027E+03   -0.13014E-03   -0.13086E-03   688   0.165E-03-0.423E-05
CGA:  21    -0.478389496898E+03   -0.66871E-04   -0.66825E-04   688   0.124E-03 0.620E-06
  27 F= -.48203716E+03 E0= -.48201715E+03  d E =-.442943E+00  mag=     0.9430
       N       E                     dE             d eps       ncg     rms          ort
SDA:   1    -0.469894033705E+03    0.84954E+01    0.00000E+00   688   0.232E+02 0.000E+00
CGA:   2    -0.476649137506E+03   -0.67551E+01   -0.67657E+01   688   0.676E+01 0.512E-01
CGA:   3    -0.478293655253E+03   -0.16445E+01   -0.16216E+01   688   0.172E+01 0.518E-02
CGA:   4    -0.478635787536E+03   -0.34213E+00   -0.34115E+00   688   0.387E+00 0.319E-02
CGA:   5    -0.478717605847E+03   -0.81818E-01   -0.81640E-01   688   0.106E+00 0.273E-03
CGA:   6    -0.478743726709E+03   -0.26121E-01   -0.26045E-01   688   0.350E-01-0.153E-03
CGA:   7    -0.478754211886E+03   -0.10485E-01   -0.10487E-01   688   0.171E-01 0.447E-04
CGA:   8    -0.478759711180E+03   -0.54993E-02   -0.54989E-02   688   0.884E-02-0.931E-04
CGA:   9    -0.478762149987E+03   -0.24388E-02   -0.24407E-02   688   0.432E-02 0.144E-04
CGA:  10    -0.478763226053E+03   -0.10761E-02   -0.10750E-02   688   0.161E-02-0.418E-05
CGA:  11    -0.478763690741E+03   -0.46469E-03   -0.46456E-03   688   0.725E-03-0.303E-05
CGA:  12    -0.478763918894E+03   -0.22815E-03   -0.22815E-03   688   0.402E-03-0.214E-05
CGA:  13    -0.478764059321E+03   -0.14043E-03   -0.14051E-03   688   0.262E-03-0.244E-05
CGA:  14    -0.478764141892E+03   -0.82571E-04   -0.82567E-04   688   0.176E-03-0.251E-05
  28 F= -.48241207E+03 E0= -.48239015E+03  d E =-.374904E+00  mag=     1.0670
       N       E                     dE             d eps       ncg     rms          ort
SDA:   1    -0.462044474714E+03    0.16720E+02    0.00000E+00   688   0.443E+02 0.000E+00
CGA:   2    -0.474902686722E+03   -0.12858E+02   -0.12872E+02   688   0.129E+02 0.192E+00
CGA:   3    -0.478017518147E+03   -0.31148E+01   -0.30542E+01   688   0.352E+01-0.601E-01
CGA:   4    -0.478679353342E+03   -0.66184E+00   -0.65725E+00   688   0.877E+00 0.110E-01
CGA:   5    -0.478847163236E+03   -0.16781E+00   -0.17010E+00   688   0.252E+00-0.489E-03
CGA:   6    -0.478901710023E+03   -0.54547E-01   -0.52243E-01   688   0.101E+00-0.640E-03
CGA:   7    -0.478924101508E+03   -0.22391E-01   -0.22716E-01   688   0.446E-01 0.960E-03
CGA:   8    -0.478937946020E+03   -0.13845E-01   -0.13873E-01   688   0.269E-01-0.101E-02
CGA:   9    -0.478944623948E+03   -0.66779E-02   -0.67077E-02   688   0.165E-01 0.272E-03
CGA:  10    -0.478948356078E+03   -0.37321E-02   -0.36889E-02   688   0.826E-02-0.126E-03
CGA:  11    -0.478950631795E+03   -0.22757E-02   -0.22776E-02   688   0.400E-02 0.823E-04
CGA:  12    -0.478951889713E+03   -0.12579E-02   -0.12615E-02   688   0.395E-02-0.898E-04
CGA:  13    -0.478952858615E+03   -0.96890E-03   -0.97166E-03   688   0.254E-02 0.209E-04
CGA:  14    -0.478953799538E+03   -0.94092E-03   -0.94943E-03   688   0.256E-02-0.772E-04
CGA:  15    -0.478954410691E+03   -0.61115E-03   -0.61048E-03   688   0.165E-02-0.859E-05
CGA:  16    -0.478954915971E+03   -0.50528E-03   -0.50558E-03   688   0.125E-02-0.127E-04
CGA:  17    -0.478955208205E+03   -0.29223E-03   -0.29122E-03   688   0.872E-03-0.829E-05
CGA:  18    -0.478955461056E+03   -0.25285E-03   -0.25287E-03   688   0.572E-03-0.412E-05
CGA:  19    -0.478955625228E+03   -0.16417E-03   -0.16418E-03   688   0.537E-03-0.393E-05
CGA:  20    -0.478955747123E+03   -0.12190E-03   -0.12233E-03   688   0.280E-03 0.220E-05
CGA:  21    -0.478955837346E+03   -0.90223E-04   -0.90194E-04   688   0.209E-03 0.135E-05
  29 F= -.48260356E+03 E0= -.48258185E+03  d E =-.566394E+00  mag=     1.7454
       N       E                     dE             d eps       ncg     rms          ort
SDA:   1    -0.476148940757E+03    0.28068E+01    0.00000E+00   688   0.774E+01 0.000E+00
CGA:   2    -0.478463907555E+03   -0.23150E+01   -0.23146E+01   688   0.235E+01 0.125E-01
CGA:   3    -0.478990636886E+03   -0.52673E+00   -0.52500E+00   688   0.865E+00-0.703E-02
CGA:   4    -0.479114023807E+03   -0.12339E+00   -0.12082E+00   688   0.246E+00 0.671E-02
CGA:   5    -0.479155761170E+03   -0.41737E-01   -0.42350E-01   688   0.697E-01-0.696E-03
CGA:   6    -0.479169795045E+03   -0.14034E-01   -0.13989E-01   688   0.241E-01-0.129E-03
CGA:   7    -0.479175740660E+03   -0.59456E-02   -0.59473E-02   688   0.115E-01 0.389E-04
CGA:   8    -0.479178092694E+03   -0.23520E-02   -0.23445E-02   688   0.903E-02-0.283E-04
CGA:   9    -0.479180058135E+03   -0.19654E-02   -0.19653E-02   688   0.304E-02 0.215E-05
CGA:  10    -0.479181051574E+03   -0.99344E-03   -0.99422E-03   688   0.180E-02-0.988E-05
CGA:  11    -0.479181335727E+03   -0.28415E-03   -0.28462E-03   688   0.904E-03-0.254E-06
CGA:  12    -0.479181556216E+03   -0.22049E-03   -0.22044E-03   688   0.301E-03-0.258E-05
CGA:  13    -0.479181644129E+03   -0.87913E-04   -0.87949E-04   688   0.254E-03-0.106E-05
  30 F= -.48283106E+03 E0= -.48281044E+03  d E =-.227505E+00  mag=     1.8080
       N       E                     dE             d eps       ncg     rms          ort
SDA:   1    -0.452146302445E+03    0.27035E+02    0.00000E+00   688   0.699E+02 0.000E+00
CGA:   2    -0.472876602166E+03   -0.20730E+02   -0.20713E+02   688   0.217E+02 0.258E+00
CGA:   3    -0.477630702889E+03   -0.47541E+01   -0.47455E+01   688   0.778E+01-0.694E-01
CGA:   4    -0.478802910805E+03   -0.11722E+01   -0.11308E+01   688   0.219E+01 0.710E-01
CGA:   5    -0.479165836913E+03   -0.36293E+00   -0.36791E+00   688   0.701E+00-0.102E-01
CGA:   6    -0.479297724346E+03   -0.13189E+00   -0.13164E+00   688   0.226E+00-0.153E-02
CGA:   7    -0.479352192750E+03   -0.54468E-01   -0.54469E-01   688   0.123E+00 0.555E-03
CGA:   8    -0.479374097346E+03   -0.21905E-01   -0.21896E-01   688   0.730E-01-0.564E-04
CGA:   9    -0.479393791506E+03   -0.19694E-01   -0.19692E-01   688   0.300E-01 0.596E-04
CGA:  10    -0.479401350559E+03   -0.75591E-02   -0.75574E-02   688   0.226E-01 0.859E-04
CGA:  11    -0.479405208567E+03   -0.38580E-02   -0.38607E-02   688   0.733E-02 0.774E-05
CGA:  12    -0.479407129256E+03   -0.19207E-02   -0.19210E-02   688   0.383E-02-0.128E-04
CGA:  13    -0.479407889208E+03   -0.75995E-03   -0.75989E-03   688   0.215E-02-0.139E-05
CGA:  14    -0.479408392430E+03   -0.50322E-03   -0.50322E-03   688   0.115E-02-0.265E-05
CGA:  15    -0.479408660978E+03   -0.26855E-03   -0.26854E-03   688   0.660E-03-0.207E-05
CGA:  16    -0.479408820649E+03   -0.15967E-03   -0.15971E-03   688   0.389E-03-0.634E-05
CGA:  17    -0.479408893522E+03   -0.72873E-04   -0.72789E-04   688   0.174E-03-0.170E-05
  31 F= -.48306286E+03 E0= -.48304698E+03  d E =-.459299E+00  mag=     1.9392
       N       E                     dE             d eps       ncg     rms          ort
SDA:   1    -0.475167312481E+03    0.42415E+01    0.00000E+00   688   0.114E+02 0.000E+00
CGA:   2    -0.478543315240E+03   -0.33760E+01   -0.33758E+01   688   0.349E+01 0.282E-02
CGA:   3    -0.479335643682E+03   -0.79233E+00   -0.79251E+00   688   0.119E+01 0.704E-02
CGA:   4    -0.479508356512E+03   -0.17271E+00   -0.17231E+00   688   0.374E+00 0.107E-02
CGA:   5    -0.479568477209E+03   -0.60121E-01   -0.60054E-01   688   0.983E-01-0.147E-03
CGA:   6    -0.479588729677E+03   -0.20252E-01   -0.20254E-01   688   0.333E-01 0.364E-04
CGA:   7    -0.479596975561E+03   -0.82459E-02   -0.82463E-02   688   0.159E-01-0.220E-04
CGA:   8    -0.479600150166E+03   -0.31746E-02   -0.31750E-02   688   0.119E-01 0.188E-05
CGA:   9    -0.479602756801E+03   -0.26066E-02   -0.26067E-02   688   0.405E-02 0.101E-04
CGA:  10    -0.479604038082E+03   -0.12813E-02   -0.12813E-02   688   0.234E-02-0.140E-05
CGA:  11    -0.479604417888E+03   -0.37981E-03   -0.37968E-03   688   0.113E-02-0.782E-06
CGA:  12    -0.479604689408E+03   -0.27152E-03   -0.27155E-03   688   0.394E-03-0.282E-05
CGA:  13    -0.479604796334E+03   -0.10693E-03   -0.10696E-03   688   0.302E-03-0.829E-06
CGA:  14    -0.479604854253E+03   -0.57919E-04   -0.57859E-04   688   0.145E-03-0.152E-05
  32 F= -.48326151E+03 E0= -.48324680E+03  d E =-.198655E+00  mag=     1.9581
       N       E                     dE             d eps       ncg     rms          ort
SDA:   1    -0.448439484856E+03    0.31165E+02    0.00000E+00   688   0.815E+02 0.000E+00
CGA:   2    -0.472041082372E+03   -0.23602E+02   -0.23604E+02   688   0.269E+02-0.114E-01
CGA:   3    -0.477622629842E+03   -0.55815E+01   -0.55981E+01   688   0.964E+01 0.257E+00
CGA:   4    -0.479097424169E+03   -0.14748E+01   -0.14436E+01   688   0.264E+01 0.791E-01
CGA:   5    -0.479534333826E+03   -0.43691E+00   -0.43700E+00   688   0.814E+00 0.126E-03
CGA:   6    -0.479692650705E+03   -0.15832E+00   -0.15817E+00   688   0.246E+00-0.145E-02
CGA:   7    -0.479753935140E+03   -0.61284E-01   -0.61274E-01   688   0.133E+00 0.194E-03
CGA:   8    -0.479777461947E+03   -0.23527E-01   -0.23541E-01   688   0.762E-01 0.750E-04
CGA:   9    -0.479798057556E+03   -0.20596E-01   -0.20588E-01   688   0.309E-01 0.111E-03
CGA:  10    -0.479805994696E+03   -0.79371E-02   -0.79379E-02   688   0.221E-01-0.534E-05
CGA:  11    -0.479809742349E+03   -0.37477E-02   -0.37454E-02   688   0.752E-02-0.457E-05
CGA:  12    -0.479811686747E+03   -0.19444E-02   -0.19448E-02   688   0.354E-02-0.113E-04
CGA:  13    -0.479812424690E+03   -0.73794E-03   -0.73800E-03   688   0.215E-02-0.656E-07
CGA:  14    -0.479812913791E+03   -0.48910E-03   -0.48911E-03   688   0.111E-02-0.132E-05
CGA:  15    -0.479813175482E+03   -0.26169E-03   -0.26172E-03   688   0.644E-03-0.242E-05
CGA:  16    -0.479813337466E+03   -0.16198E-03   -0.16211E-03   688   0.373E-03-0.487E-05
CGA:  17    -0.479813406223E+03   -0.68757E-04   -0.68694E-04   688   0.173E-03-0.168E-05
  33 F= -.48347702E+03 E0= -.48346441E+03  d E =-.414162E+00  mag=     1.9833
       N       E                     dE             d eps       ncg     rms          ort
SDA:   1    -0.471418744055E+03    0.83946E+01    0.00000E+00   688   0.221E+02 0.000E+00
CGA:   2    -0.477971193794E+03   -0.65524E+01   -0.65535E+01   688   0.710E+01-0.830E-02
CGA:   3    -0.479593363725E+03   -0.16222E+01   -0.16222E+01   688   0.200E+01 0.696E-02
CGA:   4    -0.479955206880E+03   -0.36184E+00   -0.36239E+00   688   0.461E+00 0.261E-02
CGA:   5    -0.480052524557E+03   -0.97318E-01   -0.97295E-01   688   0.130E+00-0.516E-03
CGA:   6    -0.480078691768E+03   -0.26167E-01   -0.26162E-01   688   0.799E-01-0.785E-04
CGA:   7    -0.480091326162E+03   -0.12634E-01   -0.12628E-01   688   0.290E-01-0.271E-04
CGA:   8    -0.480100057751E+03   -0.87316E-02   -0.87333E-02   688   0.148E-01-0.146E-04
CGA:   9    -0.480103871585E+03   -0.38138E-02   -0.38159E-02   688   0.854E-02-0.394E-04
CGA:  10    -0.480105485610E+03   -0.16140E-02   -0.16129E-02   688   0.464E-02-0.123E-04
CGA:  11    -0.480106322277E+03   -0.83667E-03   -0.83624E-03   688   0.165E-02-0.620E-05
CGA:  12    -0.480106757895E+03   -0.43562E-03   -0.43558E-03   688   0.668E-03-0.847E-07
CGA:  13    -0.480106927647E+03   -0.16975E-03   -0.16981E-03   688   0.596E-03-0.221E-05
CGA:  14    -0.480107028689E+03   -0.10104E-03   -0.10089E-03   688   0.218E-03-0.232E-05
CGA:  15    -0.480107108167E+03   -0.79478E-04   -0.79870E-04   688   0.116E-03-0.271E-05
  34 F= -.48377473E+03 E0= -.48376299E+03  d E =-.297710E+00  mag=     1.9944
       N       E                     dE             d eps       ncg     rms          ort
SDA:   1    -0.471944500321E+03    0.81625E+01    0.00000E+00   688   0.209E+02 0.000E+00
CGA:   2    -0.478173095848E+03   -0.62286E+01   -0.62297E+01   688   0.670E+01-0.966E-02
CGA:   3    -0.479709783571E+03   -0.15367E+01   -0.15367E+01   688   0.191E+01 0.104E-02
CGA:   4    -0.480045829356E+03   -0.33605E+00   -0.33692E+00   688   0.490E+00 0.283E-02
CGA:   5    -0.480132415993E+03   -0.86587E-01   -0.86540E-01   688   0.200E+00-0.160E-03
CGA:   6    -0.480161297101E+03   -0.28881E-01   -0.28875E-01   688   0.739E-01-0.244E-04
CGA:   7    -0.480178935675E+03   -0.17639E-01   -0.17640E-01   688   0.261E-01-0.578E-04
CGA:   8    -0.480186964168E+03   -0.80285E-02   -0.80308E-02   688   0.191E-01-0.213E-04
CGA:   9    -0.480190207612E+03   -0.32434E-02   -0.32378E-02   688   0.107E-01-0.792E-05
CGA:  10    -0.480192429783E+03   -0.22222E-02   -0.22224E-02   688   0.431E-02 0.420E-05
CGA:  11    -0.480193453689E+03   -0.10239E-02   -0.10241E-02   688   0.176E-02-0.107E-04
CGA:  12    -0.480193821570E+03   -0.36788E-03   -0.36783E-03   688   0.121E-02-0.284E-05
CGA:  13    -0.480194024776E+03   -0.20321E-03   -0.20306E-03   688   0.447E-03-0.109E-05
CGA:  14    -0.480194171339E+03   -0.14656E-03   -0.14686E-03   688   0.248E-03-0.277E-05
CGA:  15    -0.480194221209E+03   -0.49870E-04   -0.49833E-04   688   0.217E-03-0.149E-05
  35 F= -.48386554E+03 E0= -.48385419E+03  d E =-.388524E+00  mag=     1.9987
       N       E                     dE             d eps       ncg     rms          ort
SDA:   1    -0.474784160069E+03    0.54100E+01    0.00000E+00   688   0.141E+02 0.000E+00
CGA:   2    -0.479022185474E+03   -0.42380E+01   -0.42370E+01   688   0.468E+01 0.113E-01
CGA:   3    -0.480054418211E+03   -0.10322E+01   -0.10316E+01   688   0.164E+01-0.341E-01
CGA:   4    -0.480281983261E+03   -0.22757E+00   -0.22842E+00   688   0.553E+00-0.552E-02
CGA:   5    -0.480361567367E+03   -0.79584E-01   -0.79506E-01   688   0.150E+00-0.313E-03
CGA:   6    -0.480392444141E+03   -0.30877E-01   -0.30884E-01   688   0.487E-01 0.257E-03
CGA:   7    -0.480403942988E+03   -0.11499E-01   -0.11500E-01   688   0.301E-01-0.573E-04
CGA:   8    -0.480408624554E+03   -0.46816E-02   -0.46770E-02   688   0.157E-01-0.157E-04
CGA:   9    -0.480412779803E+03   -0.41552E-02   -0.41552E-02   688   0.650E-02 0.422E-05
CGA:  10    -0.480414315543E+03   -0.15357E-02   -0.15356E-02   688   0.477E-02 0.456E-05
CGA:  11    -0.480415052625E+03   -0.73708E-03   -0.73668E-03   688   0.169E-02-0.326E-05
CGA:  12    -0.480415446229E+03   -0.39360E-03   -0.39365E-03   688   0.762E-03-0.349E-05
CGA:  13    -0.480415608137E+03   -0.16191E-03   -0.16191E-03   688   0.485E-03 0.589E-07
CGA:  14    -0.480415693258E+03   -0.85121E-04   -0.85116E-04   688   0.244E-03-0.235E-06
  36 F= -.48408935E+03 E0= -.48407792E+03  d E =-.223813E+00  mag=     1.9995
       N       E                     dE             d eps       ncg     rms          ort
SDA:   1    -0.477031313078E+03    0.33843E+01    0.00000E+00   688   0.859E+01 0.000E+00
CGA:   2    -0.479618398208E+03   -0.25871E+01   -0.25866E+01   688   0.287E+01 0.479E-02
CGA:   3    -0.480234079377E+03   -0.61568E+00   -0.61544E+00   688   0.116E+01-0.149E-01
CGA:   4    -0.480376905682E+03   -0.14283E+00   -0.14231E+00   688   0.354E+00-0.343E-02
CGA:   5    -0.480434459668E+03   -0.57554E-01   -0.57509E-01   688   0.850E-01-0.187E-03
CGA:   6    -0.480453066787E+03   -0.18607E-01   -0.18606E-01   688   0.315E-01 0.142E-03
CGA:   7    -0.480459326594E+03   -0.62598E-02   -0.62592E-02   688   0.214E-01-0.240E-04
CGA:   8    -0.480462721822E+03   -0.33952E-02   -0.33924E-02   688   0.885E-02-0.185E-04
CGA:   9    -0.480465338851E+03   -0.26170E-02   -0.26164E-02   688   0.432E-02 0.808E-05
CGA:  10    -0.480466197457E+03   -0.85861E-03   -0.85856E-03   688   0.332E-02-0.211E-05
CGA:  11    -0.480466751848E+03   -0.55439E-03   -0.55412E-03   688   0.977E-03-0.409E-05
CGA:  12    -0.480467002612E+03   -0.25076E-03   -0.25089E-03   688   0.536E-03-0.293E-05
CGA:  13    -0.480467092660E+03   -0.90048E-04   -0.90052E-04   688   0.311E-03 0.959E-07
  37 F= -.48414251E+03 E0= -.48413092E+03  d E =-.276969E+00  mag=     1.9998
       N       E                     dE             d eps       ncg     rms          ort
SDA:   1    -0.478154447408E+03    0.23126E+01    0.00000E+00   688   0.608E+01 0.000E+00
CGA:   2    -0.480017147842E+03   -0.18627E+01   -0.18627E+01   688   0.202E+01 0.194E-03
CGA:   3    -0.480468051546E+03   -0.45090E+00   -0.45098E+00   688   0.706E+00-0.574E-02
CGA:   4    -0.480560520673E+03   -0.92469E-01   -0.92538E-01   688   0.260E+00-0.145E-02
CGA:   5    -0.480598201662E+03   -0.37681E-01   -0.37691E-01   688   0.620E-01-0.620E-04
CGA:   6    -0.480612323860E+03   -0.14122E-01   -0.14118E-01   688   0.224E-01 0.141E-03
CGA:   7    -0.480617369644E+03   -0.50458E-02   -0.50458E-02   688   0.154E-01-0.651E-05
CGA:   8    -0.480619718346E+03   -0.23487E-02   -0.23479E-02   688   0.760E-02-0.605E-05
CGA:   9    -0.480621737499E+03   -0.20192E-02   -0.20183E-02   688   0.311E-02 0.146E-04
CGA:  10    -0.480622477985E+03   -0.74049E-03   -0.74046E-03   688   0.228E-02-0.740E-06
CGA:  11    -0.480622807372E+03   -0.32939E-03   -0.32926E-03   688   0.789E-03-0.342E-05
CGA:  12    -0.480622994765E+03   -0.18739E-03   -0.18745E-03   688   0.340E-03-0.208E-05
CGA:  13    -0.480623070057E+03   -0.75291E-04   -0.75284E-04   688   0.235E-03 0.689E-06
  38 F= -.48429975E+03 E0= -.48428855E+03  d E =-.157241E+00  mag=     1.9998
       N       E                     dE             d eps       ncg     rms          ort
SDA:   1    -0.465626390622E+03    0.14997E+02    0.00000E+00   688   0.374E+02 0.000E+00
CGA:   2    -0.476993970597E+03   -0.11368E+02   -0.11366E+02   688   0.129E+02 0.170E-01
CGA:   3    -0.479738697232E+03   -0.27447E+01   -0.27446E+01   688   0.481E+01-0.859E-01
CGA:   4    -0.480387070552E+03   -0.64837E+00   -0.64644E+00   688   0.162E+01-0.405E-01
CGA:   5    -0.480617676139E+03   -0.23061E+00   -0.23144E+00   688   0.437E+00-0.263E-02
CGA:   6    -0.480710194399E+03   -0.92518E-01   -0.92520E-01   688   0.151E+00-0.110E-03
CGA:   7    -0.480742767008E+03   -0.32573E-01   -0.32569E-01   688   0.105E+00 0.221E-03
CGA:   8    -0.480759191198E+03   -0.16424E-01   -0.16400E-01   688   0.449E-01-0.106E-03
CGA:   9    -0.480771803132E+03   -0.12612E-01   -0.12600E-01   688   0.226E-01 0.127E-03
CGA:  10    -0.480776247934E+03   -0.44448E-02   -0.44452E-02   688   0.144E-01 0.172E-04
CGA:  11    -0.480778670534E+03   -0.24226E-02   -0.24232E-02   688   0.549E-02 0.152E-05
CGA:  12    -0.480779917395E+03   -0.12469E-02   -0.12470E-02   688   0.226E-02-0.745E-05
CGA:  13    -0.480780377944E+03   -0.46055E-03   -0.46056E-03   688   0.170E-02 0.159E-05
CGA:  14    -0.480780686607E+03   -0.30866E-03   -0.30863E-03   688   0.610E-03-0.920E-06
CGA:  15    -0.480780879461E+03   -0.19285E-03   -0.19326E-03   688   0.504E-03-0.375E-05
CGA:  16    -0.480780954137E+03   -0.74676E-04   -0.74485E-04   688   0.224E-03-0.293E-05
  39 F= -.48446036E+03 E0= -.48445002E+03  d E =-.317846E+00  mag=     1.9997
       N       E                     dE             d eps       ncg     rms          ort
SDA:   1    -0.477671808528E+03    0.31091E+01    0.00000E+00   688   0.809E+01 0.000E+00
CGA:   2    -0.480124549458E+03   -0.24527E+01   -0.24529E+01   688   0.292E+01-0.639E-03
CGA:   3    -0.480690174433E+03   -0.56562E+00   -0.56566E+00   688   0.135E+01-0.288E-02
CGA:   4    -0.480859112828E+03   -0.16894E+00   -0.16533E+00   688   0.331E+00 0.371E-02
CGA:   5    -0.480920700916E+03   -0.61588E-01   -0.61571E-01   688   0.788E-01-0.230E-03
CGA:   6    -0.480939770329E+03   -0.19069E-01   -0.19056E-01   688   0.344E-01 0.260E-03
CGA:   7    -0.480945791159E+03   -0.60208E-02   -0.60294E-02   688   0.222E-01 0.579E-04
CGA:   8    -0.480949996380E+03   -0.42052E-02   -0.42045E-02   688   0.913E-02-0.211E-04
CGA:   9    -0.480952639028E+03   -0.26426E-02   -0.26406E-02   688   0.449E-02 0.224E-04
CGA:  10    -0.480953513570E+03   -0.87454E-03   -0.87440E-03   688   0.315E-02-0.583E-05
CGA:  11    -0.480954045768E+03   -0.53220E-03   -0.53215E-03   688   0.861E-03-0.508E-05
CGA:  12    -0.480954280402E+03   -0.23463E-03   -0.23472E-03   688   0.476E-03-0.133E-05
CGA:  13    -0.480954362350E+03   -0.81948E-04   -0.81978E-04   688   0.275E-03 0.486E-06
  40 F= -.48463534E+03 E0= -.48462616E+03  d E =-.174981E+00  mag=     1.9997
       N       E                     dE             d eps       ncg     rms          ort
SDA:   1    -0.451627852207E+03    0.29326E+02    0.00000E+00   688   0.733E+02 0.000E+00
CGA:   2    -0.473523479623E+03   -0.21896E+02   -0.21892E+02   688   0.276E+02 0.317E-01
CGA:   3    -0.478883136644E+03   -0.53597E+01   -0.53645E+01   688   0.102E+02-0.588E-01
CGA:   4    -0.480435314472E+03   -0.15522E+01   -0.15028E+01   688   0.301E+01-0.213E+00
CGA:   5    -0.480906639665E+03   -0.47133E+00   -0.47559E+00   688   0.799E+00 0.125E-01
CGA:   6    -0.481085082887E+03   -0.17844E+00   -0.17852E+00   688   0.316E+00-0.318E-02
CGA:   7    -0.481147475819E+03   -0.62393E-01   -0.62475E-01   688   0.189E+00 0.345E-02
CGA:   8    -0.481184684127E+03   -0.37208E-01   -0.37187E-01   688   0.832E-01-0.659E-03
CGA:   9    -0.481207791643E+03   -0.23108E-01   -0.23034E-01   688   0.430E-01 0.816E-03
CGA:  10    -0.481216075950E+03   -0.82843E-02   -0.82792E-02   688   0.233E-01-0.946E-04
CGA:  11    -0.481220869568E+03   -0.47936E-02   -0.47943E-02   688   0.809E-02 0.683E-04
CGA:  12    -0.481222745277E+03   -0.18757E-02   -0.18760E-02   688   0.421E-02-0.124E-04
CGA:  13    -0.481223617565E+03   -0.87229E-03   -0.87235E-03   688   0.226E-02 0.804E-05
CGA:  14    -0.481224118206E+03   -0.50064E-03   -0.50069E-03   688   0.114E-02-0.403E-05
CGA:  15    -0.481224439652E+03   -0.32145E-03   -0.32174E-03   688   0.706E-03-0.470E-05
CGA:  16    -0.481224571778E+03   -0.13213E-03   -0.13197E-03   688   0.378E-03-0.510E-05
CGA:  17    -0.481224674253E+03   -0.10248E-03   -0.10266E-03   688   0.147E-03-0.320E-05
CGA:  18    -0.481224705296E+03   -0.31043E-04   -0.31040E-04   688   0.106E-03-0.672E-06
  41 F= -.48491064E+03 E0= -.48490429E+03  d E =-.450285E+00  mag=     1.9997
       N       E                     dE             d eps       ncg     rms          ort
SDA:   1    -0.475466926083E+03    0.57577E+01    0.00000E+00   688   0.150E+02 0.000E+00
CGA:   2    -0.479716881552E+03   -0.42500E+01   -0.42518E+01   688   0.709E+01-0.697E-02
CGA:   3    -0.480862224451E+03   -0.11453E+01   -0.11650E+01   688   0.266E+01-0.464E-01
CGA:   4    -0.481294475326E+03   -0.43225E+00   -0.42278E+00   688   0.611E+00-0.287E-01
CGA:   5    -0.481413878516E+03   -0.11940E+00   -0.11934E+00   688   0.145E+00-0.134E-02
CGA:   6    -0.481449455720E+03   -0.35577E-01   -0.35589E-01   688   0.752E-01-0.234E-03
CGA:   7    -0.481461718274E+03   -0.12263E-01   -0.12349E-01   688   0.354E-01 0.305E-03
CGA:   8    -0.481471114430E+03   -0.93962E-02   -0.94022E-02   688   0.151E-01-0.868E-04
CGA:   9    -0.481475415448E+03   -0.43010E-02   -0.42943E-02   688   0.925E-02 0.743E-04
CGA:  10    -0.481477082859E+03   -0.16674E-02   -0.16651E-02   688   0.433E-02-0.227E-04
CGA:  11    -0.481478059992E+03   -0.97713E-03   -0.97706E-03   688   0.140E-02-0.658E-06
CGA:  12    -0.481478445439E+03   -0.38545E-03   -0.38564E-03   688   0.859E-03-0.293E-05
CGA:  13    -0.481478593533E+03   -0.14809E-03   -0.14820E-03   688   0.390E-03 0.322E-06
CGA:  14    -0.481478722490E+03   -0.12896E-03   -0.12949E-03   688   0.191E-03-0.470E-05
CGA:  15    -0.481478766832E+03   -0.44343E-04   -0.44359E-04   688   0.158E-03-0.153E-05
  42 F= -.48516844E+03 E0= -.48516306E+03  d E =-.257802E+00  mag=     1.9999
       N       E                     dE             d eps       ncg     rms          ort
SDA:   1    -0.460713620383E+03    0.20765E+02    0.00000E+00   688   0.524E+02 0.000E+00
CGA:   2    -0.475424108415E+03   -0.14710E+02   -0.14724E+02   688   0.254E+02-0.309E+00
CGA:   3    -0.479653968060E+03   -0.42299E+01   -0.43558E+01   688   0.769E+01-0.864E-01
CGA:   4    -0.481087204527E+03   -0.14332E+01   -0.13921E+01   688   0.206E+01-0.281E+00
CGA:   5    -0.481430122808E+03   -0.34292E+00   -0.34619E+00   688   0.546E+00 0.184E-01
CGA:   6    -0.481556980084E+03   -0.12686E+00   -0.12697E+00   688   0.238E+00-0.577E-02
CGA:   7    -0.481603334363E+03   -0.46354E-01   -0.46606E-01   688   0.118E+00 0.437E-02
CGA:   8    -0.481632846847E+03   -0.29512E-01   -0.29547E-01   688   0.561E-01-0.794E-03
CGA:   9    -0.481647654944E+03   -0.14808E-01   -0.14755E-01   688   0.293E-01 0.809E-03
CGA:  10    -0.481653987340E+03   -0.63324E-02   -0.63293E-02   688   0.137E-01-0.159E-03
CGA:  11    -0.481657022035E+03   -0.30347E-02   -0.30346E-02   688   0.476E-02 0.775E-04
CGA:  12    -0.481658303318E+03   -0.12813E-02   -0.12824E-02   688   0.257E-02-0.175E-04
CGA:  13    -0.481658829687E+03   -0.52637E-03   -0.52666E-03   688   0.124E-02 0.602E-05
CGA:  14    -0.481659215891E+03   -0.38620E-03   -0.38711E-03   688   0.637E-03-0.976E-05
CGA:  15    -0.481659368736E+03   -0.15284E-03   -0.15286E-03   688   0.427E-03-0.240E-05
CGA:  16    -0.481659473698E+03   -0.10496E-03   -0.10504E-03   688   0.156E-03-0.365E-05
CGA:  17    -0.481659515632E+03   -0.41934E-04   -0.41919E-04   688   0.945E-04 0.300E-06
  43 F= -.48535747E+03 E0= -.48535326E+03  d E =-.446833E+00  mag=     1.9999
       N       E                     dE             d eps       ncg     rms          ort
SDA:   1    -0.479870565399E+03    0.17889E+01    0.00000E+00   688   0.482E+01 0.000E+00
CGA:   2    -0.481187111598E+03   -0.13165E+01   -0.13205E+01   688   0.262E+01-0.576E-01
CGA:   3    -0.481587386231E+03   -0.40027E+00   -0.41640E+00   688   0.786E+00-0.195E-02
CGA:   4    -0.481731765154E+03   -0.14438E+00   -0.14317E+00   688   0.184E+00-0.619E-02
CGA:   5    -0.481767619225E+03   -0.35854E-01   -0.35854E-01   688   0.447E-01 0.280E-04
CGA:   6    -0.481779324714E+03   -0.11705E-01   -0.11708E-01   688   0.190E-01-0.595E-04
CGA:   7    -0.481783163058E+03   -0.38383E-02   -0.38480E-02   688   0.107E-01 0.152E-03
CGA:   8    -0.481785858935E+03   -0.26959E-02   -0.26967E-02   688   0.407E-02-0.237E-04
CGA:   9    -0.481787213929E+03   -0.13550E-02   -0.13530E-02   688   0.201E-02 0.148E-04
CGA:  10    -0.481787624809E+03   -0.41088E-03   -0.41045E-03   688   0.103E-02-0.951E-05
CGA:  11    -0.481787867677E+03   -0.24287E-03   -0.24287E-03   688   0.312E-03-0.159E-05
CGA:  12    -0.481787960927E+03   -0.93250E-04   -0.93291E-04   688   0.171E-03-0.559E-06
  44 F= -.48548861E+03 E0= -.48548477E+03  d E =-.131139E+00  mag=     1.9999
       N       E                     dE             d eps       ncg     rms          ort
SDA:   1    -0.464755170483E+03    0.17033E+02    0.00000E+00   688   0.436E+02 0.000E+00
CGA:   2    -0.476384508217E+03   -0.11629E+02   -0.11674E+02   688   0.255E+02-0.928E+00
CGA:   3    -0.480263930081E+03   -0.38794E+01   -0.41337E+01   688   0.628E+01-0.168E+00
CGA:   4    -0.481594028035E+03   -0.13301E+01   -0.13255E+01   688   0.131E+01-0.911E-01
CGA:   5    -0.481851531781E+03   -0.25750E+00   -0.25864E+00   688   0.418E+00 0.128E-01
CGA:   6    -0.481946600766E+03   -0.95069E-01   -0.95041E-01   688   0.157E+00-0.261E-02
CGA:   7    -0.481986382197E+03   -0.39781E-01   -0.39604E-01   688   0.764E-01 0.437E-02
CGA:   8    -0.482006525890E+03   -0.20144E-01   -0.20168E-01   688   0.386E-01-0.552E-03
CGA:   9    -0.482017424981E+03   -0.10899E-01   -0.10854E-01   688   0.148E-01 0.608E-03
CGA:  10    -0.482021458774E+03   -0.40338E-02   -0.40368E-02   688   0.668E-02-0.633E-04
CGA:  11    -0.482023047033E+03   -0.15883E-02   -0.15881E-02   688   0.251E-02 0.432E-04
CGA:  12    -0.482023749012E+03   -0.70198E-03   -0.70233E-03   688   0.115E-02-0.582E-05
CGA:  13    -0.482024112104E+03   -0.36309E-03   -0.36314E-03   688   0.603E-03-0.170E-05
CGA:  14    -0.482024279515E+03   -0.16741E-03   -0.16767E-03   688   0.354E-03-0.661E-05
CGA:  15    -0.482024378437E+03   -0.98922E-04   -0.98942E-04   688   0.128E-03-0.728E-06
  45 F= -.48573077E+03 E0= -.48572787E+03  d E =-.373301E+00  mag=     1.9999
       N       E                     dE             d eps       ncg     rms          ort
SDA:   1    -0.477734522048E+03    0.42898E+01    0.00000E+00   688   0.108E+02 0.000E+00
CGA:   2    -0.480693942832E+03   -0.29594E+01   -0.29729E+01   688   0.610E+01-0.316E+00
CGA:   3    -0.481623282987E+03   -0.92934E+00   -0.10056E+01   688   0.152E+01 0.179E-01
CGA:   4    -0.481941475341E+03   -0.31819E+00   -0.31662E+00   688   0.313E+00-0.124E-01
CGA:   5    -0.482006871341E+03   -0.65396E-01   -0.65407E-01   688   0.880E-01 0.156E-03
CGA:   6    -0.482030019713E+03   -0.23148E-01   -0.23142E-01   688   0.291E-01 0.176E-03
CGA:   7    -0.482039452757E+03   -0.94330E-02   -0.94243E-02   688   0.136E-01 0.841E-04
CGA:   8    -0.482043526113E+03   -0.40734E-02   -0.40748E-02   688   0.751E-02-0.217E-04
CGA:   9    -0.482045362408E+03   -0.18363E-02   -0.18369E-02   688   0.271E-02 0.445E-04
CGA:  10    -0.482046127283E+03   -0.76488E-03   -0.76520E-03   688   0.101E-02-0.894E-05
CGA:  11    -0.482046404151E+03   -0.27687E-03   -0.27683E-03   688   0.386E-03 0.543E-06
CGA:  12    -0.482046531039E+03   -0.12689E-03   -0.12703E-03   688   0.191E-03-0.191E-05
CGA:  13    -0.482046590648E+03   -0.59609E-04   -0.59652E-04   688   0.105E-03-0.865E-06
  46 F= -.48575432E+03 E0= -.48575187E+03  d E =-.396846E+00  mag=     1.9998
       N       E                     dE             d eps       ncg     rms          ort
SDA:   1    -0.477521323038E+03    0.45252E+01    0.00000E+00   688   0.118E+02 0.000E+00
CGA:   2    -0.480803397553E+03   -0.32821E+01   -0.32969E+01   688   0.691E+01-0.487E+00
CGA:   3    -0.481835278359E+03   -0.10319E+01   -0.11415E+01   688   0.160E+01 0.190E-01
CGA:   4    -0.482178865342E+03   -0.34359E+00   -0.34298E+00   688   0.318E+00-0.389E-02
CGA:   5    -0.482248099239E+03   -0.69234E-01   -0.69219E-01   688   0.969E-01-0.103E-03
CGA:   6    -0.482272818524E+03   -0.24719E-01   -0.24719E-01   688   0.329E-01 0.172E-03
CGA:   7    -0.482283690739E+03   -0.10872E-01   -0.10871E-01   688   0.145E-01 0.163E-04
CGA:   8    -0.482288561009E+03   -0.48703E-02   -0.48699E-02   688   0.641E-02 0.338E-05
CGA:   9    -0.482290443557E+03   -0.18825E-02   -0.18821E-02   688   0.212E-02 0.372E-05
CGA:  10    -0.482291128415E+03   -0.68486E-03   -0.68497E-03   688   0.640E-03-0.202E-05
CGA:  11    -0.482291358682E+03   -0.23027E-03   -0.23041E-03   688   0.294E-03-0.153E-05
CGA:  12    -0.482291450983E+03   -0.92301E-04   -0.92357E-04   688   0.174E-03-0.151E-05
  47 F= -.48599968E+03 E0= -.48599801E+03  d E =-.245360E+00  mag=     1.9998
       N       E                     dE             d eps       ncg     rms          ort
SDA:   1    -0.439711218557E+03    0.42580E+02    0.00000E+00   688   0.107E+03 0.000E+00
CGA:   2    -0.466249166067E+03   -0.26538E+02   -0.26049E+02   688   0.103E+03-0.779E+01
CGA:   3    -0.476979049398E+03   -0.10730E+02   -0.13717E+02   688   0.208E+02-0.638E+01
CGA:   4    -0.481353872450E+03   -0.43748E+01   -0.43766E+01   688   0.362E+01 0.187E-01
CGA:   5    -0.482210598942E+03   -0.85673E+00   -0.85475E+00   688   0.104E+01-0.253E-01
CGA:   6    -0.482471441486E+03   -0.26084E+00   -0.26109E+00   688   0.367E+00 0.116E-01
CGA:   7    -0.482580915288E+03   -0.10947E+00   -0.10946E+00   688   0.147E+00 0.239E-03
CGA:   8    -0.482630480613E+03   -0.49565E-01   -0.49566E-01   688   0.604E-01 0.677E-05
CGA:   9    -0.482649640699E+03   -0.19160E-01   -0.19139E-01   688   0.216E-01 0.278E-03
CGA:  10    -0.482656574832E+03   -0.69341E-02   -0.69348E-02   688   0.705E-02-0.120E-04
CGA:  11    -0.482659001184E+03   -0.24264E-02   -0.24257E-02   688   0.265E-02 0.701E-05
CGA:  12    -0.482659978144E+03   -0.97696E-03   -0.97789E-03   688   0.113E-02-0.103E-04
CGA:  13    -0.482660418376E+03   -0.44023E-03   -0.44083E-03   688   0.464E-03-0.536E-05
CGA:  14    -0.482660601592E+03   -0.18322E-03   -0.18341E-03   688   0.170E-03-0.181E-05
CGA:  15    -0.482660668618E+03   -0.67026E-04   -0.67200E-04   688   0.623E-04-0.163E-05
  48 F= -.48636599E+03 E0= -.48636576E+03  d E =-.611665E+00  mag=     1.9998
       N       E                     dE             d eps       ncg     rms          ort
SDA:   1    -0.480326223827E+03    0.23344E+01    0.00000E+00   688   0.615E+01 0.000E+00
CGA:   2    -0.482315573683E+03   -0.19893E+01   -0.19902E+01   688   0.200E+01-0.216E-01
CGA:   3    -0.482800878275E+03   -0.48530E+00   -0.48637E+00   688   0.451E+00 0.518E-02
CGA:   4    -0.482895109284E+03   -0.94231E-01   -0.94261E-01   688   0.114E+00 0.184E-04
CGA:   5    -0.482920097391E+03   -0.24988E-01   -0.24977E-01   688   0.356E-01 0.320E-05
CGA:   6    -0.482929763182E+03   -0.96658E-02   -0.96659E-02   688   0.137E-01-0.786E-05
CGA:   7    -0.482934271928E+03   -0.45087E-02   -0.45084E-02   688   0.615E-02 0.953E-05
CGA:   8    -0.482936187333E+03   -0.19154E-02   -0.19153E-02   688   0.230E-02 0.442E-05
CGA:   9    -0.482936877176E+03   -0.68984E-03   -0.68989E-03   688   0.702E-03-0.626E-05
CGA:  10    -0.482937098567E+03   -0.22139E-03   -0.22138E-03   688   0.228E-03 0.552E-06
CGA:  11    -0.482937182033E+03   -0.83466E-04   -0.83544E-04   688   0.932E-04-0.111E-05
  49 F= -.48664210E+03 E0= -.48664191E+03  d E =-.276115E+00  mag=     1.9998
       N       E                     dE             d eps       ncg     rms          ort
SDA:   1    -0.475697385101E+03    0.72397E+01    0.00000E+00   688   0.175E+02 0.000E+00
CGA:   2    -0.481296052248E+03   -0.55987E+01   -0.56085E+01   688   0.632E+01-0.325E+00
CGA:   3    -0.482689213512E+03   -0.13932E+01   -0.14251E+01   688   0.142E+01 0.111E+00
CGA:   4    -0.482980888607E+03   -0.29168E+00   -0.29197E+00   688   0.367E+00 0.176E-03
CGA:   5    -0.483060122255E+03   -0.79234E-01   -0.79142E-01   688   0.108E+00-0.828E-04
CGA:   6    -0.483089919465E+03   -0.29797E-01   -0.29801E-01   688   0.402E-01 0.885E-04
CGA:   7    -0.483103274079E+03   -0.13355E-01   -0.13354E-01   688   0.186E-01 0.801E-05
CGA:   8    -0.483109065431E+03   -0.57914E-02   -0.57911E-02   688   0.726E-02 0.135E-04
CGA:   9    -0.483111237228E+03   -0.21718E-02   -0.21718E-02   688   0.223E-02-0.103E-04
CGA:  10    -0.483111946977E+03   -0.70975E-03   -0.70977E-03   688   0.718E-03-0.769E-06
CGA:  11    -0.483112207958E+03   -0.26098E-03   -0.26104E-03   688   0.295E-03-0.933E-06
CGA:  12    -0.483112325069E+03   -0.11711E-03   -0.11755E-03   688   0.135E-03-0.385E-05
CGA:  13    -0.483112374942E+03   -0.49873E-04   -0.49910E-04   688   0.554E-04 0.274E-05
  50 F= -.48681617E+03 E0= -.48681593E+03  d E =-.450188E+00  mag=     1.9997
       N       E                     dE             d eps       ncg     rms          ort
SDA:   1    -0.480270994195E+03    0.28413E+01    0.00000E+00   688   0.703E+01 0.000E+00
CGA:   2    -0.482540606170E+03   -0.22696E+01   -0.22711E+01   688   0.261E+01-0.508E-01
CGA:   3    -0.483141163075E+03   -0.60056E+00   -0.60541E+00   688   0.573E+00 0.164E-01
CGA:   4    -0.483260238753E+03   -0.11908E+00   -0.11913E+00   688   0.142E+00-0.929E-05
CGA:   5    -0.483292029392E+03   -0.31791E-01   -0.31780E-01   688   0.440E-01-0.154E-04
CGA:   6    -0.483304135248E+03   -0.12106E-01   -0.12106E-01   688   0.170E-01-0.792E-05
CGA:   7    -0.483309531808E+03   -0.53966E-02   -0.53963E-02   688   0.739E-02 0.901E-05
CGA:   8    -0.483311818580E+03   -0.22868E-02   -0.22867E-02   688   0.268E-02 0.425E-05
CGA:   9    -0.483312634972E+03   -0.81639E-03   -0.81644E-03   688   0.833E-03-0.622E-05
CGA:  10    -0.483312897551E+03   -0.26258E-03   -0.26258E-03   688   0.276E-03-0.374E-06
CGA:  11    -0.483312996831E+03   -0.99279E-04   -0.99298E-04   688   0.109E-03-0.512E-06
  51 F= -.48701671E+03 E0= -.48701645E+03  d E =-.200537E+00  mag=     1.9996
       N       E                     dE             d eps       ncg     rms          ort
SDA:   1    -0.482318367833E+03    0.99453E+00    0.00000E+00   688   0.238E+01 0.000E+00
CGA:   2    -0.483086291291E+03   -0.76792E+00   -0.76805E+00   688   0.852E+00-0.410E-02
CGA:   3    -0.483288783324E+03   -0.20249E+00   -0.20272E+00   688   0.188E+00 0.898E-03
CGA:   4    -0.483328153970E+03   -0.39371E-01   -0.39378E-01   688   0.454E-01-0.194E-04
CGA:   5    -0.483338517327E+03   -0.10363E-01   -0.10362E-01   688   0.143E-01-0.515E-05
CGA:   6    -0.483342423009E+03   -0.39057E-02   -0.39055E-02   688   0.569E-02-0.146E-04
CGA:   7    -0.483344195259E+03   -0.17723E-02   -0.17722E-02   688   0.253E-02 0.399E-05
CGA:   8    -0.483344957768E+03   -0.76251E-03   -0.76250E-03   688   0.901E-03 0.308E-07
CGA:   9    -0.483345234414E+03   -0.27665E-03   -0.27668E-03   688   0.277E-03-0.362E-05
CGA:  10    -0.483345322723E+03   -0.88309E-04   -0.88310E-04   688   0.933E-04-0.288E-06
  52 F= -.48704893E+03 E0= -.48704861E+03  d E =-.232758E+00  mag=     1.9994
       N       E                     dE             d eps       ncg     rms          ort
SDA:   1    -0.481314357421E+03    0.20309E+01    0.00000E+00   688   0.504E+01 0.000E+00
CGA:   2    -0.482968715669E+03   -0.16544E+01   -0.16560E+01   688   0.188E+01-0.358E-01
CGA:   3    -0.483416931963E+03   -0.44822E+00   -0.45110E+00   688   0.366E+00 0.143E-01
CGA:   4    -0.483500798849E+03   -0.83867E-01   -0.83848E-01   688   0.933E-01-0.827E-04
CGA:   5    -0.483521638048E+03   -0.20839E-01   -0.20830E-01   688   0.340E-01-0.127E-04
CGA:   6    -0.483530955538E+03   -0.93175E-02   -0.93177E-02   688   0.133E-01-0.119E-04
CGA:   7    -0.483535243317E+03   -0.42878E-02   -0.42878E-02   688   0.558E-02 0.121E-05
CGA:   8    -0.483536962393E+03   -0.17191E-02   -0.17190E-02   688   0.201E-02 0.126E-05
CGA:   9    -0.483537556169E+03   -0.59378E-03   -0.59379E-03   688   0.645E-03-0.760E-05
CGA:  10    -0.483537759402E+03   -0.20323E-03   -0.20324E-03   688   0.220E-03-0.495E-06
[...]
       N       E                     dE             d eps       ncg     rms          ort
SDA:   1    -0.487137733331E+03    0.49034E+00    0.00000E+00   688   0.139E+01 0.000E+00
CGA:   2    -0.487507543521E+03   -0.36981E+00   -0.36980E+00   688   0.381E+00-0.259E-03
CGA:   3    -0.487605629528E+03   -0.98086E-01   -0.98094E-01   688   0.970E-01 0.103E-03
CGA:   4    -0.487625622356E+03   -0.19993E-01   -0.19989E-01   688   0.185E-01 0.133E-04
CGA:   5    -0.487630084614E+03   -0.44623E-02   -0.44622E-02   688   0.478E-02-0.240E-05
CGA:   6    -0.487631342310E+03   -0.12577E-02   -0.12577E-02   688   0.163E-02-0.286E-05
CGA:   7    -0.487631883490E+03   -0.54118E-03   -0.54107E-03   688   0.726E-03 0.194E-05
CGA:   8    -0.487632131150E+03   -0.24766E-03   -0.24768E-03   688   0.292E-03-0.351E-06
CGA:   9    -0.487632223802E+03   -0.92652E-04   -0.92649E-04   688   0.907E-04 0.910E-07
 227 F= -.49133226E+03 E0= -.49133201E+03  d E =-.471378E-02  mag=     1.9990
       N       E                     dE             d eps       ncg     rms          ort
SDA:   1    -0.487442423392E+03    0.18971E+00    0.00000E+00   688   0.534E+00 0.000E+00
CGA:   2    -0.487584731830E+03   -0.14231E+00   -0.14231E+00   688   0.146E+00-0.670E-04
CGA:   3    -0.487622458009E+03   -0.37726E-01   -0.37727E-01   688   0.372E-01 0.103E-04
CGA:   4    -0.487630121261E+03   -0.76633E-02   -0.76630E-02   688   0.716E-02 0.104E-04
CGA:   5    -0.487631817374E+03   -0.16961E-02   -0.16960E-02   688   0.194E-02-0.178E-05
CGA:   6    -0.487632308940E+03   -0.49157E-03   -0.49152E-03   688   0.679E-03-0.196E-05
CGA:   7    -0.487632523388E+03   -0.21445E-03   -0.21441E-03   688   0.316E-03 0.936E-06
CGA:   8    -0.487632626433E+03   -0.10305E-03   -0.10305E-03   688   0.132E-03-0.231E-07
CGA:   9    -0.487632668221E+03   -0.41788E-04   -0.41795E-04   688   0.411E-04-0.204E-06
 228 F= -.49133308E+03 E0= -.49133284E+03  d E =-.553239E-02  mag=     1.9990
       N       E                     dE             d eps       ncg     rms          ort
SDA:   1    -0.486995831529E+03    0.63679E+00    0.00000E+00   688   0.180E+01 0.000E+00
CGA:   2    -0.487475869347E+03   -0.48004E+00   -0.48004E+00   688   0.491E+00-0.985E-04
CGA:   3    -0.487602315628E+03   -0.12645E+00   -0.12646E+00   688   0.127E+00 0.131E-03
CGA:   4    -0.487627890881E+03   -0.25575E-01   -0.25569E-01   688   0.245E-01 0.121E-04
CGA:   5    -0.487633732793E+03   -0.58419E-02   -0.58418E-02   688   0.632E-02-0.363E-05
CGA:   6    -0.487635385271E+03   -0.16525E-02   -0.16524E-02   688   0.211E-02-0.372E-05
CGA:   7    -0.487636078159E+03   -0.69289E-03   -0.69279E-03   688   0.924E-03 0.189E-05
CGA:   8    -0.487636394945E+03   -0.31679E-03   -0.31679E-03   688   0.363E-03-0.154E-06
CGA:   9    -0.487636514206E+03   -0.11926E-03   -0.11925E-03   688   0.111E-03 0.267E-06
CGA:  10    -0.487636550289E+03   -0.36083E-04   -0.36056E-04   688   0.350E-04 0.664E-06
 229 F= -.49133772E+03 E0= -.49133746E+03  d E =-.464539E-02  mag=     1.9989
       N       E                     dE             d eps       ncg     rms          ort
SDA:   1    -0.487329570128E+03    0.30694E+00    0.00000E+00   688   0.862E+00 0.000E+00
CGA:   2    -0.487559828847E+03   -0.23026E+00   -0.23026E+00   688   0.236E+00-0.394E-04
CGA:   3    -0.487620502524E+03   -0.60674E-01   -0.60677E-01   688   0.610E-01 0.287E-04
CGA:   4    -0.487632769391E+03   -0.12267E-01   -0.12265E-01   688   0.118E-01 0.109E-04
CGA:   5    -0.487635589117E+03   -0.28197E-02   -0.28196E-02   688   0.299E-02-0.357E-05
CGA:   6    -0.487636375167E+03   -0.78605E-03   -0.78601E-03   688   0.101E-02-0.266E-05
CGA:   7    -0.487636703489E+03   -0.32832E-03   -0.32827E-03   688   0.448E-03 0.109E-05
CGA:   8    -0.487636854861E+03   -0.15137E-03   -0.15138E-03   688   0.181E-03-0.172E-06
CGA:   9    -0.487636913171E+03   -0.58310E-04   -0.58306E-04   688   0.565E-04 0.824E-07
 230 F= -.49133861E+03 E0= -.49133832E+03  d E =-.552910E-02  mag=     1.9988
       N       E                     dE             d eps       ncg     rms          ort
SDA:   1    -0.486900817768E+03    0.73604E+00    0.00000E+00   688   0.209E+01 0.000E+00
CGA:   2    -0.487455190674E+03   -0.55437E+00   -0.55435E+00   688   0.566E+00-0.405E-03
CGA:   3    -0.487601196589E+03   -0.14601E+00   -0.14602E+00   688   0.145E+00 0.194E-03
CGA:   4    -0.487630992065E+03   -0.29795E-01   -0.29788E-01   688   0.277E-01 0.117E-04
CGA:   5    -0.487637636862E+03   -0.66448E-02   -0.66447E-02   688   0.727E-02-0.351E-05
CGA:   6    -0.487639527076E+03   -0.18902E-02   -0.18902E-02   688   0.247E-02-0.282E-05
CGA:   7    -0.487640339502E+03   -0.81243E-03   -0.81233E-03   688   0.109E-02 0.191E-05
CGA:   8    -0.487640711590E+03   -0.37209E-03   -0.37210E-03   688   0.435E-03-0.244E-06
CGA:   9    -0.487640851710E+03   -0.14012E-03   -0.14012E-03   688   0.132E-03 0.190E-07
CGA:  10    -0.487640894336E+03   -0.42626E-04   -0.42607E-04   688   0.415E-04 0.514E-06
 231 F= -.49134309E+03 E0= -.49134272E+03  d E =-.448628E-02  mag=     1.9985
       N       E                     dE             d eps       ncg     rms          ort
SDA:   1    -0.487546533539E+03    0.94318E-01    0.00000E+00   688   0.267E+00 0.000E+00
CGA:   2    -0.487617346219E+03   -0.70813E-01   -0.70811E-01   688   0.722E-01-0.241E-04
CGA:   3    -0.487635999134E+03   -0.18653E-01   -0.18653E-01   688   0.186E-01-0.252E-05
CGA:   4    -0.487639806028E+03   -0.38069E-02   -0.38070E-02   688   0.352E-02 0.697E-05
CGA:   5    -0.487640660845E+03   -0.85482E-03   -0.85474E-03   688   0.889E-03-0.197E-05
CGA:   6    -0.487640897740E+03   -0.23689E-03   -0.23688E-03   688   0.309E-03-0.117E-05
CGA:   7    -0.487640999319E+03   -0.10158E-03   -0.10155E-03   688   0.142E-03 0.547E-06
CGA:   8    -0.487641046655E+03   -0.47336E-04   -0.47349E-04   688   0.599E-04-0.257E-06
 232 F= -.49134342E+03 E0= -.49134300E+03  d E =-.481392E-02  mag=     1.9983
       N       E                     dE             d eps       ncg     rms          ort
SDA:   1    -0.486798396632E+03    0.84260E+00    0.00000E+00   688   0.239E+01 0.000E+00
CGA:   2    -0.487434691618E+03   -0.63629E+00   -0.63628E+00   688   0.645E+00-0.327E-03
CGA:   3    -0.487601029776E+03   -0.16634E+00   -0.16635E+00   688   0.166E+00 0.229E-03
CGA:   4    -0.487635115974E+03   -0.34086E-01   -0.34077E-01   688   0.316E-01 0.886E-05
CGA:   5    -0.487642764035E+03   -0.76481E-02   -0.76480E-02   688   0.822E-02-0.348E-05
CGA:   6    -0.487644911090E+03   -0.21471E-02   -0.21470E-02   688   0.286E-02-0.297E-05
CGA:   7    -0.487645825034E+03   -0.91394E-03   -0.91386E-03   688   0.131E-02 0.217E-05
CGA:   8    -0.487646247487E+03   -0.42245E-03   -0.42247E-03   688   0.546E-03-0.382E-06
CGA:   9    -0.487646414648E+03   -0.16716E-03   -0.16717E-03   688   0.174E-03-0.178E-06
CGA:  10    -0.487646468680E+03   -0.54032E-04   -0.54016E-04   688   0.525E-04 0.596E-06
 233 F= -.49134903E+03 E0= -.49134853E+03  d E =-.561426E-02  mag=     1.9979
       N       E                     dE             d eps       ncg     rms          ort
SDA:   1    -0.486983087757E+03    0.66333E+00    0.00000E+00   688   0.188E+01 0.000E+00
CGA:   2    -0.487481867741E+03   -0.49878E+00   -0.49877E+00   688   0.506E+00-0.224E-03
CGA:   3    -0.487612346770E+03   -0.13048E+00   -0.13049E+00   688   0.130E+00 0.145E-03
CGA:   4    -0.487639048197E+03   -0.26701E-01   -0.26695E-01   688   0.250E-01 0.101E-04
CGA:   5    -0.487645072582E+03   -0.60244E-02   -0.60243E-02   688   0.634E-02-0.364E-05
CGA:   6    -0.487646754460E+03   -0.16819E-02   -0.16818E-02   688   0.216E-02-0.286E-05
CGA:   7    -0.487647471271E+03   -0.71681E-03   -0.71671E-03   688   0.954E-03 0.202E-05
CGA:   8    -0.487647800174E+03   -0.32890E-03   -0.32895E-03   688   0.378E-03-0.788E-06
CGA:   9    -0.487647922817E+03   -0.12264E-03   -0.12264E-03   688   0.116E-03 0.116E-06
CGA:  10    -0.487647959921E+03   -0.37104E-04   -0.37091E-04   688   0.376E-04 0.404E-06
 234 F= -.49135068E+03 E0= -.49135008E+03  d E =-.725904E-02  mag=     1.9975
       N       E                     dE             d eps       ncg     rms          ort
SDA:   1    -0.486674874632E+03    0.97305E+00    0.00000E+00   688   0.275E+01 0.000E+00
CGA:   2    -0.487407842229E+03   -0.73297E+00   -0.73297E+00   688   0.748E+00-0.589E-04
CGA:   3    -0.487599995343E+03   -0.19215E+00   -0.19218E+00   688   0.196E+00 0.278E-03
CGA:   4    -0.487639342216E+03   -0.39347E-01   -0.39333E-01   688   0.389E-01 0.165E-04
CGA:   5    -0.487648494574E+03   -0.91524E-02   -0.91524E-02   688   0.102E-01-0.294E-05
CGA:   6    -0.487651094073E+03   -0.25995E-02   -0.25994E-02   688   0.345E-02-0.356E-05
CGA:   7    -0.487652182082E+03   -0.10880E-02   -0.10879E-02   688   0.155E-02 0.259E-05
CGA:   8    -0.487652687210E+03   -0.50513E-03   -0.50512E-03   688   0.634E-03 0.438E-07
CGA:   9    -0.487652886416E+03   -0.19921E-03   -0.19921E-03   688   0.204E-03 0.109E-07
CGA:  10    -0.487652949728E+03   -0.63312E-04   -0.63292E-04   688   0.638E-04 0.859E-06
 235 F= -.49135599E+03 E0= -.49135550E+03  d E =-.530836E-02  mag=     1.9980
       N       E                     dE             d eps       ncg     rms          ort
SDA:   1    -0.487490394930E+03    0.16249E+00    0.00000E+00   688   0.459E+00 0.000E+00
CGA:   2    -0.487612498123E+03   -0.12210E+00   -0.12210E+00   688   0.124E+00-0.154E-04
CGA:   3    -0.487644532186E+03   -0.32034E-01   -0.32035E-01   688   0.326E-01 0.465E-05
CGA:   4    -0.487651089569E+03   -0.65574E-02   -0.65569E-02   688   0.637E-02 0.680E-05
CGA:   5    -0.487652610361E+03   -0.15208E-02   -0.15207E-02   688   0.161E-02-0.287E-05
CGA:   6    -0.487653035948E+03   -0.42559E-03   -0.42556E-03   688   0.556E-03-0.181E-05
CGA:   7    -0.487653214086E+03   -0.17814E-03   -0.17810E-03   688   0.258E-03 0.891E-06
CGA:   8    -0.487653297678E+03   -0.83592E-04   -0.83603E-04   688   0.108E-03-0.289E-06
 236 F= -.49135646E+03 E0= -.49135601E+03  d E =-.578030E-02  mag=     1.9981
       N       E                     dE             d eps       ncg     rms          ort
SDA:   1    -0.487098122004E+03    0.55509E+00    0.00000E+00   688   0.158E+01 0.000E+00
CGA:   2    -0.487516845557E+03   -0.41872E+00   -0.41871E+00   688   0.428E+00-0.317E-03
CGA:   3    -0.487626834062E+03   -0.10999E+00   -0.11000E+00   688   0.111E+00 0.140E-03
CGA:   4    -0.487649623275E+03   -0.22789E-01   -0.22785E-01   688   0.216E-01 0.121E-04
CGA:   5    -0.487654736345E+03   -0.51131E-02   -0.51130E-02   688   0.594E-02-0.259E-05
CGA:   6    -0.487656225060E+03   -0.14887E-02   -0.14887E-02   688   0.209E-02-0.219E-05
CGA:   7    -0.487656870526E+03   -0.64547E-03   -0.64540E-03   688   0.978E-03 0.208E-05
CGA:   8    -0.487657179164E+03   -0.30864E-03   -0.30863E-03   688   0.412E-03 0.171E-06
CGA:   9    -0.487657306417E+03   -0.12725E-03   -0.12726E-03   688   0.129E-03-0.314E-06
CGA:  10    -0.487657346628E+03   -0.40211E-04   -0.40193E-04   688   0.382E-04 0.555E-06
 237 F= -.49136058E+03 E0= -.49136021E+03  d E =-.411640E-02  mag=     1.9985
       N       E                     dE             d eps       ncg     rms          ort
SDA:   1    -0.487552873340E+03    0.10443E+00    0.00000E+00   688   0.296E+00 0.000E+00
CGA:   2    -0.487631398736E+03   -0.78525E-01   -0.78524E-01   688   0.803E-01-0.336E-04
CGA:   3    -0.487652041056E+03   -0.20642E-01   -0.20643E-01   688   0.207E-01 0.135E-05
CGA:   4    -0.487656316632E+03   -0.42756E-02   -0.42757E-02   688   0.398E-02 0.725E-05
CGA:   5    -0.487657275053E+03   -0.95842E-03   -0.95837E-03   688   0.104E-02-0.135E-05
CGA:   6    -0.487657545194E+03   -0.27014E-03   -0.27012E-03   688   0.366E-03-0.129E-05
CGA:   7    -0.487657661306E+03   -0.11611E-03   -0.11607E-03   688   0.175E-03 0.962E-06
CGA:   8    -0.487657716481E+03   -0.55176E-04   -0.55183E-04   688   0.764E-04-0.215E-06
 238 F= -.49136097E+03 E0= -.49136063E+03  d E =-.450857E-02  mag=     1.9986
       N       E                     dE             d eps       ncg     rms          ort
SDA:   1    -0.487383019724E+03    0.27464E+00    0.00000E+00   688   0.780E+00 0.000E+00
CGA:   2    -0.487592040851E+03   -0.20902E+00   -0.20902E+00   688   0.211E+00-0.510E-04
CGA:   3    -0.487646428019E+03   -0.54387E-01   -0.54389E-01   688   0.545E-01 0.261E-04
CGA:   4    -0.487657542160E+03   -0.11114E-01   -0.11113E-01   688   0.105E-01 0.793E-05
CGA:   5    -0.487660068177E+03   -0.25260E-02   -0.25259E-02   688   0.278E-02-0.277E-05
CGA:   6    -0.487660778316E+03   -0.71014E-03   -0.71009E-03   688   0.102E-02-0.272E-05
CGA:   7    -0.487661082485E+03   -0.30417E-03   -0.30414E-03   688   0.485E-03 0.116E-05
CGA:   8    -0.487661231984E+03   -0.14950E-03   -0.14951E-03   688   0.204E-03-0.203E-06
CGA:   9    -0.487661295298E+03   -0.63314E-04   -0.63328E-04   688   0.640E-04-0.401E-06
 239 F= -.49136436E+03 E0= -.49136402E+03  d E =-.339057E-02  mag=     1.9986
       N       E                     dE             d eps       ncg     rms          ort
SDA:   1    -0.487226235859E+03    0.43500E+00    0.00000E+00   688   0.122E+01 0.000E+00
CGA:   2    -0.487554231570E+03   -0.32800E+00   -0.32799E+00   688   0.332E+00-0.869E-04
CGA:   3    -0.487639662530E+03   -0.85431E-01   -0.85435E-01   688   0.853E-01 0.668E-04
CGA:   4    -0.487657075402E+03   -0.17413E-01   -0.17410E-01   688   0.166E-01 0.730E-05
CGA:   5    -0.487661032803E+03   -0.39574E-02   -0.39573E-02   688   0.439E-02-0.244E-05
CGA:   6    -0.487662161465E+03   -0.11287E-02   -0.11286E-02   688   0.152E-02-0.378E-05
CGA:   7    -0.487662645956E+03   -0.48449E-03   -0.48440E-03   688   0.694E-03 0.190E-05
CGA:   8    -0.487662873145E+03   -0.22719E-03   -0.22722E-03   688   0.292E-03-0.634E-06
CGA:   9    -0.487662963017E+03   -0.89871E-04   -0.89877E-04   688   0.951E-04-0.175E-06
 240 F= -.49136578E+03 E0= -.49136543E+03  d E =-.481148E-02  mag=     1.9986
       N       E                     dE             d eps       ncg     rms          ort
SDA:   1    -0.487525498860E+03    0.13737E+00    0.00000E+00   688   0.389E+00 0.000E+00
CGA:   2    -0.487630313574E+03   -0.10481E+00   -0.10481E+00   688   0.107E+00-0.272E-05
CGA:   3    -0.487657737094E+03   -0.27424E-01   -0.27424E-01   688   0.273E-01 0.269E-05
CGA:   4    -0.487663251204E+03   -0.55141E-02   -0.55140E-02   688   0.546E-02 0.502E-05
CGA:   5    -0.487664512540E+03   -0.12613E-02   -0.12613E-02   688   0.148E-02-0.191E-05
CGA:   6    -0.487664881471E+03   -0.36893E-03   -0.36889E-03   688   0.523E-03-0.195E-05
CGA:   7    -0.487665037937E+03   -0.15647E-03   -0.15645E-03   688   0.248E-03 0.547E-06
CGA:   8    -0.487665114750E+03   -0.76813E-04   -0.76814E-04   688   0.106E-03-0.551E-07
 241 F= -.49136793E+03 E0= -.49136761E+03  d E =-.214694E-02  mag=     1.9987
       N       E                     dE             d eps       ncg     rms          ort
SDA:   1    -0.487463171111E+03    0.20187E+00    0.00000E+00   688   0.565E+00 0.000E+00
CGA:   2    -0.487615388222E+03   -0.15222E+00   -0.15222E+00   688   0.155E+00-0.169E-05
CGA:   3    -0.487655100241E+03   -0.39712E-01   -0.39713E-01   688   0.404E-01 0.115E-04
CGA:   4    -0.487663191878E+03   -0.80916E-02   -0.80912E-02   688   0.796E-02 0.709E-05
CGA:   5    -0.487665078194E+03   -0.18863E-02   -0.18862E-02   688   0.210E-02-0.282E-05
CGA:   6    -0.487665620443E+03   -0.54225E-03   -0.54223E-03   688   0.739E-03-0.195E-05
CGA:   7    -0.487665846697E+03   -0.22625E-03   -0.22623E-03   688   0.356E-03 0.649E-06
CGA:   8    -0.487665954619E+03   -0.10792E-03   -0.10793E-03   688   0.154E-03-0.134E-06
CGA:   9    -0.487666001305E+03   -0.46686E-04   -0.46688E-04   688   0.492E-04-0.842E-07
 242 F= -.49136880E+03 E0= -.49136852E+03  d E =-.301828E-02  mag=     1.9989
       N       E                     dE             d eps       ncg     rms          ort
SDA:   1    -0.487599126668E+03    0.66828E-01    0.00000E+00   688   0.192E+00 0.000E+00
CGA:   2    -0.487650521169E+03   -0.51395E-01   -0.51394E-01   688   0.523E-01-0.120E-04
CGA:   3    -0.487663917262E+03   -0.13396E-01   -0.13396E-01   688   0.133E-01-0.151E-05
CGA:   4    -0.487666656912E+03   -0.27396E-02   -0.27399E-02   688   0.263E-02 0.633E-05
CGA:   5    -0.487667260509E+03   -0.60360E-03   -0.60356E-03   688   0.732E-03-0.928E-06
CGA:   6    -0.487667440636E+03   -0.18013E-03   -0.18011E-03   688   0.247E-03-0.586E-06
CGA:   7    -0.487667519614E+03   -0.78977E-04   -0.78945E-04   688   0.113E-03 0.629E-06
 243 F= -.49137027E+03 E0= -.49137002E+03  d E =-.147629E-02  mag=     1.9990
       N       E                     dE             d eps       ncg     rms          ort
SDA:   1    -0.487552253927E+03    0.11519E+00    0.00000E+00   688   0.325E+00 0.000E+00
CGA:   2    -0.487639461562E+03   -0.87208E-01   -0.87207E-01   688   0.886E-01-0.294E-04
CGA:   3    -0.487662202413E+03   -0.22741E-01   -0.22741E-01   688   0.226E-01 0.449E-05
CGA:   4    -0.487666841736E+03   -0.46393E-02   -0.46394E-02   688   0.446E-02 0.763E-05
CGA:   5    -0.487667908288E+03   -0.10666E-02   -0.10665E-02   688   0.121E-02-0.804E-06
CGA:   6    -0.487668217277E+03   -0.30899E-03   -0.30898E-03   688   0.442E-03-0.941E-06
CGA:   7    -0.487668351712E+03   -0.13443E-03   -0.13440E-03   688   0.217E-03 0.838E-06
CGA:   8    -0.487668418771E+03   -0.67059E-04   -0.67057E-04   688   0.913E-04 0.611E-07
 244 F= -.49137111E+03 E0= -.49137088E+03  d E =-.231458E-02  mag=     1.9991
       N       E                     dE             d eps       ncg     rms          ort
SDA:   1    -0.487638476142E+03    0.29876E-01    0.00000E+00   688   0.870E-01 0.000E+00
CGA:   2    -0.487662184543E+03   -0.23708E-01   -0.23708E-01   688   0.237E-01-0.364E-05
CGA:   3    -0.487668280861E+03   -0.60963E-02   -0.60963E-02   688   0.590E-02-0.192E-05
CGA:   4    -0.487669498376E+03   -0.12175E-02   -0.12177E-02   688   0.113E-02 0.292E-05
CGA:   5    -0.487669772482E+03   -0.27411E-03   -0.27407E-03   688   0.318E-03-0.150E-05
CGA:   6    -0.487669850422E+03   -0.77940E-04   -0.77935E-04   688   0.125E-03-0.255E-06
 245 F= -.49137247E+03 E0= -.49137223E+03  d E =-.135620E-02  mag=     1.9991
       N       E                     dE             d eps       ncg     rms          ort
SDA:   1    -0.487504931658E+03    0.16484E+00    0.00000E+00   688   0.462E+00 0.000E+00
CGA:   2    -0.487630524695E+03   -0.12559E+00   -0.12559E+00   688   0.126E+00-0.244E-04
CGA:   3    -0.487662999319E+03   -0.32475E-01   -0.32475E-01   688   0.306E-01 0.848E-05
CGA:   4    -0.487669388108E+03   -0.63888E-02   -0.63888E-02   688   0.640E-02 0.517E-05
CGA:   5    -0.487670852856E+03   -0.14647E-02   -0.14647E-02   688   0.187E-02-0.243E-05
CGA:   6    -0.487671295504E+03   -0.44265E-03   -0.44262E-03   688   0.687E-03-0.105E-05
CGA:   7    -0.487671499453E+03   -0.20395E-03   -0.20391E-03   688   0.318E-03 0.100E-05
CGA:   8    -0.487671604681E+03   -0.10523E-03   -0.10522E-03   688   0.129E-03 0.182E-06
CGA:   9    -0.487671646787E+03   -0.42106E-04   -0.42102E-04   688   0.400E-04 0.804E-07
 246 F= -.49137408E+03 E0= -.49137383E+03  d E =-.297225E-02  mag=     1.9990
       N       E                     dE             d eps       ncg     rms          ort
SDA:   1    -0.487632861689E+03    0.38743E-01    0.00000E+00   688   0.111E+00 0.000E+00
CGA:   2    -0.487663300291E+03   -0.30439E-01   -0.30439E-01   688   0.305E-01-0.410E-05
CGA:   3    -0.487671187206E+03   -0.78869E-02   -0.78869E-02   688   0.733E-02-0.128E-06
CGA:   4    -0.487672704932E+03   -0.15177E-02   -0.15178E-02   688   0.150E-02 0.203E-05
CGA:   5    -0.487673042603E+03   -0.33767E-03   -0.33762E-03   688   0.430E-03-0.132E-05
CGA:   6    -0.487673144654E+03   -0.10205E-03   -0.10204E-03   688   0.153E-03-0.426E-06
CGA:   7    -0.487673189900E+03   -0.45246E-04   -0.45231E-04   688   0.706E-04 0.453E-06
 247 F= -.49137559E+03 E0= -.49137534E+03  d E =-.150949E-02  mag=     1.9990
