 vasp.5.4.4.18Apr17-6-g9f103f2a35 (build Jan 14 2022 15:04:31) complex          
  
 executed on             LinuxIFC date 2023.01.27  22:53:26
 running on   48 total cores
 distrk:  each k-point on   48 cores,    1 groups
 distr:  one band on NCORES_PER_BAND=  12 cores,    4 groups


--------------------------------------------------------------------------------------------------------


 INCAR:
 POTCAR:    PAW_PBE C 08Apr2002                   
 POTCAR:    PAW_PBE N 08Apr2002                   
 POTCAR:    PAW_PBE C 08Apr2002                   
 POTCAR:    PAW_PBE Cr_pv 02Aug2007               
 POTCAR:    PAW_PBE C 08Apr2002                   
 POTCAR:    PAW_PBE O 08Apr2002                   
 POTCAR:    PAW_PBE C 08Apr2002                   
   SHA256 =  253f7b50bb8d59471dbedb8285d89021f4a42ed1a2c5d38a03a736e69125dd95 C/
   COPYR  = (c) Copyright 08Apr2002 Georg Kresse                                
   COPYR  = This file is part of the software VASP. Any use, copying, and all ot
   COPYR  = If you do not have a valid VASP license, you may not use, copy or di
   VRHFIN =C: s2p2                                                              
   LEXCH  = PE                                                                  
   EATOM  =   147.1560 eV,   10.8157 Ry                                         
                                                                                
   TITEL  = PAW_PBE C 08Apr2002                                                 
   LULTRA =        F    use ultrasoft PP ?                                      
   IUNSCR =        1    unscreen: 0-lin 1-nonlin 2-no                           
   RPACOR =    1.200    partial core radius                                     
   POMASS =   12.011; ZVAL   =    4.000    mass and valenz                      
   RCORE  =    1.500    outmost cutoff radius                                   
   RWIGS  =    1.630; RWIGS  =    0.863    wigner-seitz radius (au A)           
   ENMAX  =  400.000; ENMIN  =  300.000 eV                                      
   ICORE  =        2    local potential                                         
   LCOR   =        T    correct aug charges                                     
   LPAW   =        T    paw PP                                                  
   EAUG   =  644.873                                                            
   DEXC   =    0.000                                                            
   RMAX   =    1.529    core radius for proj-oper                               
   RAUG   =    1.300    factor for augmentation sphere                          
   RDEP   =    1.501    radius for radial grids                                 
   RDEPT  =    1.300    core radius for aug-charge                              
                                                                                
   Atomic configuration                                                         
    4 entries                                                                   
     n  l   j            E        occ.                                          
     1  0  0.50      -273.3789   2.0000                                         
     2  0  0.50       -13.7508   2.0000                                         
     2  1  0.50        -5.2854   2.0000                                         
     3  2  1.50        -5.4423   0.0000                                         
   Description                                                                  
     l       E           TYP  RCUT    TYP  RCUT                                 
     0    -13.7508458     23  1.200                                             
     0     -8.2022199     23  1.200                                             
     1     -5.2854383     23  1.500                                             
     1     34.0145650     23  1.500                                             
     2     -5.4423304      7  1.500                                             
  local pseudopotential read in
  partial core-charges read in
  partial kinetic energy density read in
  atomic valenz-charges read in
  non local Contribution for L=           0  read in
    real space projection operators read in
  non local Contribution for L=           0  read in
    real space projection operators read in
  non local Contribution for L=           1  read in
    real space projection operators read in
  non local Contribution for L=           1  read in
    real space projection operators read in
    PAW grid and wavefunctions read in
 
   number of l-projection  operators is LMAX  =           4
   number of lm-projection operators is LMMAX =           8
 
 POTCAR:    PAW_PBE N 08Apr2002                   
   SHA256 =  e053789ff3a61a86a1b75d8a110fcc91f86041011e7b0817c7c99e4e8a6349d7 N/
   COPYR  = (c) Copyright 08Apr2002 Georg Kresse                                
   COPYR  = This file is part of the software VASP. Any use, copying, and all ot
   COPYR  = If you do not have a valid VASP license, you may not use, copy or di
   VRHFIN =N: s2p3                                                              
   LEXCH  = PE                                                                  
   EATOM  =   264.5486 eV,   19.4438 Ry                                         
                                                                                
   TITEL  = PAW_PBE N 08Apr2002                                                 
   LULTRA =        F    use ultrasoft PP ?                                      
   IUNSCR =        1    unscreen: 0-lin 1-nonlin 2-no                           
   RPACOR =    1.200    partial core radius                                     
   POMASS =   14.001; ZVAL   =    5.000    mass and valenz                      
   RCORE  =    1.500    outmost cutoff radius                                   
   RWIGS  =    1.400; RWIGS  =    0.741    wigner-seitz radius (au A)           
   ENMAX  =  400.000; ENMIN  =  300.000 eV                                      
   ICORE  =        2    local potential                                         
   LCOR   =        T    correct aug charges                                     
   LPAW   =        T    paw PP                                                  
   EAUG   =  627.112                                                            
   DEXC   =    0.000                                                            
   RMAX   =    1.529    core radius for proj-oper                               
   RAUG   =    1.300    factor for augmentation sphere                          
   RDEP   =    1.514    radius for radial grids                                 
   RDEPT  =    1.338    core radius for aug-charge                              
                                                                                
   Atomic configuration                                                         
    4 entries                                                                   
     n  l   j            E        occ.                                          
     1  0  0.50      -384.7179   2.0000                                         
     2  0  0.50       -18.5828   2.0000                                         
     2  1  0.50        -7.0898   3.0000                                         
     3  2  1.50        -6.8029   0.0000                                         
   Description                                                                  
     l       E           TYP  RCUT    TYP  RCUT                                 
     0    -18.5828119     23  1.200                                             
     0    -13.5018863     23  1.200                                             
     1     -7.0897853     23  1.500                                             
     1      9.5240782     23  1.500                                             
     2     -6.8029130      7  1.500                                             
  local pseudopotential read in
  partial core-charges read in
  partial kinetic energy density read in
  atomic valenz-charges read in
  non local Contribution for L=           0  read in
    real space projection operators read in
  non local Contribution for L=           0  read in
    real space projection operators read in
  non local Contribution for L=           1  read in
    real space projection operators read in
  non local Contribution for L=           1  read in
    real space projection operators read in
    PAW grid and wavefunctions read in
 
   number of l-projection  operators is LMAX  =           4
   number of lm-projection operators is LMMAX =           8
 
 POTCAR:    PAW_PBE C 08Apr2002                   
   SHA256 =  253f7b50bb8d59471dbedb8285d89021f4a42ed1a2c5d38a03a736e69125dd95 C/
   COPYR  = (c) Copyright 08Apr2002 Georg Kresse                                
   COPYR  = This file is part of the software VASP. Any use, copying, and all ot
   COPYR  = If you do not have a valid VASP license, you may not use, copy or di
   VRHFIN =C: s2p2                                                              
   LEXCH  = PE                                                                  
   EATOM  =   147.1560 eV,   10.8157 Ry                                         
                                                                                
   TITEL  = PAW_PBE C 08Apr2002                                                 
   LULTRA =        F    use ultrasoft PP ?                                      
   IUNSCR =        1    unscreen: 0-lin 1-nonlin 2-no                           
   RPACOR =    1.200    partial core radius                                     
   POMASS =   12.011; ZVAL   =    4.000    mass and valenz                      
   RCORE  =    1.500    outmost cutoff radius                                   
   RWIGS  =    1.630; RWIGS  =    0.863    wigner-seitz radius (au A)           
   ENMAX  =  400.000; ENMIN  =  300.000 eV                                      
   ICORE  =        2    local potential                                         
   LCOR   =        T    correct aug charges                                     
   LPAW   =        T    paw PP                                                  
   EAUG   =  644.873                                                            
   DEXC   =    0.000                                                            
   RMAX   =    1.529    core radius for proj-oper                               
   RAUG   =    1.300    factor for augmentation sphere                          
   RDEP   =    1.501    radius for radial grids                                 
   RDEPT  =    1.300    core radius for aug-charge                              
                                                                                
   Atomic configuration                                                         
    4 entries                                                                   
     n  l   j            E        occ.                                          
     1  0  0.50      -273.3789   2.0000                                         
     2  0  0.50       -13.7508   2.0000                                         
     2  1  0.50        -5.2854   2.0000                                         
     3  2  1.50        -5.4423   0.0000                                         
   Description                                                                  
     l       E           TYP  RCUT    TYP  RCUT                                 
     0    -13.7508458     23  1.200                                             
     0     -8.2022199     23  1.200                                             
     1     -5.2854383     23  1.500                                             
     1     34.0145650     23  1.500                                             
     2     -5.4423304      7  1.500                                             
  local pseudopotential read in
  partial core-charges read in
  partial kinetic energy density read in
  atomic valenz-charges read in
  non local Contribution for L=           0  read in
    real space projection operators read in
  non local Contribution for L=           0  read in
    real space projection operators read in
  non local Contribution for L=           1  read in
    real space projection operators read in
  non local Contribution for L=           1  read in
    real space projection operators read in
    PAW grid and wavefunctions read in
 
   number of l-projection  operators is LMAX  =           4
   number of lm-projection operators is LMMAX =           8
 
 POTCAR:    PAW_PBE Cr_pv 02Aug2007               
   SHA256 =  c9a7df34d3cdbacf1090e328ef39c0b420964e11c23f63548d1ac9dd218cdba0 Cr
   COPYR  = (c) Copyright 02Aug2007 Georg Kresse                                
   COPYR  = This file is part of the software VASP. Any use, copying, and all ot
   COPYR  = If you do not have a valid VASP license, you may not use, copy or di
   VRHFIN =Cr : p6d5s1                                                          
   LEXCH  = PE                                                                  
   EATOM  =  1647.9177 eV,  121.1185 Ry                                         
                                                                                
   TITEL  = PAW_PBE Cr_pv 02Aug2007                                             
   LULTRA =        F    use ultrasoft PP ?                                      
   IUNSCR =        1    unscreen: 0-lin 1-nonlin 2-no                           
   RPACOR =    2.080    partial core radius                                     
   POMASS =   51.996; ZVAL   =   12.000    mass and valenz                      
   RCORE  =    2.300    outmost cutoff radius                                   
   RWIGS  =    2.500; RWIGS  =    1.323    wigner-seitz radius (au A)           
   ENMAX  =  265.681; ENMIN  =  199.261 eV                                      
   ICORE  =        3    local potential                                         
   LCOR   =        T    correct aug charges                                     
   LPAW   =        T    paw PP                                                  
   EAUG   =  519.424                                                            
   DEXC   =    0.000                                                            
   RMAX   =    2.356    core radius for proj-oper                               
   RAUG   =    1.300    factor for augmentation sphere                          
   RDEP   =    2.447    radius for radial grids                                 
   RDEPT  =    1.882    core radius for aug-charge                              
                                                                                
   Atomic configuration                                                         
    8 entries                                                                   
     n  l   j            E        occ.                                          
     1  0  0.50     -5880.4963   2.0000                                         
     2  0  0.50      -667.0865   2.0000                                         
     2  1  1.50      -560.6250   6.0000                                         
     3  0  0.50       -73.9860   2.0000                                         
     3  1  1.50       -45.4378   6.0000                                         
     3  2  2.50        -2.9137   5.0000                                         
     4  0  0.50        -4.0071   1.0000                                         
     4  3  2.50        -1.3606   0.0000                                         
   Description                                                                  
     l       E           TYP  RCUT    TYP  RCUT                                 
     1    -45.4377911     23  2.000                                             
     1      1.3605826     23  2.000                                             
     2     -2.9136672     23  2.300                                             
     2     -4.2742498     23  2.300                                             
     0     -4.0071320     23  2.300                                             
     0      9.4498803     23  2.300                                             
     3      2.7211652     23  2.300                                             
  local pseudopotential read in
  partial core-charges read in
  partial kinetic energy density read in
  atomic valenz-charges read in
  non local Contribution for L=           1  read in
    real space projection operators read in
  non local Contribution for L=           1  read in
    real space projection operators read in
  non local Contribution for L=           2  read in
    real space projection operators read in
  non local Contribution for L=           2  read in
    real space projection operators read in
  non local Contribution for L=           0  read in
    real space projection operators read in
  non local Contribution for L=           0  read in
    real space projection operators read in
    PAW grid and wavefunctions read in
 
   number of l-projection  operators is LMAX  =           6
   number of lm-projection operators is LMMAX =          18
 
 POTCAR:    PAW_PBE C 08Apr2002                   
   SHA256 =  253f7b50bb8d59471dbedb8285d89021f4a42ed1a2c5d38a03a736e69125dd95 C/
   COPYR  = (c) Copyright 08Apr2002 Georg Kresse                                
   COPYR  = This file is part of the software VASP. Any use, copying, and all ot
   COPYR  = If you do not have a valid VASP license, you may not use, copy or di
   VRHFIN =C: s2p2                                                              
   LEXCH  = PE                                                                  
   EATOM  =   147.1560 eV,   10.8157 Ry                                         
                                                                                
   TITEL  = PAW_PBE C 08Apr2002                                                 
   LULTRA =        F    use ultrasoft PP ?                                      
   IUNSCR =        1    unscreen: 0-lin 1-nonlin 2-no                           
   RPACOR =    1.200    partial core radius                                     
   POMASS =   12.011; ZVAL   =    4.000    mass and valenz                      
   RCORE  =    1.500    outmost cutoff radius                                   
   RWIGS  =    1.630; RWIGS  =    0.863    wigner-seitz radius (au A)           
   ENMAX  =  400.000; ENMIN  =  300.000 eV                                      
   ICORE  =        2    local potential                                         
   LCOR   =        T    correct aug charges                                     
   LPAW   =        T    paw PP                                                  
   EAUG   =  644.873                                                            
   DEXC   =    0.000                                                            
   RMAX   =    1.529    core radius for proj-oper                               
   RAUG   =    1.300    factor for augmentation sphere                          
   RDEP   =    1.501    radius for radial grids                                 
   RDEPT  =    1.300    core radius for aug-charge                              
                                                                                
   Atomic configuration                                                         
    4 entries                                                                   
     n  l   j            E        occ.                                          
     1  0  0.50      -273.3789   2.0000                                         
     2  0  0.50       -13.7508   2.0000                                         
     2  1  0.50        -5.2854   2.0000                                         
     3  2  1.50        -5.4423   0.0000                                         
   Description                                                                  
     l       E           TYP  RCUT    TYP  RCUT                                 
     0    -13.7508458     23  1.200                                             
     0     -8.2022199     23  1.200                                             
     1     -5.2854383     23  1.500                                             
     1     34.0145650     23  1.500                                             
     2     -5.4423304      7  1.500                                             
  local pseudopotential read in
  partial core-charges read in
  partial kinetic energy density read in
  atomic valenz-charges read in
  non local Contribution for L=           0  read in
    real space projection operators read in
  non local Contribution for L=           0  read in
    real space projection operators read in
  non local Contribution for L=           1  read in
    real space projection operators read in
  non local Contribution for L=           1  read in
    real space projection operators read in
    PAW grid and wavefunctions read in
 
   number of l-projection  operators is LMAX  =           4
   number of lm-projection operators is LMMAX =           8
 
 POTCAR:    PAW_PBE O 08Apr2002                   
   SHA256 =  818f92134a0a090dccd8ba1447fa70422a3b330e708bb4f08108d8ae51209ddf O/
   COPYR  = (c) Copyright 08Apr2002 Georg Kresse                                
   COPYR  = This file is part of the software VASP. Any use, copying, and all ot
   COPYR  = If you do not have a valid VASP license, you may not use, copy or di
   VRHFIN =O: s2p4                                                              
   LEXCH  = PE                                                                  
   EATOM  =   432.3788 eV,   31.7789 Ry                                         
                                                                                
   TITEL  = PAW_PBE O 08Apr2002                                                 
   LULTRA =        F    use ultrasoft PP ?                                      
   IUNSCR =        1    unscreen: 0-lin 1-nonlin 2-no                           
   RPACOR =    1.200    partial core radius                                     
   POMASS =   16.000; ZVAL   =    6.000    mass and valenz                      
   RCORE  =    1.520    outmost cutoff radius                                   
   RWIGS  =    1.550; RWIGS  =    0.820    wigner-seitz radius (au A)           
   ENMAX  =  400.000; ENMIN  =  300.000 eV                                      
   ICORE  =        2    local potential                                         
   LCOR   =        T    correct aug charges                                     
   LPAW   =        T    paw PP                                                  
   EAUG   =  605.392                                                            
   DEXC   =    0.000                                                            
   RMAX   =    1.553    core radius for proj-oper                               
   RAUG   =    1.300    factor for augmentation sphere                          
   RDEP   =    1.550    radius for radial grids                                 
   RDEPT  =    1.329    core radius for aug-charge                              
                                                                                
   Atomic configuration                                                         
    4 entries                                                                   
     n  l   j            E        occ.                                          
     1  0  0.50      -514.6923   2.0000                                         
     2  0  0.50       -23.9615   2.0000                                         
     2  1  0.50        -9.0305   4.0000                                         
     3  2  1.50        -9.5241   0.0000                                         
   Description                                                                  
     l       E           TYP  RCUT    TYP  RCUT                                 
     0    -23.9615318     23  1.200                                             
     0     -9.5240782     23  1.200                                             
     1     -9.0304911     23  1.520                                             
     1      8.1634956     23  1.520                                             
     2     -9.5240782      7  1.500                                             
  local pseudopotential read in
  partial core-charges read in
  partial kinetic energy density read in
  kinetic energy density of atom read in
  atomic valenz-charges read in
  non local Contribution for L=           0  read in
    real space projection operators read in
  non local Contribution for L=           0  read in
    real space projection operators read in
  non local Contribution for L=           1  read in
    real space projection operators read in
  non local Contribution for L=           1  read in
    real space projection operators read in
    PAW grid and wavefunctions read in
 
   number of l-projection  operators is LMAX  =           4
   number of lm-projection operators is LMMAX =           8
 

 ----------------------------------------------------------------------------- 
|                                                                             |
|  ADVICE TO THIS USER RUNNING 'VASP/VAMP'   (HEAR YOUR MASTER'S VOICE ...):  |
|                                                                             |
|      You have a (more or less) 'large supercell' and for larger cells       |
|      it might be more efficient to use real space projection opertators     |
|      So try LREAL= Auto  in the INCAR   file.                               |
|      Mind:          For very  accurate calculation you might also keep the  |
|      reciprocal projection scheme          (i.e. LREAL=.FALSE.)             |
|                                                                             |
 ----------------------------------------------------------------------------- 

  PAW_PBE C 08Apr2002                   :
 energy of atom  1       EATOM= -147.1560
 kinetic energy error for atom=    0.0132 (will be added to EATOM!!)
  PAW_PBE N 08Apr2002                   :
 energy of atom  2       EATOM= -264.5486
 kinetic energy error for atom=    0.0298 (will be added to EATOM!!)
  PAW_PBE C 08Apr2002                   :
 energy of atom  3       EATOM= -147.1560
 kinetic energy error for atom=    0.0132 (will be added to EATOM!!)
  PAW_PBE Cr_pv 02Aug2007               :
 energy of atom  4       EATOM=-1647.9177
 kinetic energy error for atom=    0.0134 (will be added to EATOM!!)
  PAW_PBE C 08Apr2002                   :
 energy of atom  5       EATOM= -147.1560
 kinetic energy error for atom=    0.0132 (will be added to EATOM!!)
  PAW_PBE O 08Apr2002                   :
 energy of atom  6       EATOM= -432.3788
 kinetic energy error for atom=    0.0458 (will be added to EATOM!!)
 
 
 POSCAR: POSCAR-clean                            
  positions in direct lattice
  velocities in cartesian coordinates
 exchange correlation table for  LEXCH =        8
   RHO(1)=    0.500       N(1)  =     2000
   RHO(2)=  100.500       N(2)  =     4000

 VTST: version 3.2, (02/03/18)

 CHAIN: initializing optimizer
 
 OPT: Using VASP Dynamics algorithm
 CHAIN: Read ICHAIN            0
 
 POSCAR: POSCAR-clean                            
  positions in direct lattice
  velocities in cartesian coordinates
 


--------------------------------------------------------------------------------------------------------


 ion  position               nearest neighbor table
   1  0.999  0.999  0.492-  60 1.42   2 1.43  70 1.43
   2  0.055  0.111  0.492-  13 1.42   1 1.43  15 1.43
   3  0.167  0.001  0.492-  62 1.42   4 1.42  60 1.43
   4  0.223  0.113  0.492-   3 1.42  15 1.43  17 1.44
   5  0.334  0.002  0.492-   6 1.42  62 1.43  64 1.43
   6  0.389  0.114  0.494-   5 1.42  17 1.43  19 1.43
   7  0.500  0.001  0.490-  64 1.42   8 1.43  66 1.43
   8  0.556  0.113  0.492-   7 1.43  21 1.43  19 1.43
   9  0.666  0.999  0.489-  10 1.42  66 1.43  68 1.43
  10  0.722  0.110  0.490-   9 1.42  23 1.42  21 1.43
  11  0.832  0.998  0.492-  12 1.42  70 1.43  68 1.43
  12  0.888  0.110  0.491-  11 1.42  13 1.43  23 1.43
  13  0.999  0.166  0.491-  14 1.42   2 1.42  12 1.43
  14  0.054  0.277  0.492-  13 1.42  27 1.42  25 1.43
  15  0.166  0.167  0.492-  16 1.42   4 1.43   2 1.43
  16  0.222  0.279  0.491-  15 1.42  27 1.43  29 1.44
  17  0.334  0.170  0.494-  18 1.43   6 1.43   4 1.44
  18  0.391  0.282  0.497-  17 1.43  29 1.43  31 1.44
  19  0.501  0.170  0.495-   6 1.43  20 1.43   8 1.43
  20  0.556  0.281  0.499-  33 1.43  19 1.43  31 1.45
  21  0.666  0.167  0.492-  22 1.42   8 1.43  10 1.43
  22  0.722  0.278  0.494-  21 1.42  33 1.42  35 1.43
  23  0.833  0.166  0.491-  24 1.42  10 1.42  12 1.43
  24  0.888  0.278  0.491-  25 1.42  23 1.42  35 1.43
  25  0.999  0.333  0.492-  26 1.42  24 1.42  14 1.43
  26  0.055  0.444  0.493-  39 1.42  25 1.42  37 1.42
  27  0.165  0.333  0.492-  28 1.42  14 1.42  16 1.43
  28  0.220  0.444  0.494-  41 1.42  27 1.42  39 1.42
  29  0.334  0.336  0.492-  30 1.40  18 1.43  16 1.44
  30  0.387  0.446  0.492-  29 1.40  41 1.42  71 1.91
  31  0.503  0.340  0.504-  18 1.44  32 1.44  20 1.45
  32  0.560  0.452  0.514-  43 1.43  31 1.44  71 2.03
  33  0.667  0.334  0.498-  34 1.42  22 1.42  20 1.43
  34  0.724  0.445  0.501-  43 1.40  33 1.42  45 1.42
  35  0.833  0.334  0.493-  36 1.42  24 1.43  22 1.43
  36  0.889  0.445  0.494-  37 1.42  35 1.42  45 1.42
  37  1.000  0.500  0.493-  36 1.42  38 1.42  26 1.42
  38  0.055  0.612  0.493-  37 1.42  49 1.42  47 1.43
  39  0.165  0.500  0.494-  26 1.42  40 1.42  28 1.42
  40  0.221  0.612  0.493-  51 1.42  49 1.42  39 1.42
  41  0.330  0.500  0.490-  28 1.42  30 1.42  42 1.44  71 2.52
  42  0.387  0.613  0.488-  53 1.42  51 1.42  41 1.44  71 2.52
  43  0.671  0.501  0.508-  34 1.40  44 1.42  32 1.43
  44  0.727  0.613  0.508-  57 1.40  55 1.41  43 1.42
  45  0.834  0.501  0.497-  46 1.42  34 1.42  36 1.42
  46  0.890  0.612  0.497-  57 1.41  45 1.42  47 1.42
  47  0.000  0.668  0.494-  46 1.42  48 1.42  38 1.43
  48  0.056  0.779  0.493-  47 1.42  61 1.42  59 1.42
  49  0.166  0.668  0.492-  50 1.42  40 1.42  38 1.42
  50  0.222  0.779  0.491-  49 1.42  61 1.42  63 1.42
  51  0.331  0.668  0.492-  52 1.42  42 1.42  40 1.42
  52  0.388  0.779  0.489-  51 1.42  63 1.43  65 1.43
  53  0.497  0.666  0.484-  54 1.40  42 1.42  71 1.93
  54  0.554  0.776  0.487-  53 1.40  67 1.43  65 1.44
  55  0.666  0.661  0.513-  44 1.41  56 1.43  71 2.04
  56  0.719  0.772  0.501-  55 1.43  67 1.44  69 1.44
  57  0.835  0.667  0.500-  44 1.40  58 1.40  46 1.41
  58  0.889  0.777  0.497-  57 1.40  59 1.42  69 1.42
  59  1.000  0.833  0.494-  48 1.42  58 1.42  60 1.42
  60  0.055  0.945  0.492-   1 1.42  59 1.42   3 1.43
  61  0.167  0.835  0.492-  48 1.42  62 1.42  50 1.42
  62  0.223  0.946  0.491-  61 1.42   3 1.42   5 1.43
  63  0.333  0.835  0.490-  64 1.42  50 1.42  52 1.43
  64  0.389  0.946  0.490-  63 1.42   7 1.42   5 1.43
  65  0.499  0.833  0.487-  66 1.42  52 1.43  54 1.44
  66  0.555  0.945  0.489-  65 1.42   9 1.43   7 1.43
  67  0.665  0.830  0.493-  68 1.42  54 1.43  56 1.44
  68  0.721  0.942  0.491-  67 1.42  11 1.43   9 1.43
  69  0.831  0.830  0.497-  58 1.42  70 1.43  56 1.44
  70  0.887  0.942  0.493-   1 1.43  11 1.43  69 1.43
  71  0.513  0.557  0.540-  72 1.90  30 1.91  53 1.93  32 2.03  55 2.04  41 2.52  42 2.52
  72  0.522  0.521  0.659-  73 1.17  71 1.90
  73  0.526  0.503  0.734-  72 1.17
 

IMPORTANT INFORMATION: All symmetrisations will be switched off!
NOSYMM: (Re-)initialisation of all symmetry stuff for point group C_1.

 
 
 KPOINTS: K-Points                                

Automatic generation of k-mesh.
Space group operators:
 irot       det(A)        alpha          n_x          n_y          n_z        tau_x        tau_y        tau_z
    1     1.000000     0.000001     1.000000     0.000000     0.000000     0.000000     0.000000     0.000000
 
 Subroutine IBZKPT returns following result:
 ===========================================
 
 Found      5 irreducible k-points:
 
 Following reciprocal coordinates:
            Coordinates               Weight
  0.000000  0.000000  0.000000      1.000000
  0.333333  0.000000  0.000000      2.000000
  0.000000  0.333333  0.000000      2.000000
  0.333333  0.333333  0.000000      2.000000
 -0.333333  0.333333  0.000000      2.000000
 
 Following cartesian coordinates:
            Coordinates               Weight
  0.000000  0.000000  0.000000      1.000000
  0.022421  0.013071  0.000000      2.000000
 -0.000006  0.026142  0.000000      2.000000
  0.022415  0.039213  0.000000      2.000000
 -0.022427  0.013071  0.000000      2.000000
 
 TETIRR: Found     24 inequivalent tetrahedra from       54


--------------------------------------------------------------------------------------------------------




 Dimension of arrays:
   k-points           NKPTS =      5   k-points in BZ     NKDIM =      5   number of bands    NBANDS=    192
   number of dos      NEDOS =   4000   number of ions     NIONS =     73
   non local maximal  LDIM  =      6   non local SUM 2l+1 LMDIM =     18
   total plane-waves  NPLWV = 512000
   max r-space proj   IRMAX =      1   max aug-charges    IRDMAX=   6465
   dimension x,y,z NGX =    80 NGY =   80 NGZ =   80
   dimension x,y,z NGXF=   160 NGYF=  160 NGZF=  160
   support grid    NGXF=   160 NGYF=  160 NGZF=  160
   ions per type =              56   1  13   1   1   1
   NGX,Y,Z   is equivalent  to a cutoff of   8.95,  9.01,  8.87 a.u.
   NGXF,Y,Z  is equivalent  to a cutoff of  17.89, 18.02, 17.73 a.u.

 SYSTEM =  unknown system                          
 POSCAR =  POSCAR-clean                            

 Startparameter for this run:
   NWRITE =      2    write-flag & timer
   PREC   = normal    normal or accurate (medium, high low for compatibility)
   ISTART =      0    job   : 0-new  1-cont  2-samecut
   ICHARG =      2    charge: 1-file 2-atom 10-const
   ISPIN  =      2    spin polarized calculation?
   LNONCOLLINEAR =      F non collinear calculations
   LSORBIT =      F    spin-orbit coupling
   INIWAV =      1    electr: 0-lowe 1-rand  2-diag
   LASPH  =      F    aspherical Exc in radial PAW
   METAGGA=      F    non-selfconsistent MetaGGA calc.

 Electronic Relaxation 1
   ENCUT  =  440.0 eV  32.34 Ry    5.69 a.u.  25.42 25.24 25.66*2*pi/ulx,y,z
   ENINI  =  440.0     initial cutoff
   ENAUG  =  644.9 eV  augmentation charge cutoff
   NELM   =    100;   NELMIN=  2; NELMDL= -5     # of ELM steps 
   EDIFF  = 0.1E-03   stopping-criterion for ELM
   LREAL  =      F    real-space projection
   NLSPLINE    = F    spline interpolate recip. space projectors
   LCOMPAT=      F    compatible to vasp.4.4
   GGA_COMPAT  = T    GGA compatible to vasp.4.4-vasp.4.6
   LMAXPAW     = -100 max onsite density
   LMAXMIX     =    2 max onsite mixed and CHGCAR
   VOSKOWN=      0    Vosko Wilk Nusair interpolation
   ROPT   =    0.00000   0.00000   0.00000   0.00000
   ROPT   =    0.00000   0.00000
 Ionic relaxation
   EDIFFG = -.1E-01   stopping-criterion for IOM
   NSW    =      0    number of steps for IOM
   NBLOCK =      1;   KBLOCK =      1    inner block; outer block 
   IBRION =     -1    ionic relax: 0-MD 1-quasi-New 2-CG
   NFREE  =      0    steps in history (QN), initial steepest desc. (CG)
   ISIF   =      2    stress and relaxation
   IWAVPR =     10    prediction:  0-non 1-charg 2-wave 3-comb
   ISYM   =      0    0-nonsym 1-usesym 2-fastsym
   LCORR  =      T    Harris-Foulkes like correction to forces

   POTIM  = 0.5000    time-step for ionic-motion
   TEIN   =    0.0    initial temperature
   TEBEG  =    0.0;   TEEND  =   0.0 temperature during run
   SMASS  =  -3.00    Nose mass-parameter (am)
   estimated Nose-frequenzy (Omega)   =  0.10E-29 period in steps =****** mass=  -0.505E-26a.u.
   SCALEE = 1.0000    scale energy and forces
   NPACO  =    256;   APACO  = 16.0  distance and # of slots for P.C.
   PSTRESS=    0.0 pullay stress

  Mass of Ions in am
   POMASS =  12.01 14.00 12.01 52.00 12.01 16.00
  Ionic Valenz
   ZVAL   =   4.00  5.00  4.00 12.00  4.00  6.00
  Atomic Wigner-Seitz radii
   RWIGS  =  -1.00 -1.00 -1.00 -1.00 -1.00 -1.00
  virtual crystal weights 
   VCA    =   1.00  1.00  1.00  1.00  1.00  1.00
   NELECT =     303.0000    total number of electrons
   NUPDOWN=      -1.0000    fix difference up-down

 DOS related values:
   EMIN   = -14.00;   EMAX   =  6.00  energy-range for DOS
   EFERMI =   0.00
   ISMEAR =    -5;   SIGMA  =   0.20  broadening in eV -4-tet -1-fermi 0-gaus

 Electronic relaxation 2 (details)
   IALGO  =     38    algorithm
   LDIAG  =      T    sub-space diagonalisation (order eigenvalues)
   LSUBROT=      F    optimize rotation matrix (better conditioning)
   TURBO    =      0    0=normal 1=particle mesh
   IRESTART =      0    0=no restart 2=restart with 2 vectors
   NREBOOT  =      0    no. of reboots
   NMIN     =      0    reboot dimension
   EREF     =   0.00    reference energy to select bands
   IMIX   =      4    mixing-type and parameters
     AMIX     =   0.25;   BMIX     =  0.00
     AMIX_MAG =   1.00;   BMIX_MAG =  0.00
     AMIN     =   0.10
     WC   =   100.;   INIMIX=   1;  MIXPRE=   1;  MAXMIX= -45

 Intra band minimization:
   WEIMIN = 0.0000     energy-eigenvalue tresh-hold
   EBREAK =  0.13E-06  absolut break condition
   DEPER  =   0.30     relativ break condition  

   TIME   =   0.40     timestep for ELM

  volume/ion in A,a.u.               =      38.95       262.82
  Fermi-wavevector in a.u.,A,eV,Ry     =   0.776175  1.466758  8.196799  0.602448
  Thomas-Fermi vector in A             =   1.878597
 
 Write flags
   LWAVE        =      F    write WAVECAR
   LDOWNSAMPLE  =      F    k-point downsampling of WAVECAR
   LCHARG       =      F    write CHGCAR
   LVTOT        =      F    write LOCPOT, total local potential
   LVHAR        =      F    write LOCPOT, Hartree potential only
   LELF         =      F    write electronic localiz. function (ELF)
   LORBIT       =     11    0 simple, 1 ext, 2 COOP (PROOUT), +10 PAW based schemes


 Dipole corrections
   LMONO  =      F    monopole corrections only (constant potential shift)
   LDIPOL =      F    correct potential (dipole corrections)
   IDIPOL =      0    1-x, 2-y, 3-z, 4-all directions 
   EPSILON=  1.0000000 bulk dielectric constant

 Exchange correlation treatment:
   GGA     =    --    GGA type
   LEXCH   =     8    internal setting for exchange type
   VOSKOWN=      0    Vosko Wilk Nusair interpolation
   LHFCALC =     F    Hartree Fock is set to
   LHFONE  =     F    Hartree Fock one center treatment
   AEXX    =    0.0000 exact exchange contribution

 Linear response parameters
   LEPSILON=     F    determine dielectric tensor
   LRPA    =     F    only Hartree local field effects (RPA)
   LNABLA  =     F    use nabla operator in PAW spheres
   LVEL    =     F    velocity operator in full k-point grid
   LINTERFAST=   F  fast interpolation
   KINTER  =     0    interpolate to denser k-point grid
   CSHIFT  =0.1000    complex shift for real part using Kramers Kronig
   OMEGAMAX=  -1.0    maximum frequency
   DEG_THRESHOLD= 0.2000000E-02 threshold for treating states as degnerate
   RTIME   =   -0.100 relaxation time in fs
  (WPLASMAI=    0.000 imaginary part of plasma frequency in eV, 0.658/RTIME)
   DFIELD  = 0.0000000 0.0000000 0.0000000 field for delta impulse in time
 
 Orbital magnetization related:
   ORBITALMAG=     F  switch on orbital magnetization
   LCHIMAG   =     F  perturbation theory with respect to B field
   DQ        =  0.001000  dq finite difference perturbation B field
   LLRAUG    =     F  two centre corrections for induced B field



--------------------------------------------------------------------------------------------------------


 Static calculation
 charge density and potential will be updated during run
 spin polarized calculation
 Variant of blocked Davidson
 Davidson routine will perform the subspace rotation
 perform sub-space diagonalisation
    after iterative eigenvector-optimisation
 modified Broyden-mixing scheme, WC =      100.0
 initial mixing is a Kerker type mixing with AMIX =  0.2500 and BMIX =      0.0001
 Hartree-type preconditioning will be used
 using additional bands           40
 reciprocal scheme for non local part
 use partial core corrections
 calculate Harris-corrections to forces 
   (improved forces if not selfconsistent)
 use gradient corrections 
 use of overlap-Matrix (Vanderbilt PP)
 Fermi weights with tetrahedron method with Bloechl corrections


--------------------------------------------------------------------------------------------------------


  energy-cutoff  :      440.00
  volume of cell :     2843.07
      direct lattice vectors                 reciprocal lattice vectors
    14.864909407  0.003627638  0.000000000     0.067262956  0.039213486  0.000000000
    -7.432454703 12.748901734  0.000000000    -0.000019139  0.078426971  0.000000000
     0.000000000  0.000000000 15.000000000     0.000000000  0.000000000  0.066666667

  length of vectors
    14.864909849 14.757231392 15.000000000     0.077858864  0.078426973  0.066666667


 
 k-points in units of 2pi/SCALE and weight: K-Points                                
   0.00000000  0.00000000  0.00000000       0.111
   0.02242099  0.01307116  0.00000000       0.222
  -0.00000638  0.02614232  0.00000000       0.222
   0.02241461  0.03921349  0.00000000       0.222
  -0.02242737  0.01307116  0.00000000       0.222
 
 k-points in reciprocal lattice and weights: K-Points                                
   0.00000000  0.00000000  0.00000000       0.111
   0.33333333  0.00000000  0.00000000       0.222
   0.00000000  0.33333333  0.00000000       0.222
   0.33333333  0.33333333  0.00000000       0.222
  -0.33333333  0.33333333  0.00000000       0.222
 
 position of ions in fractional coordinates (direct lattice) 
   0.99864169  0.99890795  0.49224470
   0.05468364  0.11078135  0.49172159
   0.16667143  0.00125079  0.49167291
   0.22277212  0.11290778  0.49198076
   0.33356813  0.00207984  0.49163412
   0.38946366  0.11362061  0.49389779
   0.49973377  0.00107249  0.49028132
   0.55550935  0.11280975  0.49223280
   0.66593374  0.99887225  0.48909468
   0.72159392  0.11041602  0.49006493
   0.83202579  0.99803850  0.49177599
   0.88770354  0.10977109  0.49086312
   0.99878854  0.16577413  0.49135409
   0.05443235  0.27727666  0.49176881
   0.16608953  0.16720249  0.49158230
   0.22179218  0.27861869  0.49090587
   0.33447877  0.16976194  0.49431456
   0.39069570  0.28153562  0.49733466
   0.50056158  0.16950774  0.49483051
   0.55637868  0.28144321  0.49894624
   0.66647892  0.16676050  0.49184215
   0.72215162  0.27798867  0.49405591
   0.83253157  0.16581369  0.49052546
   0.88817263  0.27751807  0.49134825
   0.99905903  0.33298911  0.49186185
   0.05456071  0.44439829  0.49264344
   0.16516477  0.33306572  0.49224720
   0.21994254  0.44445738  0.49380064
   0.33364447  0.33550263  0.49188362
   0.38685217  0.44555287  0.49156853
   0.50262367  0.34017378  0.50362393
   0.56047094  0.45249790  0.51408603
   0.66724260  0.33375178  0.49836968
   0.72386862  0.44481691  0.50063706
   0.83319516  0.33357830  0.49282133
   0.88935487  0.44515657  0.49379515
   0.99963964  0.50038080  0.49288759
   0.05492348  0.61171199  0.49293476
   0.16500713  0.50030283  0.49370491
   0.22060253  0.61185306  0.49314689
   0.33029104  0.49973117  0.49005679
   0.38651526  0.61257735  0.48806485
   0.67102196  0.50087439  0.50771631
   0.72686942  0.61250195  0.50764561
   0.83446375  0.50117849  0.49669481
   0.88984973  0.61215692  0.49673526
   0.00003067  0.66778690  0.49412368
   0.05614036  0.77896974  0.49323341
   0.16571905  0.66766835  0.49216726
   0.22199157  0.77906587  0.49111095
   0.33113801  0.66766988  0.49170036
   0.38801571  0.77888978  0.48922101
   0.49681575  0.66619205  0.48424451
   0.55376402  0.77592722  0.48691087
   0.66602295  0.66111430  0.51312368
   0.71861061  0.77239302  0.50073626
   0.83516752  0.66696022  0.50000688
   0.88880024  0.77693199  0.49732299
   0.99952724  0.83308214  0.49407593
   0.05507014  0.94469170  0.49240430
   0.16670052  0.83471022  0.49155650
   0.22252988  0.94630075  0.49140915
   0.33291568  0.83477742  0.48996635
   0.38881750  0.94614982  0.49037698
   0.49908345  0.83330425  0.48713530
   0.55481932  0.94465261  0.48855851
   0.66519365  0.83048186  0.49318512
   0.72074751  0.94196533  0.49099741
   0.83079462  0.82971143  0.49677218
   0.88743070  0.94215632  0.49308821
   0.51304113  0.55696162  0.53952655
   0.52167642  0.52100559  0.65944082
   0.52619482  0.50282915  0.73440506
 
 position of ions in cartesian coordinates  (Angst):
   7.42038015 12.73860207  7.38367044
  -0.01051004  1.41253893  7.37582385
   2.46825925  0.01655079  7.37509372
   2.47230539  1.44025834  7.37971146
   4.94300177  0.02772575  7.37451186
   4.94486197  1.44995079  7.40846689
   7.42052595  0.01548595  7.35421973
   7.41914287  1.44021561  7.38349197
   2.47497196 12.73693995  7.33642019
   9.90576624  1.41030062  7.35097402
   4.95011199 12.72691303  7.37663989
  12.37976394  1.40268116  7.36294674
  13.61479243  2.11706140  7.37031132
  -1.25171424  3.53517040  7.37653213
   1.22618083  2.13225061  7.37373455
   1.22609991  3.55288693  7.36358808
   3.71024867  2.16549165  7.41471841
   3.71515538  3.59068724  7.46001997
   6.18094390  2.16285341  7.42245758
   6.17870486  3.59011013  7.48419365
   8.66770891  2.12843091  7.37763227
   8.66858018  3.54666989  7.41083870
  11.14310361  2.11696254  7.35788189
  11.13996521  3.54127256  7.37022374
  12.37599547  4.24886971  7.37792770
  -2.49193017  5.66578810  7.38965166
  -0.02033648  4.24682124  7.38370800
  -0.03398345  5.66714138  7.40700959
   2.46598678  4.27850039  7.37825431
   2.43897083  5.68171317  7.37352791
   4.94312913  4.33866545  7.55435895
   4.96817964  5.77088446  7.71129041
   7.43790585  4.25738918  7.47554524
   7.45415987  5.67355303  7.50955590
   9.90606499  4.25577949  7.39231996
   9.91157348  5.67848365  7.40692722
  11.14049498  6.38293203  7.39331390
  -3.73008916  7.79885528  7.39402133
  -1.26566209  6.37891022  7.40557366
  -1.26833349  7.80125485  7.39720336
   1.19551718  6.37222173  7.35085184
   1.19256099  7.81109052  7.32097269
   6.25195445  6.38803256  7.61574466
   6.25245508  7.81136397  7.61468416
   8.67924157  6.39250245  7.45042217
   8.67770702  7.80755650  7.45102897
  -4.96283991  8.51354966  7.41185522
  -4.95513587  9.93121227  7.39850114
  -2.49901612  8.51263934  7.38250891
  -2.49048725  9.93303950  7.36666428
  -0.04008958  8.51325888  7.37550536
  -0.02124471  9.93139686  7.33831510
   2.43367886  8.49501928  7.26366762
   2.46460806  9.89422873  7.30366301
   4.98666878  8.43089737  7.69685520
   4.94130553  9.84976957  7.51104388
   7.45753786  8.50604000  7.50010318
   7.43742327  9.90825390  7.45984483
   8.66603657 10.62450828  7.41113893
  -6.20276565 12.04398137  7.38606450
  -3.72595777 10.64224328  7.37334747
  -3.72545099 12.06510249  7.37113720
  -1.25568399 10.64370300  7.34949526
  -1.25247868 12.06378151  7.35565473
   1.22533421 10.62552445  7.30702950
   1.22625121 12.04529601  7.32837762
   3.71552455 10.59014472  7.39777683
   3.71273184 12.01163806  7.36496121
   6.18289409 10.58092331  7.45158269
   6.18904276 12.01467757  7.39632321
   3.48671795  7.10251011  8.09289826
   3.88232224  6.64414156  9.89161230
   4.08458347  6.41242826 11.01607593
 


--------------------------------------------------------------------------------------------------------


 k-point  1 :   0.0000 0.0000 0.0000  plane waves:   59569
 k-point  2 :   0.3333 0.0000 0.0000  plane waves:   59562
 k-point  3 :   0.0000 0.3333 0.0000  plane waves:   59608
 k-point  4 :   0.3333 0.3333 0.0000  plane waves:   59632
 k-point  5 :  -0.3333 0.3333 0.0000  plane waves:   59554

 maximum and minimum number of plane-waves per node :      4993     4938

 maximum number of plane-waves:     59632
 maximum index in each direction: 
   IXMAX=   25   IYMAX=   25   IZMAX=   25
   IXMIN=  -25   IYMIN=  -25   IZMIN=  -25


 parallel 3D FFT for wavefunctions:
    minimum data exchange during FFTs selected (reduces bandwidth)
 parallel 3D FFT for charge:
    minimum data exchange during FFTs selected (reduces bandwidth)


 total amount of memory used by VASP MPI-rank0   115989. kBytes
=======================================================================

   base      :      30000. kBytes
   nonl-proj :      27264. kBytes
   fftplans  :       4700. kBytes
   grid      :      15193. kBytes
   one-center:        217. kBytes
   wavefun   :      38615. kBytes
 
     INWAV:  cpu time    0.0000: real time    0.0000
 Broyden mixing: mesh for mixing (old mesh)
   NGX = 51   NGY = 51   NGZ = 51
  (NGX  =160   NGY  =160   NGZ  =160)
  gives a total of 132651 points

 initial charge density was supplied:
 charge density of overlapping atoms calculated
 number of electron     303.0000000 magnetization       2.0000000
 keeping initial charge density in first step


--------------------------------------------------------------------------------------------------------


 Maximum index for augmentation-charges          179 (set IRDMAX)


--------------------------------------------------------------------------------------------------------


 First call to EWALD:  gamma=   0.125
 Maximum number of real-space cells 3x 3x 3
 Maximum number of reciprocal cells 3x 3x 3

    FEWALD:  cpu time    0.0050: real time    0.0052


--------------------------------------- Iteration      1(   1)  ---------------------------------------


    POTLOK:  cpu time    0.2085: real time    0.2344
    SETDIJ:  cpu time    0.0086: real time    0.0091
     EDDAV:  cpu time   11.1951: real time   11.2943
 BZINTS: Fermi energy:  8.120899;303.000000 electrons
         Band energy:***********;  BLOECHL correction: -0.012903
       DOS:  cpu time    0.1147: real time    0.1149
    --------------------------------------------
      LOOP:  cpu time   11.5270: real time   11.6526

 eigenvalue-minimisations  :  4368
 total energy-change (2. order) : 0.2535131E+04  (-0.1120557E+05)
 number of electron     303.0000000 magnetization       2.0000000
 augmentation part      303.0000000 magnetization       2.0000000

 Free energy of the ion-electron system (eV)
  ---------------------------------------------------
  alpha Z        PSCENC =       167.25716631
  Ewald energy   TEWEN  =     30929.21739724
  -Hartree energ DENC   =    -40598.39512111
  -exchange      EXHF   =         0.00000000
  -V(xc)+E(xc)   XCENC  =      1023.36891351
  PAW double counting   =      9455.23336183    -9546.47664214
  entropy T*S    EENTRO =         0.00000000
  eigenvalues    EBANDS =     -1539.82681457
  atomic energy  EATOM  =     12644.75315347
  Solvation  Ediel_sol  =         0.00000000
  ---------------------------------------------------
  free energy    TOTEN  =      2535.13141454 eV

  energy without entropy =     2535.13141454  energy(sigma->0) =     2535.13141454


--------------------------------------------------------------------------------------------------------




--------------------------------------- Iteration      1(   2)  ---------------------------------------


     EDDAV:  cpu time   14.7176: real time   15.0270
 BZINTS: Fermi energy: -2.056702;303.000000 electrons
         Band energy:***********;  BLOECHL correction:  0.000000
       DOS:  cpu time    0.0049: real time    0.0054
    --------------------------------------------
      LOOP:  cpu time   14.7225: real time   15.0324

 eigenvalue-minimisations  :  5456
 total energy-change (2. order) :-0.2777040E+04  (-0.2651594E+04)
 number of electron     303.0000000 magnetization       2.0000000
 augmentation part      303.0000000 magnetization       2.0000000

 Free energy of the ion-electron system (eV)
  ---------------------------------------------------
  alpha Z        PSCENC =       167.25716631
  Ewald energy   TEWEN  =     30929.21739724
  -Hartree energ DENC   =    -40598.39512111
  -exchange      EXHF   =         0.00000000
  -V(xc)+E(xc)   XCENC  =      1023.36891351
  PAW double counting   =      9455.23336183    -9546.47664214
  entropy T*S    EENTRO =         0.00000000
  eigenvalues    EBANDS =     -4316.86691084
  atomic energy  EATOM  =     12644.75315347
  Solvation  Ediel_sol  =         0.00000000
  ---------------------------------------------------
  free energy    TOTEN  =      -241.90868174 eV

  energy without entropy =     -241.90868174  energy(sigma->0) =     -241.90868174


--------------------------------------------------------------------------------------------------------




--------------------------------------- Iteration      1(   3)  ---------------------------------------


     EDDAV:  cpu time   12.6880: real time   12.8403
 BZINTS: Fermi energy: -4.541029;303.000000 electrons
         Band energy:***********;  BLOECHL correction: -0.040790
       DOS:  cpu time    0.0115: real time    0.0115
    --------------------------------------------
      LOOP:  cpu time   12.6995: real time   12.8518

 eigenvalue-minimisations  :  4592
 total energy-change (2. order) :-0.4581827E+03  (-0.4542057E+03)
 number of electron     303.0000000 magnetization       2.0000000
 augmentation part      303.0000000 magnetization       2.0000000

 Free energy of the ion-electron system (eV)
  ---------------------------------------------------
  alpha Z        PSCENC =       167.25716631
  Ewald energy   TEWEN  =     30929.21739724
  -Hartree energ DENC   =    -40598.39512111
  -exchange      EXHF   =         0.00000000
  -V(xc)+E(xc)   XCENC  =      1023.36891351
  PAW double counting   =      9455.23336183    -9546.47664214
  entropy T*S    EENTRO =         0.00000000
  eigenvalues    EBANDS =     -4775.04964095
  atomic energy  EATOM  =     12644.75315347
  Solvation  Ediel_sol  =         0.00000000
  ---------------------------------------------------
  free energy    TOTEN  =      -700.09141184 eV

  energy without entropy =     -700.09141184  energy(sigma->0) =     -700.09141184


--------------------------------------------------------------------------------------------------------




--------------------------------------- Iteration      1(   4)  ---------------------------------------


     EDDAV:  cpu time   12.9673: real time   13.2053
 BZINTS: Fermi energy: -4.705387;303.000000 electrons
         Band energy:***********;  BLOECHL correction: -0.035693
       DOS:  cpu time    0.0117: real time    0.0118
    --------------------------------------------
      LOOP:  cpu time   12.9790: real time   13.2170

 eigenvalue-minimisations  :  4648
 total energy-change (2. order) :-0.1654509E+02  (-0.1640944E+02)
 number of electron     303.0000000 magnetization       2.0000000
 augmentation part      303.0000000 magnetization       2.0000000

 Free energy of the ion-electron system (eV)
  ---------------------------------------------------
  alpha Z        PSCENC =       167.25716631
  Ewald energy   TEWEN  =     30929.21739724
  -Hartree energ DENC   =    -40598.39512111
  -exchange      EXHF   =         0.00000000
  -V(xc)+E(xc)   XCENC  =      1023.36891351
  PAW double counting   =      9455.23336183    -9546.47664214
  entropy T*S    EENTRO =         0.00000000
  eigenvalues    EBANDS =     -4791.59473389
  atomic energy  EATOM  =     12644.75315347
  Solvation  Ediel_sol  =         0.00000000
  ---------------------------------------------------
  free energy    TOTEN  =      -716.63650478 eV

  energy without entropy =     -716.63650478  energy(sigma->0) =     -716.63650478


--------------------------------------------------------------------------------------------------------




--------------------------------------- Iteration      1(   5)  ---------------------------------------


     EDDAV:  cpu time   14.0580: real time   14.1669
 BZINTS: Fermi energy: -4.713905;303.000000 electrons
         Band energy:***********;  BLOECHL correction: -0.036230
       DOS:  cpu time    0.0110: real time    0.0110
    CHARGE:  cpu time    0.1643: real time    0.1707
    MIXING:  cpu time    0.0040: real time    0.0047
    --------------------------------------------
      LOOP:  cpu time   14.2372: real time   14.3534

 eigenvalue-minimisations  :  5280
 total energy-change (2. order) :-0.5450180E+00  (-0.5425087E+00)
 number of electron     303.0000022 magnetization       0.1179808
 augmentation part       12.4805870 magnetization       0.0934415

 Broyden mixing:
  rms(total) = 0.48049E+01    rms(broyden)= 0.48043E+01
  rms(prec ) = 0.54845E+01
  weight for this iteration     100.00

 Free energy of the ion-electron system (eV)
  ---------------------------------------------------
  alpha Z        PSCENC =       167.25716631
  Ewald energy   TEWEN  =     30929.21739724
  -Hartree energ DENC   =    -40598.39512111
  -exchange      EXHF   =         0.00000000
  -V(xc)+E(xc)   XCENC  =      1023.36891351
  PAW double counting   =      9455.23336183    -9546.47664214
  entropy T*S    EENTRO =         0.00000000
  eigenvalues    EBANDS =     -4792.13975188
  atomic energy  EATOM  =     12644.75315347
  Solvation  Ediel_sol  =         0.00000000
  ---------------------------------------------------
  free energy    TOTEN  =      -717.18152277 eV

  energy without entropy =     -717.18152277  energy(sigma->0) =     -717.18152277


--------------------------------------------------------------------------------------------------------




--------------------------------------- Iteration      1(   6)  ---------------------------------------


    POTLOK:  cpu time    0.1906: real time    0.1946
    SETDIJ:  cpu time    0.0103: real time    0.0103
     EDDAV:  cpu time   12.5844: real time   12.7446
 BZINTS: Fermi energy: -5.575878;303.000000 electrons
         Band energy:***********;  BLOECHL correction: -0.019093
       DOS:  cpu time    0.0116: real time    0.0119
    CHARGE:  cpu time    0.1657: real time    0.1721
    MIXING:  cpu time    0.0029: real time    0.0036
    --------------------------------------------
      LOOP:  cpu time   12.9656: real time   13.1371

 eigenvalue-minimisations  :  4768
 total energy-change (2. order) : 0.4947131E+01  (-0.6926535E+01)
 number of electron     303.0000032 magnetization       0.0921853
 augmentation part       17.8341063 magnetization       0.0985594

 Broyden mixing:
  rms(total) = 0.72166E+01    rms(broyden)= 0.72163E+01
  rms(prec ) = 0.82526E+01
  weight for this iteration     100.00

 eigenvalues of (default mixing * dielectric matrix)
  average eigenvalue GAMMA=   0.2786
  0.2786

 Free energy of the ion-electron system (eV)
  ---------------------------------------------------
  alpha Z        PSCENC =       167.25716631
  Ewald energy   TEWEN  =     30929.21739724
  -Hartree energ DENC   =    -40956.24081409
  -exchange      EXHF   =         0.00000000
  -V(xc)+E(xc)   XCENC  =      1035.97922745
  PAW double counting   =     13278.18607763   -13369.81811054
  entropy T*S    EENTRO =         0.00000000
  eigenvalues    EBANDS =     -4441.56848937
  atomic energy  EATOM  =     12644.75315347
  Solvation  Ediel_sol  =         0.00000000
  ---------------------------------------------------
  free energy    TOTEN  =      -712.23439190 eV

  energy without entropy =     -712.23439190  energy(sigma->0) =     -712.23439190


--------------------------------------------------------------------------------------------------------




--------------------------------------- Iteration      1(   7)  ---------------------------------------


    POTLOK:  cpu time    0.1375: real time    0.1432
    SETDIJ:  cpu time    0.0107: real time    0.0108
     EDDAV:  cpu time   13.5559: real time   13.6713
 BZINTS: Fermi energy: -4.086345;303.000000 electrons
         Band energy:***********;  BLOECHL correction: -0.019598
       DOS:  cpu time    0.0112: real time    0.0112
    CHARGE:  cpu time    0.1662: real time    0.1716
    MIXING:  cpu time    0.0029: real time    0.0040
    --------------------------------------------
      LOOP:  cpu time   13.8843: real time   14.0122

 eigenvalue-minimisations  :  5336
 total energy-change (2. order) : 0.3643526E+02  (-0.7242149E+01)
 number of electron     303.0000022 magnetization       0.4996707
 augmentation part       14.0283116 magnetization       0.2122896

 Broyden mixing:
  rms(total) = 0.25422E+01    rms(broyden)= 0.25416E+01
  rms(prec ) = 0.27819E+01
  weight for this iteration     100.00

 eigenvalues of (default mixing * dielectric matrix)
  average eigenvalue GAMMA=   0.7541
  1.2256  0.2826

 Free energy of the ion-electron system (eV)
  ---------------------------------------------------
  alpha Z        PSCENC =       167.25716631
  Ewald energy   TEWEN  =     30929.21739724
  -Hartree energ DENC   =    -41109.65345808
  -exchange      EXHF   =         0.00000000
  -V(xc)+E(xc)   XCENC  =      1040.30201304
  PAW double counting   =     14453.48698366   -14549.40952298
  entropy T*S    EENTRO =         0.00000000
  eigenvalues    EBANDS =     -4251.75286412
  atomic energy  EATOM  =     12644.75315347
  Solvation  Ediel_sol  =         0.00000000
  ---------------------------------------------------
  free energy    TOTEN  =      -675.79913146 eV

  energy without entropy =     -675.79913146  energy(sigma->0) =     -675.79913146


--------------------------------------------------------------------------------------------------------




--------------------------------------- Iteration      1(   8)  ---------------------------------------


    POTLOK:  cpu time    0.1692: real time    0.1724
    SETDIJ:  cpu time    0.0101: real time    0.0101
     EDDAV:  cpu time   12.6168: real time   12.7427
 BZINTS: Fermi energy: -2.391896;303.000000 electrons
         Band energy:***********;  BLOECHL correction: -0.044894
       DOS:  cpu time    0.0112: real time    0.0112
    CHARGE:  cpu time    0.1894: real time    0.1906
    MIXING:  cpu time    0.0033: real time    0.0034
    --------------------------------------------
      LOOP:  cpu time   13.0000: real time   13.1304

 eigenvalue-minimisations  :  4880
 total energy-change (2. order) : 0.6426061E+01  (-0.3307640E+01)
 number of electron     303.0000022 magnetization       0.5102175
 augmentation part       12.4466554 magnetization       0.2048525

 Broyden mixing:
  rms(total) = 0.23007E+01    rms(broyden)= 0.23004E+01
  rms(prec ) = 0.26762E+01
  weight for this iteration     100.00

 eigenvalues of (default mixing * dielectric matrix)
  average eigenvalue GAMMA=   1.2038
  2.7523  0.5395  0.3196

 Free energy of the ion-electron system (eV)
  ---------------------------------------------------
  alpha Z        PSCENC =       167.25716631
  Ewald energy   TEWEN  =     30929.21739724
  -Hartree energ DENC   =    -41430.75223275
  -exchange      EXHF   =         0.00000000
  -V(xc)+E(xc)   XCENC  =      1051.60244461
  PAW double counting   =     18870.41768210   -18969.79499929
  entropy T*S    EENTRO =         0.00000000
  eigenvalues    EBANDS =     -3932.07368179
  atomic energy  EATOM  =     12644.75315347
  Solvation  Ediel_sol  =         0.00000000
  ---------------------------------------------------
  free energy    TOTEN  =      -669.37307009 eV

  energy without entropy =     -669.37307009  energy(sigma->0) =     -669.37307009


--------------------------------------------------------------------------------------------------------




--------------------------------------- Iteration      1(   9)  ---------------------------------------


    POTLOK:  cpu time    0.1379: real time    0.1402
    SETDIJ:  cpu time    0.0085: real time    0.0085
     EDDAV:  cpu time   12.2063: real time   12.3429
 BZINTS: Fermi energy: -2.661940;303.000000 electrons
         Band energy:***********;  BLOECHL correction: -0.042806
       DOS:  cpu time    0.0113: real time    0.0113
    CHARGE:  cpu time    0.1656: real time    0.1661
    MIXING:  cpu time    0.0037: real time    0.0037
    --------------------------------------------
      LOOP:  cpu time   12.5332: real time   12.6727

 eigenvalue-minimisations  :  4616
 total energy-change (2. order) : 0.4653176E+01  (-0.2186101E+01)
 number of electron     303.0000021 magnetization       0.3272243
 augmentation part       14.2941897 magnetization       0.0446374

 Broyden mixing:
  rms(total) = 0.14328E+01    rms(broyden)= 0.14320E+01
  rms(prec ) = 0.17257E+01
  weight for this iteration     100.00

 eigenvalues of (default mixing * dielectric matrix)
  average eigenvalue GAMMA=   1.2469
  3.2103  1.0597  0.3588  0.3588

 Free energy of the ion-electron system (eV)
  ---------------------------------------------------
  alpha Z        PSCENC =       167.25716631
  Ewald energy   TEWEN  =     30929.21739724
  -Hartree energ DENC   =    -41815.60028636
  -exchange      EXHF   =         0.00000000
  -V(xc)+E(xc)   XCENC  =      1065.82752847
  PAW double counting   =     26522.15192818   -26624.74998255
  entropy T*S    EENTRO =         0.00000000
  eigenvalues    EBANDS =     -3553.57679855
  atomic energy  EATOM  =     12644.75315347
  Solvation  Ediel_sol  =         0.00000000
  ---------------------------------------------------
  free energy    TOTEN  =      -664.71989378 eV

  energy without entropy =     -664.71989378  energy(sigma->0) =     -664.71989378


--------------------------------------------------------------------------------------------------------




--------------------------------------- Iteration      1(  10)  ---------------------------------------


    POTLOK:  cpu time    0.1381: real time    0.1404
    SETDIJ:  cpu time    0.0105: real time    0.0105
     EDDAV:  cpu time   13.4479: real time   13.5279
 BZINTS: Fermi energy: -1.964849;303.000000 electrons
         Band energy:***********;  BLOECHL correction: -0.003480
       DOS:  cpu time    0.0113: real time    0.0114
    CHARGE:  cpu time    0.2063: real time    0.2071
    MIXING:  cpu time    0.0042: real time    0.0042
    --------------------------------------------
      LOOP:  cpu time   13.8182: real time   13.9015

 eigenvalue-minimisations  :  5240
 total energy-change (2. order) : 0.9305540E+00  (-0.8377149E+00)
 number of electron     303.0000023 magnetization       0.7778126
 augmentation part       13.0053091 magnetization       0.1193179

 Broyden mixing:
  rms(total) = 0.73927E+00    rms(broyden)= 0.73882E+00
  rms(prec ) = 0.81562E+00
  weight for this iteration     100.00

 eigenvalues of (default mixing * dielectric matrix)
  average eigenvalue GAMMA=   1.2736
  3.5180  1.5124  0.6409  0.3484  0.3484

 Free energy of the ion-electron system (eV)
  ---------------------------------------------------
  alpha Z        PSCENC =       167.25716631
  Ewald energy   TEWEN  =     30929.21739724
  -Hartree energ DENC   =    -41830.49238697
  -exchange      EXHF   =         0.00000000
  -V(xc)+E(xc)   XCENC  =      1066.36769077
  PAW double counting   =     28587.94516253   -28690.80682128
  entropy T*S    EENTRO =         0.00000000
  eigenvalues    EBANDS =     -3538.03070188
  atomic energy  EATOM  =     12644.75315347
  Solvation  Ediel_sol  =         0.00000000
  ---------------------------------------------------
  free energy    TOTEN  =      -663.78933981 eV

  energy without entropy =     -663.78933981  energy(sigma->0) =     -663.78933981


--------------------------------------------------------------------------------------------------------




--------------------------------------- Iteration      1(  11)  ---------------------------------------


    POTLOK:  cpu time    0.1451: real time    0.1474
    SETDIJ:  cpu time    0.0106: real time    0.0106
     EDDAV:  cpu time   12.2634: real time   12.3457
 BZINTS: Fermi energy: -2.021693;303.000000 electrons
         Band energy:***********;  BLOECHL correction:  0.000000
       DOS:  cpu time    0.0049: real time    0.0049
    CHARGE:  cpu time    0.1642: real time    0.1653
    MIXING:  cpu time    0.0037: real time    0.0037
    --------------------------------------------
      LOOP:  cpu time   12.5920: real time   12.6777

 eigenvalue-minimisations  :  4696
 total energy-change (2. order) : 0.9208491E-01  (-0.9972442E-01)
 number of electron     303.0000023 magnetization       1.0710937
 augmentation part       13.0476322 magnetization       0.4171686

 Broyden mixing:
  rms(total) = 0.55319E+00    rms(broyden)= 0.55305E+00
  rms(prec ) = 0.63669E+00
  weight for this iteration     100.00

 eigenvalues of (default mixing * dielectric matrix)
  average eigenvalue GAMMA=   1.2725
  3.5643  1.9446  0.7057  0.7057  0.3573  0.3573

 Free energy of the ion-electron system (eV)
  ---------------------------------------------------
  alpha Z        PSCENC =       167.25716631
  Ewald energy   TEWEN  =     30929.21739724
  -Hartree energ DENC   =    -41803.21649033
  -exchange      EXHF   =         0.00000000
  -V(xc)+E(xc)   XCENC  =      1065.91110950
  PAW double counting   =     30251.94137879   -30354.33766513
  entropy T*S    EENTRO =         0.00000000
  eigenvalues    EBANDS =     -3565.22330474
  atomic energy  EATOM  =     12644.75315347
  Solvation  Ediel_sol  =         0.00000000
  ---------------------------------------------------
  free energy    TOTEN  =      -663.69725489 eV

  energy without entropy =     -663.69725489  energy(sigma->0) =     -663.69725489


--------------------------------------------------------------------------------------------------------




--------------------------------------- Iteration      1(  12)  ---------------------------------------


    POTLOK:  cpu time    0.1361: real time    0.1387
    SETDIJ:  cpu time    0.0089: real time    0.0096
     EDDAV:  cpu time   12.1623: real time   12.2826
 BZINTS: Fermi energy: -2.177044;303.000000 electrons
         Band energy:***********;  BLOECHL correction:  0.000000
       DOS:  cpu time    0.0078: real time    0.0078
    CHARGE:  cpu time    0.1629: real time    0.1638
    MIXING:  cpu time    0.0039: real time    0.0039
    --------------------------------------------
      LOOP:  cpu time   12.4818: real time   12.6064

 eigenvalue-minimisations  :  4600
 total energy-change (2. order) : 0.1786557E+00  (-0.5221909E-01)
 number of electron     303.0000023 magnetization       1.0045296
 augmentation part       13.3278235 magnetization       0.4758404

 Broyden mixing:
  rms(total) = 0.29323E+00    rms(broyden)= 0.29308E+00
  rms(prec ) = 0.29862E+00
  weight for this iteration     100.00

 eigenvalues of (default mixing * dielectric matrix)
  average eigenvalue GAMMA=   1.3504
  3.7917  2.3962  0.8877  0.8877  0.3571  0.3571  0.7753

 Free energy of the ion-electron system (eV)
  ---------------------------------------------------
  alpha Z        PSCENC =       167.25716631
  Ewald energy   TEWEN  =     30929.21739724
  -Hartree energ DENC   =    -41750.93091270
  -exchange      EXHF   =         0.00000000
  -V(xc)+E(xc)   XCENC  =      1064.35849445
  PAW double counting   =     31416.50602475   -31518.20547620
  entropy T*S    EENTRO =         0.00000000
  eigenvalues    EBANDS =     -3616.47444657
  atomic energy  EATOM  =     12644.75315347
  Solvation  Ediel_sol  =         0.00000000
  ---------------------------------------------------
  free energy    TOTEN  =      -663.51859924 eV

  energy without entropy =     -663.51859924  energy(sigma->0) =     -663.51859924


--------------------------------------------------------------------------------------------------------




--------------------------------------- Iteration      1(  13)  ---------------------------------------


    POTLOK:  cpu time    0.1489: real time    0.1515
    SETDIJ:  cpu time    0.0084: real time    0.0084
     EDDAV:  cpu time   12.6848: real time   12.7642
 BZINTS: Fermi energy: -2.217054;303.000000 electrons
         Band energy:***********;  BLOECHL correction:  0.000000
       DOS:  cpu time    0.0083: real time    0.0084
    CHARGE:  cpu time    0.2017: real time    0.2034
    MIXING:  cpu time    0.0043: real time    0.0043
    --------------------------------------------
      LOOP:  cpu time   13.0564: real time   13.1401

 eigenvalue-minimisations  :  4784
 total energy-change (2. order) :-0.1632307E-01  (-0.1794358E-01)
 number of electron     303.0000022 magnetization       0.9831363
 augmentation part       13.4093056 magnetization       0.5140551

 Broyden mixing:
  rms(total) = 0.21439E+00    rms(broyden)= 0.21432E+00
  rms(prec ) = 0.22025E+00
  weight for this iteration     100.00

 eigenvalues of (default mixing * dielectric matrix)
  average eigenvalue GAMMA=   1.3636
  3.7702  2.3232  1.5769  1.0136  0.3568  0.3568  0.7557  0.7557

 Free energy of the ion-electron system (eV)
  ---------------------------------------------------
  alpha Z        PSCENC =       167.25716631
  Ewald energy   TEWEN  =     30929.21739724
  -Hartree energ DENC   =    -41735.91597688
  -exchange      EXHF   =         0.00000000
  -V(xc)+E(xc)   XCENC  =      1063.90868451
  PAW double counting   =     31905.42231211   -32006.87525633
  entropy T*S    EENTRO =         0.00000000
  eigenvalues    EBANDS =     -3631.30240275
  atomic energy  EATOM  =     12644.75315347
  Solvation  Ediel_sol  =         0.00000000
  ---------------------------------------------------
  free energy    TOTEN  =      -663.53492231 eV

  energy without entropy =     -663.53492231  energy(sigma->0) =     -663.53492231


--------------------------------------------------------------------------------------------------------




--------------------------------------- Iteration      1(  14)  ---------------------------------------


    POTLOK:  cpu time    0.1352: real time    0.1374
    SETDIJ:  cpu time    0.0085: real time    0.0089
     EDDAV:  cpu time   11.7154: real time   11.8814
 BZINTS: Fermi energy: -2.197049;303.000000 electrons
         Band energy:***********;  BLOECHL correction:  0.000000
       DOS:  cpu time    0.0085: real time    0.0086
    CHARGE:  cpu time    0.1635: real time    0.1640
    MIXING:  cpu time    0.0044: real time    0.0044
    --------------------------------------------
      LOOP:  cpu time   12.0355: real time   12.2046

 eigenvalue-minimisations  :  4408
 total energy-change (2. order) :-0.3428434E-02  (-0.3238537E-02)
 number of electron     303.0000022 magnetization       0.9900361
 augmentation part       13.4002412 magnetization       0.5351145

 Broyden mixing:
  rms(total) = 0.17371E+00    rms(broyden)= 0.17370E+00
  rms(prec ) = 0.17985E+00
  weight for this iteration     100.00

 eigenvalues of (default mixing * dielectric matrix)
  average eigenvalue GAMMA=   1.3699
  3.6970  2.4689  2.0264  0.3569  0.3569  1.0133  0.8228  0.8228  0.7636

 Free energy of the ion-electron system (eV)
  ---------------------------------------------------
  alpha Z        PSCENC =       167.25716631
  Ewald energy   TEWEN  =     30929.21739724
  -Hartree energ DENC   =    -41742.25717707
  -exchange      EXHF   =         0.00000000
  -V(xc)+E(xc)   XCENC  =      1064.11167520
  PAW double counting   =     31886.74147186   -31988.21163497
  entropy T*S    EENTRO =         0.00000000
  eigenvalues    EBANDS =     -3625.15040278
  atomic energy  EATOM  =     12644.75315347
  Solvation  Ediel_sol  =         0.00000000
  ---------------------------------------------------
  free energy    TOTEN  =      -663.53835075 eV

  energy without entropy =     -663.53835075  energy(sigma->0) =     -663.53835075


--------------------------------------------------------------------------------------------------------




--------------------------------------- Iteration      1(  15)  ---------------------------------------


    POTLOK:  cpu time    0.1345: real time    0.1370
    SETDIJ:  cpu time    0.0100: real time    0.0100
     EDDAV:  cpu time   13.0701: real time   13.2984
 BZINTS: Fermi energy: -2.202050;303.000000 electrons
         Band energy:***********;  BLOECHL correction:  0.000000
       DOS:  cpu time    0.0081: real time    0.0081
    CHARGE:  cpu time    0.1635: real time    0.1642
    MIXING:  cpu time    0.0043: real time    0.0043
    --------------------------------------------
      LOOP:  cpu time   13.3905: real time   13.6221

 eigenvalue-minimisations  :  4840
 total energy-change (2. order) : 0.9591518E-03  (-0.5201376E-03)
 number of electron     303.0000022 magnetization       1.0081299
 augmentation part       13.3890641 magnetization       0.5691284

 Broyden mixing:
  rms(total) = 0.12792E+00    rms(broyden)= 0.12792E+00
  rms(prec ) = 0.13251E+00
  weight for this iteration     100.00

 eigenvalues of (default mixing * dielectric matrix)
  average eigenvalue GAMMA=   1.4049
  3.7014  2.8265  1.7368  1.7368  0.3569  0.3569  0.9489  0.8271  0.8271  0.7306

 Free energy of the ion-electron system (eV)
  ---------------------------------------------------
  alpha Z        PSCENC =       167.25716631
  Ewald energy   TEWEN  =     30929.21739724
  -Hartree energ DENC   =    -41741.72006763
  -exchange      EXHF   =         0.00000000
  -V(xc)+E(xc)   XCENC  =      1064.08742908
  PAW double counting   =     31870.10793208   -31971.50764315
  entropy T*S    EENTRO =         0.00000000
  eigenvalues    EBANDS =     -3625.73275900
  atomic energy  EATOM  =     12644.75315347
  Solvation  Ediel_sol  =         0.00000000
  ---------------------------------------------------
  free energy    TOTEN  =      -663.53739159 eV

  energy without entropy =     -663.53739159  energy(sigma->0) =     -663.53739159


--------------------------------------------------------------------------------------------------------




--------------------------------------- Iteration      1(  16)  ---------------------------------------


    POTLOK:  cpu time    0.1612: real time    0.1638
    SETDIJ:  cpu time    0.0107: real time    0.0107
     EDDAV:  cpu time   12.5373: real time   12.6106
 BZINTS: Fermi energy: -2.207052;303.000000 electrons
         Band energy:***********;  BLOECHL correction:  0.000000
       DOS:  cpu time    0.0083: real time    0.0084
    CHARGE:  cpu time    0.1634: real time    0.1672
    MIXING:  cpu time    0.0041: real time    0.0044
    --------------------------------------------
      LOOP:  cpu time   12.8850: real time   12.9652

 eigenvalue-minimisations  :  4864
 total energy-change (2. order) : 0.7550911E-03  (-0.4274193E-03)
 number of electron     303.0000022 magnetization       1.0018031
 augmentation part       13.3777421 magnetization       0.5735820

 Broyden mixing:
  rms(total) = 0.87815E-01    rms(broyden)= 0.87810E-01
  rms(prec ) = 0.89955E-01
  weight for this iteration     100.00

 eigenvalues of (default mixing * dielectric matrix)
  average eigenvalue GAMMA=   1.4089
  3.6665  2.5329  2.1911  2.1911  0.3569  0.3569  0.8910  0.8910  0.9009  0.7601
  0.7601

 Free energy of the ion-electron system (eV)
  ---------------------------------------------------
  alpha Z        PSCENC =       167.25716631
  Ewald energy   TEWEN  =     30929.21739724
  -Hartree energ DENC   =    -41740.56407019
  -exchange      EXHF   =         0.00000000
  -V(xc)+E(xc)   XCENC  =      1064.05599340
  PAW double counting   =     31890.84072473   -31992.15382922
  entropy T*S    EENTRO =         0.00000000
  eigenvalues    EBANDS =     -3626.94317226
  atomic energy  EATOM  =     12644.75315347
  Solvation  Ediel_sol  =         0.00000000
  ---------------------------------------------------
  free energy    TOTEN  =      -663.53663650 eV

[...]
   0.157E+02 -.335E+01 0.424E+01   -.155E+02 0.331E+01 -.402E+01   -.173E+00 -.332E-02 -.197E+00   0.241E-03 -.420E-02 -.160E-01
   0.561E+02 0.160E+02 0.638E+02   -.562E+02 -.166E+02 -.656E+02   0.131E+00 0.726E+00 0.191E+01   -.656E-01 -.641E-01 -.594E-01
   0.541E+02 -.200E+02 0.658E+02   -.539E+02 0.209E+02 -.672E+02   -.122E+00 -.968E+00 0.147E+01   -.883E-01 0.257E-01 -.666E-01
   -.365E+02 0.215E+02 0.124E+02   0.348E+02 -.230E+02 -.121E+02   0.158E+01 0.160E+01 -.277E+00   0.542E-01 -.234E-01 -.429E-01
   -.169E+02 -.779E+01 0.386E+01   0.101E+02 0.490E+01 -.268E+01   0.680E+01 0.276E+01 -.113E+01   0.714E-01 0.340E-01 -.452E-01
   -.221E+02 0.118E+02 0.125E+02   0.222E+02 -.132E+02 -.125E+02   -.490E-01 0.143E+01 0.639E-01   -.935E-02 0.219E-01 -.975E-02
   -.382E+02 0.870E+01 0.116E+02   0.433E+02 -.119E+02 -.118E+02   -.518E+01 0.310E+01 0.215E+00   -.920E-02 0.781E-02 -.933E-02
   -.174E+02 -.276E+01 0.903E+01   0.187E+02 0.321E+01 -.907E+01   -.120E+01 -.386E+00 0.285E-01   -.226E-01 0.428E-02 -.547E-02
   -.111E+02 -.963E+01 0.844E+01   0.117E+02 0.100E+02 -.843E+01   -.624E+00 -.445E+00 -.290E-02   -.112E-01 -.118E-01 -.483E-02
   0.504E+01 -.327E+01 0.852E+01   -.481E+01 0.330E+01 -.855E+01   -.209E+00 -.256E-01 0.371E-01   -.282E-02 0.274E-02 -.727E-02
   0.212E+01 -.565E+01 0.103E+02   -.193E+01 0.569E+01 -.103E+02   -.226E+00 -.588E-01 -.695E-02   -.790E-02 -.584E-02 -.608E-02
   0.253E+02 -.124E+02 0.115E+02   -.252E+02 0.123E+02 -.111E+02   -.164E+00 0.474E-01 -.333E+00   -.919E-02 -.639E-02 -.272E-01
   0.125E+02 -.163E+02 0.197E+02   -.122E+02 0.163E+02 -.198E+02   -.241E+00 -.226E-01 0.773E-01   -.661E-02 -.696E-02 -.147E-01
   0.659E+00 -.584E+02 0.141E+03   0.693E+01 0.549E+02 -.142E+03   -.743E+01 0.339E+01 0.124E+01   -.142E+00 0.158E+00 -.137E+00
   0.500E+01 -.395E+02 0.554E+02   -.469E+01 0.389E+02 -.553E+02   -.274E+00 0.726E+00 -.181E-02   -.209E-01 0.197E-01 -.397E-01
   -.399E+01 -.536E+02 -.499E+01   -.449E+01 0.490E+02 0.713E+01   0.823E+01 0.451E+01 -.205E+01   0.183E+00 0.141E+00 -.914E-01
   -.723E-01 -.347E+02 0.104E+02   -.997E+00 0.334E+02 -.104E+02   0.105E+01 0.134E+01 0.254E-01   0.424E-01 0.162E-01 -.304E-01
   -.284E+02 -.161E+02 0.128E+02   0.276E+02 0.156E+02 -.132E+02   0.845E+00 0.547E+00 0.389E+00   0.153E-01 -.257E-02 -.200E-01
   -.107E+02 -.438E+02 0.737E+01   0.102E+02 0.500E+02 -.741E+01   0.423E+00 -.620E+01 0.355E-01   0.991E-02 -.187E-01 -.105E-01
   -.916E+01 -.151E+02 0.902E+01   0.100E+02 0.160E+02 -.907E+01   -.843E+00 -.887E+00 0.683E-01   -.179E-02 -.253E-01 -.570E-02
   -.531E+01 -.685E+01 0.106E+02   0.529E+01 0.750E+01 -.106E+02   -.248E-01 -.650E+00 0.248E-01   0.403E-02 -.176E-01 -.513E-02
   -.297E+01 -.390E+01 0.106E+02   0.336E+01 0.419E+01 -.106E+02   -.346E+00 -.257E+00 0.496E-01   -.130E-01 -.108E-01 -.452E-02
   -.192E+01 -.812E+00 0.109E+02   0.202E+01 0.101E+01 -.108E+02   -.850E-01 -.231E+00 -.259E-02   -.719E-02 -.677E-02 -.498E-02
   0.577E+01 -.577E+01 0.135E+02   -.557E+01 0.587E+01 -.135E+02   -.162E+00 -.771E-01 0.353E-01   -.704E-02 -.944E-02 -.742E-02
   0.222E+01 -.395E+01 0.121E+02   -.214E+01 0.403E+01 -.121E+02   -.594E-01 -.887E-01 0.532E-02   -.794E-02 -.982E-02 -.617E-02
   0.690E+01 -.173E+02 0.324E+02   -.648E+01 0.171E+02 -.325E+02   -.470E+00 0.174E+00 0.119E+00   -.711E-02 -.558E-02 -.163E-01
   0.403E+01 -.122E+02 0.191E+02   -.397E+01 0.122E+02 -.191E+02   -.316E-01 0.610E-01 0.239E-01   -.213E-02 -.846E-02 -.920E-02
   -.157E+01 -.242E+02 0.217E+02   0.146E+01 0.235E+02 -.214E+02   0.759E-01 0.612E+00 -.252E+00   0.142E-01 0.180E-01 -.257E-01
   0.153E+01 -.158E+02 0.163E+02   -.156E+01 0.155E+02 -.163E+02   0.542E-01 0.375E+00 0.365E-01   0.731E-02 -.955E-02 -.114E-01
   0.727E+00 -.263E+02 0.108E+02   -.250E+01 0.267E+02 -.109E+02   0.178E+01 -.387E+00 0.134E+00   0.144E-01 -.169E-01 -.133E-01
   -.114E+01 -.107E+02 0.121E+02   0.960E+00 0.111E+02 -.122E+02   0.132E+00 -.364E+00 0.986E-01   0.702E-02 -.201E-01 -.752E-02
   0.481E+02 -.795E+02 -.267E+03   -.387E+02 0.776E+02 0.261E+03   -.953E+01 0.198E+01 0.656E+01   -.827E-02 -.932E-01 -.442E+00
   0.208E+02 -.991E+01 -.268E+03   -.244E+02 0.141E+02 0.249E+03   0.368E+01 -.417E+01 0.182E+02   0.630E-01 -.643E-01 0.199E+00
   -.392E+02 0.562E+02 -.684E+03   0.493E+02 -.679E+02 0.741E+03   -.101E+02 0.116E+02 -.566E+02   0.325E-01 -.290E-01 0.835E-01
 -----------------------------------------------------------------------------------------------
   0.137E+02 -.107E+02 0.332E+02   0.568E-13 -.711E-13 -.909E-12   -.138E+02 0.109E+02 -.316E+02   0.803E-01 -.154E+00 -.158E+01
 
 
 POSITION                                       TOTAL-FORCE (eV/Angst)
 -----------------------------------------------------------------------------------
      7.42038     12.73860      7.38367         0.024400      0.064732      0.006948
     -0.01051      1.41254      7.37582        -0.021425     -0.007956     -0.013023
      2.46826      0.01655      7.37509         0.022785      0.040419      0.001540
      2.47231      1.44026      7.37971        -0.026312     -0.022229      0.005008
      4.94300      0.02773      7.37451        -0.009595      0.043200      0.009498
      4.94486      1.44995      7.40847         0.006103     -0.004267     -0.000804
      7.42053      0.01549      7.35422        -0.014865      0.025961     -0.001928
      7.41914      1.44022      7.38349         0.032406     -0.002482     -0.004108
      2.47497     12.73694      7.33642        -0.032322      0.047285      0.001990
      9.90577      1.41030      7.35097         0.020747     -0.051616      0.001966
      4.95011     12.72691      7.37664         0.002454      0.011776      0.018861
     12.37976      1.40268      7.36295        -0.044403     -0.041881      0.013744
     13.61479      2.11706      7.37031         0.053508      0.011865     -0.013729
     -1.25171      3.53517      7.37653        -0.048432     -0.048204     -0.001061
      1.22618      2.13225      7.37373        -0.011899      0.013080     -0.008795
      1.22610      3.55289      7.36359        -0.028745     -0.042121     -0.000327
      3.71025      2.16549      7.41472         0.009091     -0.029512     -0.006282
      3.71516      3.59069      7.46002         0.032775      0.028470     -0.022937
      6.18094      2.16285      7.42246        -0.005989     -0.026687     -0.013521
      6.17870      3.59011      7.48419         0.021398     -0.010310      0.002265
      8.66771      2.12843      7.37763        -0.023869     -0.037032      0.003507
      8.66858      3.54667      7.41084         0.007323      0.009432      0.015335
     11.14310      2.11696      7.35788        -0.012790      0.010459      0.007199
     11.13997      3.54127      7.37022         0.005238     -0.024256      0.016980
     12.37600      4.24887      7.37793        -0.028721      0.008206      0.007648
     -2.49193      5.66579      7.38965        -0.052598      0.024763     -0.005490
     -0.02034      4.24682      7.38371         0.087471      0.040171     -0.018930
     -0.03398      5.66714      7.40701        -0.056515     -0.000988     -0.016205
      2.46599      4.27850      7.37825        -0.017047     -0.005774      0.023791
      2.43897      5.68171      7.37353         0.014023     -0.037100     -0.069007
      4.94313      4.33867      7.55436        -0.016895     -0.047563      0.005767
      4.96818      5.77088      7.71129         0.001485      0.012660     -0.026287
      7.43791      4.25739      7.47555        -0.036492      0.023799     -0.016933
      7.45416      5.67355      7.50956         0.030623      0.003879     -0.019028
      9.90606      4.25578      7.39232         0.034444     -0.018733      0.015213
      9.91157      5.67848      7.40693        -0.013954     -0.010665     -0.001526
     11.14049      6.38293      7.39331         0.047850      0.022731      0.010593
     -3.73009      7.79886      7.39402        -0.033020     -0.031371      0.004941
     -1.26566      6.37891      7.40557         0.063091      0.026493      0.003820
     -1.26833      7.80125      7.39720        -0.035835     -0.048878      0.004623
      1.19552      6.37222      7.35085        -0.008001      0.063232      0.017083
      1.19256      7.81109      7.32097         0.006046     -0.032624      0.004636
      6.25195      6.38803      7.61574        -0.008623      0.064882      0.005135
      6.25246      7.81136      7.61468         0.026432     -0.101321      0.009743
      8.67924      6.39250      7.45042        -0.033250      0.040418      0.015426
      8.67771      7.80756      7.45103        -0.050338     -0.084263      0.016419
     -4.96284      8.51355      7.41186         0.061906      0.067833     -0.018257
     -4.95514      9.93121      7.39850        -0.005406     -0.046245      0.004923
     -2.49902      8.51264      7.38251         0.017904      0.006998     -0.001769
     -2.49049      9.93304      7.36666        -0.044818     -0.027280      0.014775
     -0.04009      8.51326      7.37551        -0.006433      0.022361     -0.015403
     -0.02124      9.93140      7.33832         0.037035      0.002360     -0.029300
      2.43368      8.49502      7.26367         0.031718     -0.021521     -0.082297
      2.46461      9.89423      7.30366         0.025109      0.053722      0.008978
      4.98667      8.43090      7.69686        -0.077509      0.024984      0.002023
      4.94131      9.84977      7.51104         0.009800      0.020311      0.015579
      7.45754      8.50604      7.50010         0.036775      0.045419     -0.008551
      7.43742      9.90825      7.45984        -0.046901     -0.017652     -0.012826
      8.66604     10.62451      7.41114         0.008234      0.020758      0.017692
     -6.20277     12.04398      7.38606        -0.042673     -0.011890      0.006736
     -3.72596     10.64224      7.37335         0.030873      0.024979      0.012608
     -3.72545     12.06510      7.37114         0.006140     -0.036558      0.012557
     -1.25568     10.64370      7.34950         0.032100      0.012161      0.009018
     -1.25248     12.06378      7.35565         0.014922     -0.024334     -0.001844
      1.22533     10.62552      7.30703        -0.051756      0.004212     -0.003214
      1.22625     12.04530      7.32838         0.023391     -0.003163      0.014705
      3.71552     10.59014      7.39778        -0.016381     -0.039040     -0.017600
      3.71273     12.01164      7.36496         0.031151      0.029221     -0.000329
      6.18289     10.58092      7.45158         0.028201      0.027738     -0.006382
      6.18904     12.01468      7.39632        -0.040456     -0.028455      0.004210
      3.48672      7.10251      8.09290        -0.106557      0.057680      0.104041
      3.88232      6.64414      9.89161         0.138193     -0.000755     -0.036953
      4.08458      6.41243     11.01608         0.027678     -0.033925      0.017122
 -----------------------------------------------------------------------------------
    total drift:                               -0.021761      0.003088      0.029763


--------------------------------------------------------------------------------------------------------



  FREE ENERGIE OF THE ION-ELECTRON SYSTEM (eV)
  ---------------------------------------------------
  free  energy   TOTEN  =      -670.10770248 eV

  energy  without entropy=     -670.10770248  energy(sigma->0) =     -670.10770248
 


--------------------------------------------------------------------------------------------------------


    POTLOK:  cpu time    0.1458: real time    0.1463


--------------------------------------------------------------------------------------------------------


 stress matrix after NEB project (eV)
     -9.32059     -0.46234      0.28900
     -0.46234     -0.64690     -0.05439
      0.28900     -0.05439     -3.19758
  FORCES: max atom, RMS     0.159706    0.056669
  FORCE total and by dimension    0.484179    0.138193
  Stress total and by dimension    9.905396    9.320589
     LOOP+:  cpu time  243.9815: real time  246.6234
    4ORBIT:  cpu time    0.0000: real time    0.0000
 


 total charge     
 
# of ion       s       p       d       tot
------------------------------------------
    1        0.864   1.784   0.000   2.648
    2        0.864   1.780   0.000   2.644
    3        0.863   1.782   0.000   2.645
    4        0.863   1.778   0.000   2.642
    5        0.864   1.784   0.000   2.649
    6        0.865   1.783   0.000   2.648
    7        0.863   1.782   0.000   2.645
    8        0.864   1.776   0.000   2.640
    9        0.863   1.781   0.000   2.643
   10        0.864   1.781   0.000   2.645
   11        0.863   1.781   0.000   2.644
   12        0.864   1.780   0.000   2.644
   13        0.865   1.787   0.000   2.652
   14        0.865   1.788   0.000   2.653
   15        0.865   1.784   0.000   2.648
   16        0.865   1.776   0.000   2.641
   17        0.863   1.776   0.000   2.639
   18        0.865   1.766   0.000   2.630
   19        0.862   1.776   0.000   2.638
   20        0.863   1.763   0.000   2.626
   21        0.864   1.786   0.000   2.650
   22        0.866   1.786   0.000   2.653
   23        0.863   1.787   0.000   2.650
   24        0.865   1.784   0.000   2.648
   25        0.865   1.788   0.000   2.653
   26        0.867   1.792   0.000   2.659
   27        0.866   1.788   0.000   2.654
   28        0.868   1.792   0.000   2.661
   29        0.866   1.780   0.000   2.646
   30        0.883   1.695   0.000   2.578
   31        0.857   1.744   0.000   2.601
   32        0.867   1.628   0.000   2.495
   33        0.865   1.798   0.000   2.663
   34        0.873   1.801   0.000   2.674
   35        0.863   1.788   0.000   2.652
   36        0.866   1.792   0.000   2.657
   37        0.867   1.796   0.000   2.662
   38        0.865   1.791   0.000   2.656
   39        0.867   1.793   0.000   2.659
   40        0.867   1.791   0.000   2.658
   41        0.868   1.774   0.000   2.643
   42        0.870   1.771   0.000   2.641
   43        0.873   1.800   0.000   2.673
   44        0.870   1.748   0.000   2.617
   45        0.865   1.800   0.000   2.665
   46        0.856   1.763   0.000   2.618
   47        0.865   1.801   0.000   2.666
   48        0.866   1.793   0.000   2.659
   49        0.866   1.792   0.000   2.658
   50        0.866   1.787   0.000   2.653
   51        0.869   1.797   0.000   2.665
   52        0.866   1.785   0.000   2.652
   53        0.881   1.711   0.000   2.592
   54        0.866   1.772   0.000   2.638
   55        0.871   1.661   0.000   2.532
   56        0.860   1.746   0.000   2.606
   57        1.216   2.709   0.000   3.925
   58        0.854   1.755   0.000   2.609
   59        0.863   1.795   0.000   2.658
   60        0.863   1.784   0.000   2.647
   61        0.865   1.792   0.000   2.657
   62        0.865   1.786   0.000   2.651
   63        0.865   1.790   0.000   2.655
   64        0.865   1.785   0.000   2.651
   65        0.864   1.776   0.000   2.641
   66        0.865   1.779   0.000   2.644
   67        0.863   1.776   0.000   2.638
   68        0.864   1.773   0.000   2.637
   69        0.860   1.770   0.000   2.630
   70        0.861   1.773   0.000   2.634
   71        0.415   6.468   4.333  11.215
   72        0.981   1.544   0.000   2.526
   73        1.626   3.528   0.000   5.155
--------------------------------------------------
tot         63.941 136.771   4.333 205.045
 


 magnetization (x)
 
# of ion       s       p       d       tot
------------------------------------------
    1        0.000   0.002   0.000   0.003
    2       -0.000  -0.004   0.000  -0.004
    3        0.000   0.004   0.000   0.005
    4       -0.000  -0.006   0.000  -0.006
    5        0.000   0.005   0.000   0.006
    6       -0.000  -0.004   0.000  -0.005
    7        0.000   0.002   0.000   0.002
    8       -0.000  -0.003   0.000  -0.004
    9        0.001   0.008   0.000   0.009
   10       -0.000  -0.004   0.000  -0.005
   11        0.000   0.005   0.000   0.005
   12       -0.000  -0.002   0.000  -0.002
   13        0.000   0.005   0.000   0.005
   14       -0.000  -0.005   0.000  -0.006
   15        0.000   0.005   0.000   0.006
   16       -0.001  -0.005   0.000  -0.006
   17        0.000   0.005   0.000   0.005
   18       -0.001  -0.014   0.000  -0.015
   19        0.000   0.005   0.000   0.006
   20       -0.001  -0.005   0.000  -0.006
   21        0.000   0.006   0.000   0.007
   22       -0.000  -0.003   0.000  -0.003
   23        0.000   0.006   0.000   0.006
   24       -0.000  -0.003   0.000  -0.004
   25        0.000   0.007   0.000   0.007
   26       -0.000  -0.002   0.000  -0.003
   27        0.001   0.011   0.000   0.011
   28       -0.001  -0.006   0.000  -0.007
   29        0.002   0.019   0.000   0.021
   30       -0.007  -0.045   0.000  -0.052
   31        0.001   0.012   0.000   0.013
   32       -0.006  -0.032   0.000  -0.038
   33        0.000   0.003   0.000   0.003
   34       -0.000  -0.003   0.000  -0.004
   35        0.000   0.004   0.000   0.004
   36       -0.000  -0.004   0.000  -0.004
   37        0.000   0.002   0.000   0.002
   38       -0.000  -0.003   0.000  -0.004
   39        0.000   0.004   0.000   0.004
   40       -0.000  -0.006   0.000  -0.006
   41        0.002   0.019   0.000   0.021
   42        0.001  -0.006   0.000  -0.005
   43        0.002   0.009   0.000   0.011
   44        0.000  -0.006   0.000  -0.005
   45        0.000   0.004   0.000   0.005
   46       -0.000  -0.004   0.000  -0.004
   47        0.000   0.004   0.000   0.005
   48       -0.000  -0.007   0.000  -0.008
   49        0.000   0.006   0.000   0.006
   50       -0.000  -0.004   0.000  -0.004
   51        0.001   0.003   0.000   0.003
   52       -0.000  -0.002   0.000  -0.002
   53       -0.002   0.004   0.000   0.002
   54        0.000  -0.000   0.000  -0.000
   55       -0.005  -0.011   0.000  -0.016
   56       -0.000   0.000   0.000   0.000
   57        0.000   0.001   0.000   0.001
   58       -0.000  -0.004   0.000  -0.004
   59        0.000   0.005   0.000   0.005
   60       -0.000  -0.002   0.000  -0.002
   61        0.000   0.002   0.000   0.002
   62       -0.000  -0.005   0.000  -0.006
   63        0.000   0.004   0.000   0.004
   64       -0.000  -0.003   0.000  -0.003
   65        0.000   0.006   0.000   0.006
   66       -0.000  -0.002   0.000  -0.003
   67        0.001   0.008   0.000   0.009
   68       -0.000  -0.004   0.000  -0.004
   69       -0.000   0.001   0.000   0.001
   70       -0.000  -0.004   0.000  -0.004
   71        0.008   0.013   0.875   0.896
   72       -0.003   0.008   0.000   0.006
   73        0.000   0.032   0.000   0.032
--------------------------------------------------
tot         -0.007   0.022   0.875   0.890
 
 BZINTS: Fermi energy: -2.202050;303.000000 electrons
         Band energy:***********;  BLOECHL correction:  0.000000

 total amount of memory used by VASP MPI-rank0   115989. kBytes
=======================================================================

   base      :      30000. kBytes
   nonl-proj :      27264. kBytes
   fftplans  :       4700. kBytes
   grid      :      15193. kBytes
   one-center:        217. kBytes
   wavefun   :      38615. kBytes
 
  
  
 General timing and accounting informations for this job:
 ========================================================
  
                  Total CPU time used (sec):      262.005
                            User time (sec):      253.954
                          System time (sec):        8.052
                         Elapsed time (sec):      273.605
  
                   Maximum memory used (kb):      471136.
                   Average memory used (kb):           0.
  
                          Minor page faults:      1249512
                          Major page faults:            0
                 Voluntary context switches:         8943
