       N       E                     dE             d eps       ncg     rms          rms(c)
DAV:   1     0.274320707669E+04    0.27432E+04   -0.10954E+05  3952   0.120E+03
DAV:   2    -0.991976047766E+01   -0.27531E+04   -0.26565E+04  4696   0.314E+02
DAV:   3    -0.509292476914E+03   -0.49937E+03   -0.49573E+03  4036   0.151E+02
DAV:   4    -0.528485228225E+03   -0.19193E+02   -0.18726E+02  4240   0.415E+01
DAV:   5    -0.529285560501E+03   -0.80033E+00   -0.79174E+00  4728   0.671E+00    0.459E+01
DAV:   6    -0.496938106103E+03    0.32347E+02   -0.53734E+01  4432   0.276E+01    0.295E+01
DAV:   7    -0.488198803036E+03    0.87393E+01   -0.55862E+01  4168   0.202E+01    0.178E+01
DAV:   8    -0.486111573983E+03    0.20872E+01   -0.16605E+01  4056   0.136E+01    0.123E+01
DAV:   9    -0.486326975289E+03   -0.21540E+00   -0.14158E+01  5160   0.113E+01    0.658E+00
DAV:  10    -0.485639197047E+03    0.68778E+00   -0.67330E+00  4896   0.905E+00    0.335E+00
DAV:  11    -0.485574564755E+03    0.64632E-01   -0.19429E+00  4704   0.397E+00    0.199E+00
DAV:  12    -0.485521123115E+03    0.53442E-01   -0.10370E+00  4648   0.259E+00    0.129E+00
DAV:  13    -0.485486008055E+03    0.35115E-01   -0.30353E-01  4088   0.175E+00    0.511E-01
DAV:  14    -0.485486842025E+03   -0.83397E-03   -0.49486E-02  3856   0.694E-01    0.302E-01
DAV:  15    -0.485486292683E+03    0.54934E-03   -0.68909E-03  4552   0.316E-01    0.213E-01
DAV:  16    -0.485486344179E+03   -0.51496E-04   -0.16789E-03  4544   0.135E-01    0.133E-01
DAV:  17    -0.485486365337E+03   -0.21158E-04   -0.24929E-04  2512   0.623E-02
   1 F= -.48960469E+03 E0= -.48960469E+03  d E =0.000000E+00  mag=    -0.0000
