 vasp.5.4.4.18Apr17-6-g9f103f2a35 (build Nov  8 2022 18:58:45) complex           
 executed on             LinuxGNU date 2023.04.13  15:54:02
 running on   48 total cores
 distrk:  each k-point on   48 cores,    1 groups
 distr:  one band on NCORES_PER_BAND=  12 cores,    4 groups


--------------------------------------------------------------------------------------------------------


 INCAR:
 POTCAR:    PAW_PBE C 08Apr2002                   
 POTCAR:    PAW_PBE N 08Apr2002                   
 POTCAR:    PAW_PBE Ge_d 03Jul2007                
 POTCAR:    PAW_PBE C 08Apr2002                   
 POTCAR:    PAW_PBE O 08Apr2002                   
 POTCAR:    PAW_PBE C 08Apr2002                   
   SHA256 =  253f7b50bb8d59471dbedb8285d89021f4a42ed1a2c5d38a03a736e69125dd95 C/
   COPYR  = (c) Copyright 08Apr2002 Georg Kresse                                
   COPYR  = This file is part of the software VASP. Any use, copying, and all ot
   COPYR  = If you do not have a valid VASP license, you may not use, copy or di
   VRHFIN =C: s2p2                                                              
   LEXCH  = PE                                                                  
   EATOM  =   147.1560 eV,   10.8157 Ry                                         
                                                                                
   TITEL  = PAW_PBE C 08Apr2002                                                 
   LULTRA =        F    use ultrasoft PP ?                                      
   IUNSCR =        1    unscreen: 0-lin 1-nonlin 2-no                           
   RPACOR =    1.200    partial core radius                                     
   POMASS =   12.011; ZVAL   =    4.000    mass and valenz                      
   RCORE  =    1.500    outmost cutoff radius                                   
   RWIGS  =    1.630; RWIGS  =    0.863    wigner-seitz radius (au A)           
   ENMAX  =  400.000; ENMIN  =  300.000 eV                                      
   ICORE  =        2    local potential                                         
   LCOR   =        T    correct aug charges                                     
   LPAW   =        T    paw PP                                                  
   EAUG   =  644.873                                                            
   DEXC   =    0.000                                                            
   RMAX   =    1.529    core radius for proj-oper                               
   RAUG   =    1.300    factor for augmentation sphere                          
   RDEP   =    1.501    radius for radial grids                                 
   RDEPT  =    1.300    core radius for aug-charge                              
                                                                                
   Atomic configuration                                                         
    4 entries                                                                   
     n  l   j            E        occ.                                          
     1  0  0.50      -273.3789   2.0000                                         
     2  0  0.50       -13.7508   2.0000                                         
     2  1  0.50        -5.2854   2.0000                                         
     3  2  1.50        -5.4423   0.0000                                         
   Description                                                                  
     l       E           TYP  RCUT    TYP  RCUT                                 
     0    -13.7508458     23  1.200                                             
     0     -8.2022199     23  1.200                                             
     1     -5.2854383     23  1.500                                             
     1     34.0145650     23  1.500                                             
     2     -5.4423304      7  1.500                                             
  local pseudopotential read in
  partial core-charges read in
  partial kinetic energy density read in
  atomic valenz-charges read in
  non local Contribution for L=           0  read in
    real space projection operators read in
  non local Contribution for L=           0  read in
    real space projection operators read in
  non local Contribution for L=           1  read in
    real space projection operators read in
  non local Contribution for L=           1  read in
    real space projection operators read in
    PAW grid and wavefunctions read in

   number of l-projection  operators is LMAX  =           4
   number of lm-projection operators is LMMAX =           8

 POTCAR:    PAW_PBE N 08Apr2002                   
   SHA256 =  e053789ff3a61a86a1b75d8a110fcc91f86041011e7b0817c7c99e4e8a6349d7 N/
   COPYR  = (c) Copyright 08Apr2002 Georg Kresse                                
   COPYR  = This file is part of the software VASP. Any use, copying, and all ot
   COPYR  = If you do not have a valid VASP license, you may not use, copy or di
   VRHFIN =N: s2p3                                                              
   LEXCH  = PE                                                                  
   EATOM  =   264.5486 eV,   19.4438 Ry                                         
                                                                                
   TITEL  = PAW_PBE N 08Apr2002                                                 
   LULTRA =        F    use ultrasoft PP ?                                      
   IUNSCR =        1    unscreen: 0-lin 1-nonlin 2-no                           
   RPACOR =    1.200    partial core radius                                     
   POMASS =   14.001; ZVAL   =    5.000    mass and valenz                      
   RCORE  =    1.500    outmost cutoff radius                                   
   RWIGS  =    1.400; RWIGS  =    0.741    wigner-seitz radius (au A)           
   ENMAX  =  400.000; ENMIN  =  300.000 eV                                      
   ICORE  =        2    local potential                                         
   LCOR   =        T    correct aug charges                                     
   LPAW   =        T    paw PP                                                  
   EAUG   =  627.112                                                            
   DEXC   =    0.000                                                            
   RMAX   =    1.529    core radius for proj-oper                               
   RAUG   =    1.300    factor for augmentation sphere                          
   RDEP   =    1.514    radius for radial grids                                 
   RDEPT  =    1.338    core radius for aug-charge                              
                                                                                
   Atomic configuration                                                         
    4 entries                                                                   
     n  l   j            E        occ.                                          
     1  0  0.50      -384.7179   2.0000                                         
     2  0  0.50       -18.5828   2.0000                                         
     2  1  0.50        -7.0898   3.0000                                         
     3  2  1.50        -6.8029   0.0000                                         
   Description                                                                  
     l       E           TYP  RCUT    TYP  RCUT                                 
     0    -18.5828119     23  1.200                                             
     0    -13.5018863     23  1.200                                             
     1     -7.0897853     23  1.500                                             
     1      9.5240782     23  1.500                                             
     2     -6.8029130      7  1.500                                             
  local pseudopotential read in
  partial core-charges read in
  partial kinetic energy density read in
  atomic valenz-charges read in
  non local Contribution for L=           0  read in
    real space projection operators read in
  non local Contribution for L=           0  read in
    real space projection operators read in
  non local Contribution for L=           1  read in
    real space projection operators read in
  non local Contribution for L=           1  read in
    real space projection operators read in
    PAW grid and wavefunctions read in

   number of l-projection  operators is LMAX  =           4
   number of lm-projection operators is LMMAX =           8

 POTCAR:    PAW_PBE Ge_d 03Jul2007                
   SHA256 =  944b26c40d2d7c4f4eb1ff3a2e8dbfdd7129146276cd341854bfd5c0e57780ed Ge
   COPYR  = (c) Copyright 03Jul2007 Georg Kresse                                
   COPYR  = This file is part of the software VASP. Any use, copying, and all ot
   COPYR  = If you do not have a valid VASP license, you may not use, copy or di
   VRHFIN =Ge: 3d4s4p                                                           
   LEXCH  = PE                                                                  
   EATOM  =  2596.2402 eV,  190.8183 Ry                                         
                                                                                
   TITEL  = PAW_PBE Ge_d 03Jul2007                                              
   LULTRA =        F    use ultrasoft PP ?                                      
   IUNSCR =        1    unscreen: 0-lin 1-nonlin 2-no                           
   RPACOR =    2.000    partial core radius                                     
   POMASS =   72.610; ZVAL   =   14.000    mass and valenz                      
   RCORE  =    2.300    outmost cutoff radius                                   
   RWIGS  =    2.300; RWIGS  =    1.217    wigner-seitz radius (au A)           
   ENMAX  =  310.294; ENMIN  =  232.720 eV                                      
   ICORE  =        3    local potential                                         
   LCOR   =        T    correct aug charges                                     
   LPAW   =        T    paw PP                                                  
   EAUG   =  531.356                                                            
   DEXC   =    0.000                                                            
   RMAX   =    2.342    core radius for proj-oper                               
   RAUG   =    1.300    factor for augmentation sphere                          
   RDEP   =    2.318    radius for radial grids                                 
   RDEPT  =    1.783    core radius for aug-charge                              
                                                                                
   Atomic configuration                                                         
    9 entries                                                                   
     n  l   j            E        occ.                                          
     1  0  0.50    -10959.8463   2.0000                                         
     2  0  0.50     -1371.6056   2.0000                                         
     2  1  1.50     -1198.4791   6.0000                                         
     3  0  0.50      -168.4733   2.0000                                         
     3  1  1.50      -115.6019   6.0000                                         
     3  2  2.50       -29.3106  10.0000                                         
     4  0  0.50       -11.7309   2.0000                                         
     4  1  0.50        -3.8952   2.0000                                         
     4  3  2.50        -4.0817   0.0000                                         
   Description                                                                  
     l       E           TYP  RCUT    TYP  RCUT                                 
     2    -29.3105938     23  2.200                                             
     2    -13.6058260     23  2.200                                             
     0    -11.7309493     23  2.300                                             
     0     -7.4578696     23  2.300                                             
     1     -3.8952261     23  2.300                                             
     1      6.1178114     23  2.300                                             
     3     -1.3605826     23  2.300                                             
  local pseudopotential read in
  partial core-charges read in
  partial kinetic energy density read in
  atomic valenz-charges read in
  non local Contribution for L=           2  read in
    real space projection operators read in
  non local Contribution for L=           2  read in
    real space projection operators read in
  non local Contribution for L=           0  read in
    real space projection operators read in
  non local Contribution for L=           0  read in
    real space projection operators read in
  non local Contribution for L=           1  read in
    real space projection operators read in
  non local Contribution for L=           1  read in
    real space projection operators read in
    PAW grid and wavefunctions read in

   number of l-projection  operators is LMAX  =           6
   number of lm-projection operators is LMMAX =          18

 POTCAR:    PAW_PBE C 08Apr2002                   
   SHA256 =  253f7b50bb8d59471dbedb8285d89021f4a42ed1a2c5d38a03a736e69125dd95 C/
   COPYR  = (c) Copyright 08Apr2002 Georg Kresse                                
   COPYR  = This file is part of the software VASP. Any use, copying, and all ot
   COPYR  = If you do not have a valid VASP license, you may not use, copy or di
   VRHFIN =C: s2p2                                                              
   LEXCH  = PE                                                                  
   EATOM  =   147.1560 eV,   10.8157 Ry                                         
                                                                                
   TITEL  = PAW_PBE C 08Apr2002                                                 
   LULTRA =        F    use ultrasoft PP ?                                      
   IUNSCR =        1    unscreen: 0-lin 1-nonlin 2-no                           
   RPACOR =    1.200    partial core radius                                     
   POMASS =   12.011; ZVAL   =    4.000    mass and valenz                      
   RCORE  =    1.500    outmost cutoff radius                                   
   RWIGS  =    1.630; RWIGS  =    0.863    wigner-seitz radius (au A)           
   ENMAX  =  400.000; ENMIN  =  300.000 eV                                      
   ICORE  =        2    local potential                                         
   LCOR   =        T    correct aug charges                                     
   LPAW   =        T    paw PP                                                  
   EAUG   =  644.873                                                            
   DEXC   =    0.000                                                            
   RMAX   =    1.529    core radius for proj-oper                               
   RAUG   =    1.300    factor for augmentation sphere                          
   RDEP   =    1.501    radius for radial grids                                 
   RDEPT  =    1.300    core radius for aug-charge                              
                                                                                
   Atomic configuration                                                         
    4 entries                                                                   
     n  l   j            E        occ.                                          
     1  0  0.50      -273.3789   2.0000                                         
     2  0  0.50       -13.7508   2.0000                                         
     2  1  0.50        -5.2854   2.0000                                         
     3  2  1.50        -5.4423   0.0000                                         
   Description                                                                  
     l       E           TYP  RCUT    TYP  RCUT                                 
     0    -13.7508458     23  1.200                                             
     0     -8.2022199     23  1.200                                             
     1     -5.2854383     23  1.500                                             
     1     34.0145650     23  1.500                                             
     2     -5.4423304      7  1.500                                             
  local pseudopotential read in
  partial core-charges read in
  partial kinetic energy density read in
  atomic valenz-charges read in
  non local Contribution for L=           0  read in
    real space projection operators read in
  non local Contribution for L=           0  read in
    real space projection operators read in
  non local Contribution for L=           1  read in
    real space projection operators read in
  non local Contribution for L=           1  read in
    real space projection operators read in
    PAW grid and wavefunctions read in

   number of l-projection  operators is LMAX  =           4
   number of lm-projection operators is LMMAX =           8

 POTCAR:    PAW_PBE O 08Apr2002                   
   SHA256 =  818f92134a0a090dccd8ba1447fa70422a3b330e708bb4f08108d8ae51209ddf O/
   COPYR  = (c) Copyright 08Apr2002 Georg Kresse                                
   COPYR  = This file is part of the software VASP. Any use, copying, and all ot
   COPYR  = If you do not have a valid VASP license, you may not use, copy or di
   VRHFIN =O: s2p4                                                              
   LEXCH  = PE                                                                  
   EATOM  =   432.3788 eV,   31.7789 Ry                                         
                                                                                
   TITEL  = PAW_PBE O 08Apr2002                                                 
   LULTRA =        F    use ultrasoft PP ?                                      
   IUNSCR =        1    unscreen: 0-lin 1-nonlin 2-no                           
   RPACOR =    1.200    partial core radius                                     
   POMASS =   16.000; ZVAL   =    6.000    mass and valenz                      
   RCORE  =    1.520    outmost cutoff radius                                   
   RWIGS  =    1.550; RWIGS  =    0.820    wigner-seitz radius (au A)           
   ENMAX  =  400.000; ENMIN  =  300.000 eV                                      
   ICORE  =        2    local potential                                         
   LCOR   =        T    correct aug charges                                     
   LPAW   =        T    paw PP                                                  
   EAUG   =  605.392                                                            
   DEXC   =    0.000                                                            
   RMAX   =    1.553    core radius for proj-oper                               
   RAUG   =    1.300    factor for augmentation sphere                          
   RDEP   =    1.550    radius for radial grids                                 
   RDEPT  =    1.329    core radius for aug-charge                              
                                                                                
   Atomic configuration                                                         
    4 entries                                                                   
     n  l   j            E        occ.                                          
     1  0  0.50      -514.6923   2.0000                                         
     2  0  0.50       -23.9615   2.0000                                         
     2  1  0.50        -9.0305   4.0000                                         
     3  2  1.50        -9.5241   0.0000                                         
   Description                                                                  
     l       E           TYP  RCUT    TYP  RCUT                                 
     0    -23.9615318     23  1.200                                             
     0     -9.5240782     23  1.200                                             
     1     -9.0304911     23  1.520                                             
     1      8.1634956     23  1.520                                             
     2     -9.5240782      7  1.500                                             
  local pseudopotential read in
  partial core-charges read in
  partial kinetic energy density read in
  kinetic energy density of atom read in
  atomic valenz-charges read in
  non local Contribution for L=           0  read in
    real space projection operators read in
  non local Contribution for L=           0  read in
    real space projection operators read in
  non local Contribution for L=           1  read in
    real space projection operators read in
  non local Contribution for L=           1  read in
    real space projection operators read in
    PAW grid and wavefunctions read in

   number of l-projection  operators is LMAX  =           4
   number of lm-projection operators is LMMAX =           8


 ----------------------------------------------------------------------------- 
|                                                                             |
|  ADVICE TO THIS USER RUNNING 'VASP/VAMP'   (HEAR YOUR MASTER'S VOICE ...):  |
|                                                                             |
|      You have a (more or less) 'large supercell' and for larger cells       |
|      it might be more efficient to use real space projection opertators     |
|      So try LREAL= Auto  in the INCAR   file.                               |
|      Mind:          For very  accurate calculation you might also keep the  |
|      reciprocal projection scheme          (i.e. LREAL=.FALSE.)             |
|                                                                             |
 ----------------------------------------------------------------------------- 

  PAW_PBE C 08Apr2002                   :
 energy of atom  1       EATOM= -147.1560
 kinetic energy error for atom=    0.0132 (will be added to EATOM!!)
  PAW_PBE N 08Apr2002                   :
 energy of atom  2       EATOM= -264.5486
 kinetic energy error for atom=    0.0298 (will be added to EATOM!!)
  PAW_PBE Ge_d 03Jul2007                :
 energy of atom  3       EATOM=-2596.2402
 kinetic energy error for atom=    0.0090 (will be added to EATOM!!)
  PAW_PBE C 08Apr2002                   :
 energy of atom  4       EATOM= -147.1560
 kinetic energy error for atom=    0.0132 (will be added to EATOM!!)
  PAW_PBE O 08Apr2002                   :
 energy of atom  5       EATOM= -432.3788
 kinetic energy error for atom=    0.0458 (will be added to EATOM!!)


 POSCAR: POSCAR-c3n4                             
  positions in cartesian coordinates
  No initial velocities read in
 exchange correlation table for  LEXCH =        8
   RHO(1)=    0.500       N(1)  =     2000
   RHO(2)=  100.500       N(2)  =     4000



--------------------------------------------------------------------------------------------------------


 ion  position               nearest neighbor table
   1  0.106  0.214  0.436-  26 1.29  46 1.29  25 1.36
   2  0.288  0.399  0.443-  29 1.27  35 1.33  25 1.38
   3  0.104  0.392  0.437-  44 1.27  39 1.32  25 1.37
   4  0.447  0.064  0.516-  30 1.27  27 1.28  48 1.35
   5  0.453  0.401  0.422-  28 1.28  29 1.29  56 1.37
   6  0.112  0.053  0.459-  26 1.27  31 1.28  32 1.34
   7  0.096  0.712  0.494-  54 1.28  34 1.30  33 1.35
   8  0.284  0.890  0.511-  27 1.28  37 1.30  33 1.36
   9  0.109  0.895  0.508-  31 1.27  52 1.29  33 1.38
  10  0.448  0.548  0.512-  38 1.27  56 1.30  35 1.30
  11  0.445  0.885  0.499-  37 1.28  36 1.29  48 1.33
  12  0.087  0.542  0.491-  34 1.27  40 1.29  39 1.30
  13  0.616  0.223  0.483-  42 1.30  30 1.30  41 1.35
  14  0.780  0.390  0.410-  45 1.29  51 1.31  41 1.35
  15  0.610  0.394  0.445-  28 1.29  55 1.29  41 1.39
  16  0.940  0.052  0.471-  46 1.27  43 1.28  32 1.34
  17  0.941  0.387  0.404-  45 1.27  44 1.29  40 1.37
  18  0.623  0.066  0.522-  42 1.28  47 1.29  48 1.35
  19  0.613  0.711  0.541-  50 1.27  38 1.31  49 1.35
  20  0.790  0.897  0.533-  43 1.27  53 1.29  49 1.39
  21  0.609  0.892  0.531-  47 1.28  36 1.29  49 1.38
  22  0.938  0.563  0.430-  51 1.26  54 1.29  40 1.36
  23  0.954  0.902  0.545-  52 1.29  53 1.29  32 1.34
  24  0.621  0.555  0.500-  55 1.26  50 1.28  56 1.36
  25  0.167  0.335  0.435-   1 1.36   3 1.37   2 1.38
  26  0.165  0.161  0.431-   6 1.27   1 1.29
  27  0.336  0.002  0.532-   8 1.28   4 1.28
  28  0.512  0.352  0.402-   5 1.28  15 1.29
  29  0.345  0.361  0.400-   2 1.27   5 1.29
  30  0.506  0.177  0.503-   4 1.27  13 1.30
  31  0.159  0.988  0.457-   9 1.27   6 1.28
  32  0.002  0.002  0.493-  16 1.34  23 1.34   6 1.34
  33  0.165  0.831  0.510-   7 1.35   8 1.36   9 1.38
  34  0.134  0.645  0.528-  12 1.27   7 1.30
  35  0.334  0.491  0.501-  10 1.30   2 1.33  57 1.98
  36  0.503  0.831  0.500-  11 1.29  21 1.29
  37  0.333  0.829  0.489-  11 1.28   8 1.30
  38  0.499  0.648  0.555-  10 1.27  19 1.31
  39  0.142  0.484  0.495-  12 1.30   3 1.32  57 1.99
  40  0.988  0.496  0.446-  12 1.29  22 1.36  17 1.37
  41  0.667  0.330  0.439-  13 1.35  14 1.35  15 1.39
  42  0.680  0.178  0.505-  18 1.28  13 1.30
  43  0.827  0.986  0.478-  20 1.27  16 1.28
  44  0.011  0.348  0.389-   3 1.27  17 1.29
  45  0.830  0.330  0.389-  17 1.27  14 1.29
  46  0.993  0.161  0.445-  16 1.27   1 1.29
  47  0.669  0.005  0.549-  21 1.28  18 1.29
  48  0.505  0.004  0.508-  11 1.33  18 1.35   4 1.35
  49  0.668  0.832  0.544-  19 1.35  21 1.38  20 1.39
  50  0.675  0.666  0.522-  19 1.27  24 1.28
  51  0.832  0.507  0.406-  22 1.26  14 1.31
  52  0.016  0.853  0.559-  23 1.29   9 1.29
  53  0.849  0.860  0.576-  20 1.29  23 1.29
  54  0.004  0.677  0.444-   7 1.28  22 1.29
  55  0.668  0.491  0.494-  24 1.26  15 1.29
  56  0.506  0.502  0.477-  10 1.30  24 1.36   5 1.37
  57  0.287  0.593  0.568-  35 1.98  39 1.99
  58  0.287  0.593  0.966-  59 1.11
  59  0.232  0.530  0.023-  58 1.11


IMPORTANT INFORMATION: All symmetrisations will be switched off!
NOSYMM: (Re-)initialisation of all symmetry stuff for point group C_1.



 KPOINTS: K-Points                                

Automatic generation of k-mesh.
Space group operators:
 irot       det(A)        alpha          n_x          n_y          n_z        tau_x        tau_y        tau_z
    1     1.000000     0.000000     1.000000     0.000000     0.000000     0.000000     0.000000     0.000000
 
 Subroutine IBZKPT returns following result:
 ===========================================
 
 Found      5 irreducible k-points:
 
 Following reciprocal coordinates:
            Coordinates               Weight
  0.000000  0.000000  0.000000      1.000000
  0.333333  0.000000  0.000000      2.000000
  0.000000  0.333333  0.000000      2.000000
  0.333333  0.333333  0.000000      2.000000
 -0.333333  0.333333  0.000000      2.000000
 
 Following cartesian coordinates:
            Coordinates               Weight
  0.000000  0.000000  0.000000      1.000000
  0.024277  0.014368  0.000000      2.000000
  0.000396  0.028736  0.000000      2.000000
  0.024673  0.043104  0.000000      2.000000
 -0.023881  0.014368  0.000000      2.000000
 
 TETIRR: Found     24 inequivalent tetrahedra from       54


--------------------------------------------------------------------------------------------------------




 Dimension of arrays:
   k-points           NKPTS =      5   k-points in BZ     NKDIM =      5   number of bands    NBANDS=    172
   number of dos      NEDOS =   4000   number of ions     NIONS =     59
   non local maximal  LDIM  =      6   non local SUM 2l+1 LMDIM =     18
   total plane-waves  NPLWV = 392000
   max r-space proj   IRMAX =      1   max aug-charges    IRDMAX=   6385
   dimension x,y,z NGX =    70 NGY =   70 NGZ =   80
   dimension x,y,z NGXF=   140 NGYF=  140 NGZF=  160
   support grid    NGXF=   140 NGYF=  140 NGZF=  160
   ions per type =              24  32   1   1   1
   NGX,Y,Z   is equivalent  to a cutoff of   8.76,  8.92,  9.24 a.u.
   NGXF,Y,Z  is equivalent  to a cutoff of  17.51, 17.84, 18.47 a.u.

 SYSTEM =  unknown system                          
 POSCAR =  POSCAR-c3n4                             

 Startparameter for this run:
   NWRITE =      2    write-flag & timer
   PREC   = normal    normal or accurate (medium, high low for compatibility)
   ISTART =      0    job   : 0-new  1-cont  2-samecut
   ICHARG =      2    charge: 1-file 2-atom 10-const
   ISPIN  =      2    spin polarized calculation?
   LNONCOLLINEAR =      F non collinear calculations
   LSORBIT =      F    spin-orbit coupling
   INIWAV =      1    electr: 0-lowe 1-rand  2-diag
   LASPH  =      F    aspherical Exc in radial PAW
   METAGGA=      F    non-selfconsistent MetaGGA calc.

 Electronic Relaxation 1
   ENCUT  =  440.0 eV  32.34 Ry    5.69 a.u.  22.73 22.31 24.63*2*pi/ulx,y,z
   ENINI  =  440.0     initial cutoff
   ENAUG  =  644.9 eV  augmentation charge cutoff
   NELM   =    100;   NELMIN=  2; NELMDL= -5     # of ELM steps 
   EDIFF  = 0.1E-03   stopping-criterion for ELM
   LREAL  =      F    real-space projection
   NLSPLINE    = F    spline interpolate recip. space projectors
   LCOMPAT=      F    compatible to vasp.4.4
   GGA_COMPAT  = T    GGA compatible to vasp.4.4-vasp.4.6
   LMAXPAW     = -100 max onsite density
   LMAXMIX     =    2 max onsite mixed and CHGCAR
   VOSKOWN=      0    Vosko Wilk Nusair interpolation
   ROPT   =    0.00000   0.00000   0.00000   0.00000
   ROPT   =    0.00000
 Ionic relaxation
   EDIFFG = -.1E-01   stopping-criterion for IOM
   NSW    =      0    number of steps for IOM
   NBLOCK =      1;   KBLOCK =      1    inner block; outer block 
   IBRION =     -1    ionic relax: 0-MD 1-quasi-New 2-CG
   NFREE  =      0    steps in history (QN), initial steepest desc. (CG)
   ISIF   =      2    stress and relaxation
   IWAVPR =     10    prediction:  0-non 1-charg 2-wave 3-comb
   ISYM   =      0    0-nonsym 1-usesym 2-fastsym
   LCORR  =      T    Harris-Foulkes like correction to forces

   POTIM  = 0.5000    time-step for ionic-motion
   TEIN   =    0.0    initial temperature
   TEBEG  =    0.0;   TEEND  =   0.0 temperature during run
   SMASS  =  -3.00    Nose mass-parameter (am)
   estimated Nose-frequenzy (Omega)   =  0.10E-29 period in steps =****** mass=  -0.404E-26a.u.
   SCALEE = 1.0000    scale energy and forces
   NPACO  =    256;   APACO  = 16.0  distance and # of slots for P.C.
   PSTRESS=    0.0 pullay stress

  Mass of Ions in am
   POMASS =  12.01 14.00 72.61 12.01 16.00
  Ionic Valenz
   ZVAL   =   4.00  5.00 14.00  4.00  6.00
  Atomic Wigner-Seitz radii
   RWIGS  =  -1.00 -1.00 -1.00 -1.00 -1.00
  virtual crystal weights 
   VCA    =   1.00  1.00  1.00  1.00  1.00
   NELECT =     280.0000    total number of electrons
   NUPDOWN=      -1.0000    fix difference up-down

 DOS related values:
   EMIN   = -14.00;   EMAX   =  6.00  energy-range for DOS
   EFERMI =   0.00
   ISMEAR =    -5;   SIGMA  =   0.20  broadening in eV -4-tet -1-fermi 0-gaus

 Electronic relaxation 2 (details)
   IALGO  =     38    algorithm
   LDIAG  =      T    sub-space diagonalisation (order eigenvalues)
   LSUBROT=      F    optimize rotation matrix (better conditioning)
   TURBO    =      0    0=normal 1=particle mesh
   IRESTART =      0    0=no restart 2=restart with 2 vectors
   NREBOOT  =      0    no. of reboots
   NMIN     =      0    reboot dimension
   EREF     =   0.00    reference energy to select bands
   IMIX   =      4    mixing-type and parameters
     AMIX     =   0.25;   BMIX     =  0.00
     AMIX_MAG =   1.00;   BMIX_MAG =  0.00
     AMIN     =   0.10
     WC   =   100.;   INIMIX=   1;  MIXPRE=   1;  MAXMIX= -45

 Intra band minimization:
   WEIMIN = 0.0000     energy-eigenvalue tresh-hold
   EBREAK =  0.15E-06  absolut break condition
   DEPER  =   0.30     relativ break condition  

   TIME   =   0.40     timestep for ELM

  volume/ion in A,a.u.               =      36.12       243.75
  Fermi-wavevector in a.u.,A,eV,Ry     =   0.832264  1.572750  9.424249  0.692663
  Thomas-Fermi vector in A             =   1.945290

 Write flags
   LWAVE        =      F    write WAVECAR
   LDOWNSAMPLE  =      F    k-point downsampling of WAVECAR
   LCHARG       =      F    write CHGCAR
   LVTOT        =      F    write LOCPOT, total local potential
   LVHAR        =      F    write LOCPOT, Hartree potential only
   LELF         =      F    write electronic localiz. function (ELF)
   LORBIT       =     11    0 simple, 1 ext, 2 COOP (PROOUT), +10 PAW based schemes


 Dipole corrections
   LMONO  =      F    monopole corrections only (constant potential shift)
   LDIPOL =      F    correct potential (dipole corrections)
   IDIPOL =      0    1-x, 2-y, 3-z, 4-all directions 
   EPSILON=  1.0000000 bulk dielectric constant

 Exchange correlation treatment:
   GGA     =    --    GGA type
   LEXCH   =     8    internal setting for exchange type
   VOSKOWN=      0    Vosko Wilk Nusair interpolation
   LHFCALC =     F    Hartree Fock is set to
   LHFONE  =     F    Hartree Fock one center treatment
   AEXX    =    0.0000 exact exchange contribution

 Linear response parameters
   LEPSILON=     F    determine dielectric tensor
   LRPA    =     F    only Hartree local field effects (RPA)
   LNABLA  =     F    use nabla operator in PAW spheres
   LVEL    =     F    velocity operator in full k-point grid
   LINTERFAST=   F  fast interpolation
   KINTER  =     0    interpolate to denser k-point grid
   CSHIFT  =0.1000    complex shift for real part using Kramers Kronig
   OMEGAMAX=  -1.0    maximum frequency
   DEG_THRESHOLD= 0.2000000E-02 threshold for treating states as degnerate
   RTIME   =   -0.100 relaxation time in fs
  (WPLASMAI=    0.000 imaginary part of plasma frequency in eV, 0.658/RTIME)
   DFIELD  = 0.0000000 0.0000000 0.0000000 field for delta impulse in time

 Orbital magnetization related:
   ORBITALMAG=     F  switch on orbital magnetization
   LCHIMAG   =     F  perturbation theory with respect to B field
   DQ        =  0.001000  dq finite difference perturbation B field
   LLRAUG    =     F  two centre corrections for induced B field



--------------------------------------------------------------------------------------------------------


 Static calculation
 charge density and potential will be updated during run
 spin polarized calculation
 Variant of blocked Davidson
 Davidson routine will perform the subspace rotation
 perform sub-space diagonalisation
    after iterative eigenvector-optimisation
 modified Broyden-mixing scheme, WC =      100.0
 initial mixing is a Kerker type mixing with AMIX =  0.2500 and BMIX =      0.0001
 Hartree-type preconditioning will be used
 using additional bands           32
 reciprocal scheme for non local part
 use partial core corrections
 calculate Harris-corrections to forces   (improved forces if not selfconsistent)
 use gradient corrections 
 use of overlap-Matrix (Vanderbilt PP)
 Fermi weights with tetrahedron method with Bloechl corrections


--------------------------------------------------------------------------------------------------------


  energy-cutoff  :      440.00
  volume of cell :     2131.08
      direct lattice vectors                 reciprocal lattice vectors
    13.289687265 -0.183110855  0.000000000     0.075864968  0.044900119 -0.000000000
    -6.644843633 11.227383354  0.000000000     0.001237305  0.089800238 -0.000000000
     0.000000000  0.000000000 14.400000000    -0.000000000 -0.000000000  0.069444444

  length of vectors
    13.290948694 13.046382023 14.400000000     0.088156191  0.089808762  0.069444444



 k-points in units of 2pi/SCALE and weight: K-Points                                
   0.00000000  0.00000000  0.00000000       0.111
   0.02427679  0.01436804  0.00000000       0.222
   0.00039594  0.02873608  0.00000000       0.222
   0.02467273  0.04310411  0.00000000       0.222
  -0.02388085  0.01436804  0.00000000       0.222

 k-points in reciprocal lattice and weights: K-Points                                
   0.00000000  0.00000000  0.00000000       0.111
   0.33333333  0.00000000  0.00000000       0.222
   0.00000000  0.33333333  0.00000000       0.222
   0.33333333  0.33333333  0.00000000       0.222
  -0.33333333  0.33333333  0.00000000       0.222

 position of ions in fractional coordinates (direct lattice) 
   0.10567936  0.21351909  0.43638452
   0.28750403  0.39866334  0.44307848
   0.10379301  0.39177313  0.43720774
   0.44732828  0.06383887  0.51561413
   0.45258916  0.40124889  0.42244582
   0.11203481  0.05273921  0.45860169
   0.09638015  0.71191070  0.49382164
   0.28433946  0.89006364  0.51112159
   0.10941441  0.89537413  0.50804572
   0.44792521  0.54827090  0.51182417
   0.44544784  0.88520183  0.49889037
   0.08690842  0.54210436  0.49059155
   0.61614813  0.22292684  0.48262487
   0.78023735  0.38968276  0.40980308
   0.61037743  0.39432339  0.44538198
   0.93951642  0.05229783  0.47062057
   0.94071854  0.38652888  0.40380040
   0.62278394  0.06558106  0.52195204
   0.61322902  0.71118454  0.54116914
   0.78984871  0.89727295  0.53280047
   0.60944297  0.89248269  0.53124739
   0.93832005  0.56283419  0.43042990
   0.95436023  0.90171878  0.54458488
   0.62130548  0.55465507  0.49978063
   0.16668926  0.33545237  0.43494871
   0.16473950  0.16097029  0.43087242
   0.33626584  0.00180669  0.53207802
   0.51175722  0.35246859  0.40230650
   0.34471728  0.36074551  0.39967324
   0.50565751  0.17673507  0.50307206
   0.15873210  0.98821904  0.45657691
   0.00214731  0.00186372  0.49276218
   0.16462634  0.83083069  0.51017993
   0.13400723  0.64526801  0.52770834
   0.33371346  0.49116238  0.50147098
   0.50288345  0.83078126  0.49964378
   0.33307237  0.82932770  0.48929409
   0.49902190  0.64803204  0.55475412
   0.14173676  0.48364631  0.49503647
   0.98839512  0.49595573  0.44590834
   0.66736443  0.33015381  0.43923807
   0.67970142  0.17802103  0.50515807
   0.82720183  0.98622484  0.47776955
   0.01097216  0.34809993  0.38872280
   0.83047981  0.33016544  0.38944898
   0.99296173  0.16101876  0.44505124
   0.66886761  0.00524437  0.54940128
   0.50484899  0.00388347  0.50822952
   0.66830364  0.83227641  0.54411956
   0.67536455  0.66551462  0.52238502
   0.83211404  0.50666912  0.40566699
   0.01584380  0.85299492  0.55859758
   0.84924332  0.85956436  0.57597004
   0.00424175  0.67726383  0.44447513
   0.66753141  0.49127771  0.49374111
   0.50565566  0.50179634  0.47708161
   0.28676550  0.59288202  0.56771515
   0.28676550  0.59288202  0.96638181
   0.23209909  0.52992702  0.02273763

 position of ions in cartesian coordinates  (Angst):
  -0.01435527  2.37790959  6.28393703
   1.17178305  4.42330102  6.38033008
  -1.22389461  4.37958150  6.29579139
   5.52065366  0.63483277  7.42484348
   3.34853218  4.42210115  6.08321988
   1.13846380  0.57160858  6.60386428
  -3.44967325  7.97524611  7.11103156
  -2.13555124  9.94102004  7.36015085
  -4.49553787 10.03267365  7.31585841
   2.30961161  6.07362762  7.37026808
   0.03783477  9.85693397  7.18402132
  -2.44721306  6.07049964  7.06451834
   6.70710196  2.39006170  6.94979815
   7.77972932  4.23224784  5.90116440
   5.49150783  4.31545317  6.41350047
  12.13836856  0.41513210  6.77693616
   9.93343126  4.16745217  5.81472571
   7.84082791  0.62226515  7.51610940
   3.42391188  7.87245260  7.79283565
   4.53460387  9.92939755  7.67232676
   2.16889853  9.90864963  7.64996237
   8.73003482  6.14733867  6.19819063
   6.69136864  9.94918873  7.84202225
   4.57135935  6.11355736  7.19684108
  -0.01378041  3.73572976  6.26326146
   1.11971408  1.77710952  6.20456289
   4.45686263 -0.04128955  7.66192350
   4.45899480  3.86359164  5.79321359
   2.18408731  3.98710667  5.75529463
   5.54565321  1.89168106  7.24423770
  -4.45706110 11.06604844  6.57470747
   0.01615297  0.02053150  7.09577536
  -3.33290736  9.29790976  7.34659095
  -2.50679085  7.22013311  7.59900012
   1.17125037  5.45336173  7.22118217
   1.16275225  9.23541622  7.19487042
  -1.08432527  9.25019083  7.04583486
   2.32577342  7.18432782  7.98845928
  -1.33011689  5.40412894  7.12852512
   9.83991379  5.38729926  6.42108012
   6.67524413  3.58456175  6.32502815
   7.85009745  1.87424963  7.27427626
   4.43994383 10.92125470  6.87988155
  -2.16725303  3.90624218  5.59760839
   8.84291920  3.55482410  5.60806524
  12.12620632  1.62599727  6.40873785
   8.85419343 -0.06359641  7.91137844
   6.68348017 -0.04884212  7.31850515
   3.35119984  9.22191264  7.83532164
   4.55314303  7.34832120  7.52234433
   7.69179823  5.53619936  5.84160472
  -5.45745877  9.57399981  8.04380511
   5.57450736  9.49515297  8.29396863
  -4.44394077  7.60312397  6.40044194
   5.60682005  5.39353095  7.10987201
   3.38564734  5.54126888  6.86997521
  -0.12858453  6.60400390  8.17509812
  -0.12858453  6.60400390 13.91589812
  -0.43675792  5.90719395  0.32742182



--------------------------------------------------------------------------------------------------------


 k-point  1 :   0.0000 0.0000 0.0000  plane waves:   44623
 k-point  2 :   0.3333 0.0000 0.0000  plane waves:   44684
 k-point  3 :   0.0000 0.3333 0.0000  plane waves:   44690
 k-point  4 :   0.3333 0.3333 0.0000  plane waves:   44678
 k-point  5 :  -0.3333 0.3333 0.0000  plane waves:   44633

 maximum and minimum number of plane-waves per node :      3749     3702

 maximum number of plane-waves:     44690
 maximum index in each direction: 
   IXMAX=   23   IYMAX=   22   IZMAX=   24
   IXMIN=  -23   IYMIN=  -22   IZMIN=  -24


 parallel 3D FFT for wavefunctions:
    minimum data exchange during FFTs selected (reduces bandwidth)
 parallel 3D FFT for charge:
    minimum data exchange during FFTs selected (reduces bandwidth)


 total amount of memory used by VASP MPI-rank0    86188. kBytes
=======================================================================

   base      :      30000. kBytes
   nonl-proj :      16940. kBytes
   fftplans  :       3323. kBytes
   grid      :       9764. kBytes
   one-center:        155. kBytes
   wavefun   :      26006. kBytes

     INWAV:  cpu time    0.0001: real time    0.0001
 Broyden mixing: mesh for mixing (old mesh)
   NGX = 45   NGY = 45   NGZ = 49
  (NGX  =140   NGY  =140   NGZ  =160)
  gives a total of  99225 points

 initial charge density was supplied:
 charge density of overlapping atoms calculated
 number of electron     280.0000000 magnetization       2.0000000
 keeping initial charge density in first step


--------------------------------------------------------------------------------------------------------


 Maximum index for augmentation-charges          216 (set IRDMAX)


--------------------------------------------------------------------------------------------------------


 First call to EWALD:  gamma=   0.138
 Maximum number of real-space cells 3x 3x 3
 Maximum number of reciprocal cells 3x 3x 3

    FEWALD:  cpu time    0.0035: real time    0.0035


--------------------------------------- Iteration      1(   1)  ---------------------------------------


    POTLOK:  cpu time    0.1208: real time    0.1292
    SETDIJ:  cpu time    0.0109: real time    0.0110
     EDDAV:  cpu time   10.8763: real time   10.9097
 BZINTS: Fermi energy:  9.877220;280.000000 electrons
         Band energy:***********;  BLOECHL correction: -0.020029
       DOS:  cpu time    0.2195: real time    0.2195
    --------------------------------------------
      LOOP:  cpu time   11.2274: real time   11.2694

 eigenvalue-minimisations  :  3952
 total energy-change (2. order) : 0.2743207E+04  (-0.1095401E+05)
 number of electron     280.0000000 magnetization       2.0000000
 augmentation part      280.0000000 magnetization       2.0000000

 Free energy of the ion-electron system (eV)
  ---------------------------------------------------
  alpha Z        PSCENC =       174.85037942
  Ewald energy   TEWEN  =     26818.79328041
  -Hartree energ DENC   =    -38585.51528205
  -exchange      EXHF   =         0.00000000
  -V(xc)+E(xc)   XCENC  =      1084.02747107
  PAW double counting   =     11453.83848114   -11942.90478952
  entropy T*S    EENTRO =         0.00000000
  eigenvalues    EBANDS =     -1431.61861596
  atomic energy  EATOM  =     15171.73615219
  Solvation  Ediel_sol  =         0.00000000
  ---------------------------------------------------
  free energy    TOTEN  =      2743.20707669 eV

  energy without entropy =     2743.20707669  energy(sigma->0) =     2743.20707669


--------------------------------------------------------------------------------------------------------




--------------------------------------- Iteration      1(   2)  ---------------------------------------


     EDDAV:  cpu time   12.5752: real time   12.5864
 BZINTS: Fermi energy: -0.025256;280.000000 electrons
         Band energy:***********;  BLOECHL correction:  0.000000
       DOS:  cpu time    0.0152: real time    0.0152
    --------------------------------------------
      LOOP:  cpu time   12.5904: real time   12.6016

 eigenvalue-minimisations  :  4696
 total energy-change (2. order) :-0.2753127E+04  (-0.2656508E+04)
 number of electron     280.0000000 magnetization       2.0000000
 augmentation part      280.0000000 magnetization       2.0000000

 Free energy of the ion-electron system (eV)
  ---------------------------------------------------
  alpha Z        PSCENC =       174.85037942
  Ewald energy   TEWEN  =     26818.79328041
  -Hartree energ DENC   =    -38585.51528205
  -exchange      EXHF   =         0.00000000
  -V(xc)+E(xc)   XCENC  =      1084.02747107
  PAW double counting   =     11453.83848114   -11942.90478952
  entropy T*S    EENTRO =         0.00000000
  eigenvalues    EBANDS =     -4184.74545313
  atomic energy  EATOM  =     15171.73615219
  Solvation  Ediel_sol  =         0.00000000
  ---------------------------------------------------
  free energy    TOTEN  =        -9.91976048 eV

  energy without entropy =       -9.91976048  energy(sigma->0) =       -9.91976048


--------------------------------------------------------------------------------------------------------




--------------------------------------- Iteration      1(   3)  ---------------------------------------


     EDDAV:  cpu time   10.8313: real time   10.8422
 BZINTS: Fermi energy: -3.471118;280.000000 electrons
         Band energy:***********;  BLOECHL correction:  0.000000
       DOS:  cpu time    0.0160: real time    0.0160
    --------------------------------------------
      LOOP:  cpu time   10.8473: real time   10.8582

 eigenvalue-minimisations  :  4036
 total energy-change (2. order) :-0.4993727E+03  (-0.4957317E+03)
 number of electron     280.0000000 magnetization       2.0000000
 augmentation part      280.0000000 magnetization       2.0000000

 Free energy of the ion-electron system (eV)
  ---------------------------------------------------
  alpha Z        PSCENC =       174.85037942
  Ewald energy   TEWEN  =     26818.79328041
  -Hartree energ DENC   =    -38585.51528205
  -exchange      EXHF   =         0.00000000
  -V(xc)+E(xc)   XCENC  =      1084.02747107
  PAW double counting   =     11453.83848114   -11942.90478952
  entropy T*S    EENTRO =         0.00000000
  eigenvalues    EBANDS =     -4684.11816957
  atomic energy  EATOM  =     15171.73615219
  Solvation  Ediel_sol  =         0.00000000
  ---------------------------------------------------
  free energy    TOTEN  =      -509.29247691 eV

  energy without entropy =     -509.29247691  energy(sigma->0) =     -509.29247691


--------------------------------------------------------------------------------------------------------




--------------------------------------- Iteration      1(   4)  ---------------------------------------


     EDDAV:  cpu time   11.4483: real time   11.4491
 BZINTS: Fermi energy: -3.841210;280.000000 electrons
         Band energy:***********;  BLOECHL correction:  0.000000
       DOS:  cpu time    0.0165: real time    0.0165
    --------------------------------------------
      LOOP:  cpu time   11.4648: real time   11.4656

 eigenvalue-minimisations  :  4240
 total energy-change (2. order) :-0.1919275E+02  (-0.1872579E+02)
 number of electron     280.0000000 magnetization       2.0000000
 augmentation part      280.0000000 magnetization       2.0000000

 Free energy of the ion-electron system (eV)
  ---------------------------------------------------
  alpha Z        PSCENC =       174.85037942
  Ewald energy   TEWEN  =     26818.79328041
  -Hartree energ DENC   =    -38585.51528205
  -exchange      EXHF   =         0.00000000
  -V(xc)+E(xc)   XCENC  =      1084.02747107
  PAW double counting   =     11453.83848114   -11942.90478952
  entropy T*S    EENTRO =         0.00000000
  eigenvalues    EBANDS =     -4703.31092088
  atomic energy  EATOM  =     15171.73615219
  Solvation  Ediel_sol  =         0.00000000
  ---------------------------------------------------
  free energy    TOTEN  =      -528.48522822 eV

  energy without entropy =     -528.48522822  energy(sigma->0) =     -528.48522822


--------------------------------------------------------------------------------------------------------




--------------------------------------- Iteration      1(   5)  ---------------------------------------


     EDDAV:  cpu time   12.4441: real time   12.4535
 BZINTS: Fermi energy: -3.876219;280.000000 electrons
         Band energy:***********;  BLOECHL correction:  0.000000
       DOS:  cpu time    0.0161: real time    0.0161
    CHARGE:  cpu time    0.2567: real time    0.2568
    MIXING:  cpu time    0.0027: real time    0.0027
    --------------------------------------------
      LOOP:  cpu time   12.7196: real time   12.7292

 eigenvalue-minimisations  :  4728
 total energy-change (2. order) :-0.8003323E+00  (-0.7917445E+00)
 number of electron     280.0000056 magnetization       0.0000002
 augmentation part       21.2053063 magnetization       0.0273108

 Broyden mixing:
  rms(total) = 0.45934E+01    rms(broyden)= 0.45906E+01
  rms(prec ) = 0.50855E+01
  weight for this iteration     100.00

 Free energy of the ion-electron system (eV)
  ---------------------------------------------------
  alpha Z        PSCENC =       174.85037942
  Ewald energy   TEWEN  =     26818.79328041
  -Hartree energ DENC   =    -38585.51528205
  -exchange      EXHF   =         0.00000000
  -V(xc)+E(xc)   XCENC  =      1084.02747107
  PAW double counting   =     11453.83848114   -11942.90478952
  entropy T*S    EENTRO =         0.00000000
  eigenvalues    EBANDS =     -4704.11125315
  atomic energy  EATOM  =     15171.73615219
  Solvation  Ediel_sol  =         0.00000000
  ---------------------------------------------------
  free energy    TOTEN  =      -529.28556050 eV

  energy without entropy =     -529.28556050  energy(sigma->0) =     -529.28556050


--------------------------------------------------------------------------------------------------------




--------------------------------------- Iteration      1(   6)  ---------------------------------------


    POTLOK:  cpu time    0.1017: real time    0.1092
    SETDIJ:  cpu time    0.0097: real time    0.0097
     EDDAV:  cpu time   12.1718: real time   12.1728
 BZINTS: Fermi energy: -3.206052;280.000000 electrons
         Band energy:***********;  BLOECHL correction:  0.000000
       DOS:  cpu time    0.0150: real time    0.0150
    CHARGE:  cpu time    0.2444: real time    0.2444
    MIXING:  cpu time    0.0024: real time    0.0058
    --------------------------------------------
      LOOP:  cpu time   12.5450: real time   12.5570

 eigenvalue-minimisations  :  4432
 total energy-change (2. order) : 0.3234745E+02  (-0.5373366E+01)
 number of electron     280.0000053 magnetization      -0.0000001
 augmentation part       20.1249874 magnetization       0.0111154

 Broyden mixing:
  rms(total) = 0.29480E+01    rms(broyden)= 0.29477E+01
  rms(prec ) = 0.31715E+01
  weight for this iteration     100.00

 eigenvalues of (default mixing * dielectric matrix)
  average eigenvalue GAMMA=   1.5498
  1.5498

 Free energy of the ion-electron system (eV)
  ---------------------------------------------------
  alpha Z        PSCENC =       174.85037942
  Ewald energy   TEWEN  =     26818.79328041
  -Hartree energ DENC   =    -38961.80664333
  -exchange      EXHF   =         0.00000000
  -V(xc)+E(xc)   XCENC  =      1100.86171260
  PAW double counting   =     15660.89487995   -16153.25700822
  entropy T*S    EENTRO =         0.00000000
  eigenvalues    EBANDS =     -4309.01085911
  atomic energy  EATOM  =     15171.73615219
  Solvation  Ediel_sol  =         0.00000000
  ---------------------------------------------------
  free energy    TOTEN  =      -496.93810610 eV

  energy without entropy =     -496.93810610  energy(sigma->0) =     -496.93810610


--------------------------------------------------------------------------------------------------------




--------------------------------------- Iteration      1(   7)  ---------------------------------------


    POTLOK:  cpu time    0.0977: real time    0.1037
    SETDIJ:  cpu time    0.0090: real time    0.0090
     EDDAV:  cpu time   11.4700: real time   11.4708
 BZINTS: Fermi energy: -2.450863;280.000000 electrons
         Band energy:***********;  BLOECHL correction:  0.000000
       DOS:  cpu time    0.0147: real time    0.0147
    CHARGE:  cpu time    0.2477: real time    0.2477
    MIXING:  cpu time    0.0020: real time    0.0023
    --------------------------------------------
      LOOP:  cpu time   11.8411: real time   11.8482

 eigenvalue-minimisations  :  4168
 total energy-change (2. order) : 0.8739303E+01  (-0.5586179E+01)
 number of electron     280.0000059 magnetization      -0.0000000
 augmentation part       19.5171785 magnetization      -0.0000615

 Broyden mixing:
  rms(total) = 0.17790E+01    rms(broyden)= 0.17785E+01
  rms(prec ) = 0.19128E+01
  weight for this iteration     100.00

 eigenvalues of (default mixing * dielectric matrix)
  average eigenvalue GAMMA=   1.6362
  0.9765  2.2960

 Free energy of the ion-electron system (eV)
  ---------------------------------------------------
  alpha Z        PSCENC =       174.85037942
  Ewald energy   TEWEN  =     26818.79328041
  -Hartree energ DENC   =    -39341.36086961
  -exchange      EXHF   =         0.00000000
  -V(xc)+E(xc)   XCENC  =      1116.31268922
  PAW double counting   =     22285.06476300   -22782.43182157
  entropy T*S    EENTRO =         0.00000000
  eigenvalues    EBANDS =     -3931.16337610
  atomic energy  EATOM  =     15171.73615219
  Solvation  Ediel_sol  =         0.00000000
  ---------------------------------------------------
  free energy    TOTEN  =      -488.19880304 eV

  energy without entropy =     -488.19880304  energy(sigma->0) =     -488.19880304


--------------------------------------------------------------------------------------------------------




--------------------------------------- Iteration      1(   8)  ---------------------------------------


    POTLOK:  cpu time    0.1060: real time    0.1072
    SETDIJ:  cpu time    0.0091: real time    0.0091
     EDDAV:  cpu time   11.2282: real time   11.2291
 BZINTS: Fermi energy: -1.860715;280.000000 electrons
         Band energy:***********;  BLOECHL correction:  0.000000
       DOS:  cpu time    0.0162: real time    0.0162
    CHARGE:  cpu time    0.3036: real time    0.3036
    MIXING:  cpu time    0.0028: real time    0.0028
    --------------------------------------------
      LOOP:  cpu time   11.6659: real time   11.6680

 eigenvalue-minimisations  :  4056
 total energy-change (2. order) : 0.2087229E+01  (-0.1660485E+01)
 number of electron     280.0000055 magnetization       0.0000000
 augmentation part       19.2876432 magnetization      -0.0003405

 Broyden mixing:
  rms(total) = 0.12313E+01    rms(broyden)= 0.12311E+01
  rms(prec ) = 0.12961E+01
  weight for this iteration     100.00

 eigenvalues of (default mixing * dielectric matrix)
  average eigenvalue GAMMA=   1.7362
  3.1875  1.3036  0.7174

 Free energy of the ion-electron system (eV)
  ---------------------------------------------------
  alpha Z        PSCENC =       174.85037942
  Ewald energy   TEWEN  =     26818.79328041
  -Hartree energ DENC   =    -39463.76161828
  -exchange      EXHF   =         0.00000000
  -V(xc)+E(xc)   XCENC  =      1121.46782793
  PAW double counting   =     26493.53367102   -26993.75708788
  entropy T*S    EENTRO =         0.00000000
  eigenvalues    EBANDS =     -3808.97417878
  atomic energy  EATOM  =     15171.73615219
  Solvation  Ediel_sol  =         0.00000000
  ---------------------------------------------------
  free energy    TOTEN  =      -486.11157398 eV

  energy without entropy =     -486.11157398  energy(sigma->0) =     -486.11157398


--------------------------------------------------------------------------------------------------------




--------------------------------------- Iteration      1(   9)  ---------------------------------------


    POTLOK:  cpu time    0.1067: real time    0.1101
    SETDIJ:  cpu time    0.0096: real time    0.0096
     EDDAV:  cpu time   13.4785: real time   13.4831
 BZINTS: Fermi energy: -1.714429;280.000000 electrons
         Band energy:***********;  BLOECHL correction:  0.000000
       DOS:  cpu time    0.0144: real time    0.0144
    CHARGE:  cpu time    0.2546: real time    0.2546
    MIXING:  cpu time    0.0020: real time    0.0020
    --------------------------------------------
      LOOP:  cpu time   13.8658: real time   13.8738

 eigenvalue-minimisations  :  5160
 total energy-change (2. order) :-0.2154013E+00  (-0.1415840E+01)
 number of electron     280.0000054 magnetization       0.0000000
 augmentation part       19.3683016 magnetization       0.0003364

 Broyden mixing:
  rms(total) = 0.65777E+00    rms(broyden)= 0.65744E+00
  rms(prec ) = 0.82915E+00
  weight for this iteration     100.00

 eigenvalues of (default mixing * dielectric matrix)
  average eigenvalue GAMMA=   1.6538
  3.6603  1.4418  0.7565  0.7565

 Free energy of the ion-electron system (eV)
  ---------------------------------------------------
  alpha Z        PSCENC =       174.85037942
  Ewald energy   TEWEN  =     26818.79328041
  -Hartree energ DENC   =    -39522.44887025
  -exchange      EXHF   =         0.00000000
  -V(xc)+E(xc)   XCENC  =      1123.84947289
  PAW double counting   =     31627.44488996   -32132.52335537
  entropy T*S    EENTRO =         0.00000000
  eigenvalues    EBANDS =     -3748.02892453
  atomic energy  EATOM  =     15171.73615219
  Solvation  Ediel_sol  =         0.00000000
  ---------------------------------------------------
  free energy    TOTEN  =      -486.32697529 eV

  energy without entropy =     -486.32697529  energy(sigma->0) =     -486.32697529


--------------------------------------------------------------------------------------------------------




--------------------------------------- Iteration      1(  10)  ---------------------------------------


    POTLOK:  cpu time    0.1088: real time    0.1090
    SETDIJ:  cpu time    0.0091: real time    0.0091
     EDDAV:  cpu time   12.8440: real time   12.8450
 BZINTS: Fermi energy: -1.405601;280.000000 electrons
         Band energy:***********;  BLOECHL correction:  0.000000
       DOS:  cpu time    0.0149: real time    0.0149
    CHARGE:  cpu time    0.2560: real time    0.2560
    MIXING:  cpu time    0.0022: real time    0.0022
    --------------------------------------------
      LOOP:  cpu time   13.2350: real time   13.2361

 eigenvalue-minimisations  :  4896
 total energy-change (2. order) : 0.6877782E+00  (-0.6733038E+00)
 number of electron     280.0000055 magnetization       0.0000000
 augmentation part       19.3483326 magnetization       0.0004208

 Broyden mixing:
  rms(total) = 0.33484E+00    rms(broyden)= 0.33425E+00
  rms(prec ) = 0.39030E+00
  weight for this iteration     100.00

 eigenvalues of (default mixing * dielectric matrix)
  average eigenvalue GAMMA=   1.5644
  3.9107  1.6800  1.0277  0.6017  0.6017

 Free energy of the ion-electron system (eV)
  ---------------------------------------------------
  alpha Z        PSCENC =       174.85037942
  Ewald energy   TEWEN  =     26818.79328041
  -Hartree energ DENC   =    -39531.50724534
  -exchange      EXHF   =         0.00000000
  -V(xc)+E(xc)   XCENC  =      1124.62561477
  PAW double counting   =     33700.46596284   -34205.46136642
  entropy T*S    EENTRO =         0.00000000
  eigenvalues    EBANDS =     -3739.14197491
  atomic energy  EATOM  =     15171.73615219
  Solvation  Ediel_sol  =         0.00000000
  ---------------------------------------------------
  free energy    TOTEN  =      -485.63919705 eV

  energy without entropy =     -485.63919705  energy(sigma->0) =     -485.63919705


--------------------------------------------------------------------------------------------------------




--------------------------------------- Iteration      1(  11)  ---------------------------------------


    POTLOK:  cpu time    0.1054: real time    0.1091
    SETDIJ:  cpu time    0.0099: real time    0.0099
     EDDAV:  cpu time   12.5999: real time   12.6008
 BZINTS: Fermi energy: -1.519380;280.000000 electrons
         Band energy:***********;  BLOECHL correction:  0.000000
       DOS:  cpu time    0.0144: real time    0.0144
    CHARGE:  cpu time    0.2562: real time    0.2562
    MIXING:  cpu time    0.0022: real time    0.0022
    --------------------------------------------
      LOOP:  cpu time   12.9880: real time   12.9926

 eigenvalue-minimisations  :  4704
 total energy-change (2. order) : 0.6463229E-01  (-0.1942944E+00)
 number of electron     280.0000055 magnetization      -0.0000000
 augmentation part       19.3455713 magnetization       0.0000599

 Broyden mixing:
  rms(total) = 0.19857E+00    rms(broyden)= 0.19839E+00
  rms(prec ) = 0.24930E+00
  weight for this iteration     100.00

 eigenvalues of (default mixing * dielectric matrix)
  average eigenvalue GAMMA=   1.4962
  3.8986  1.7808  1.2003  0.9623  0.5675  0.5675

 Free energy of the ion-electron system (eV)
  ---------------------------------------------------
  alpha Z        PSCENC =       174.85037942
  Ewald energy   TEWEN  =     26818.79328041
  -Hartree energ DENC   =    -39509.60620544
  -exchange      EXHF   =         0.00000000
  -V(xc)+E(xc)   XCENC  =      1124.06936373
  PAW double counting   =     34738.24131454   -35242.67648699
  entropy T*S    EENTRO =         0.00000000
  eigenvalues    EBANDS =     -3760.98236260
  atomic energy  EATOM  =     15171.73615219
  Solvation  Ediel_sol  =         0.00000000
  ---------------------------------------------------
  free energy    TOTEN  =      -485.57456476 eV

  energy without entropy =     -485.57456476  energy(sigma->0) =     -485.57456476


--------------------------------------------------------------------------------------------------------




--------------------------------------- Iteration      1(  12)  ---------------------------------------


    POTLOK:  cpu time    0.1067: real time    0.1093
    SETDIJ:  cpu time    0.0092: real time    0.0092
     EDDAV:  cpu time   12.4264: real time   12.4272
 BZINTS: Fermi energy: -1.570643;280.000000 electrons
         Band energy:***********;  BLOECHL correction:  0.000000
       DOS:  cpu time    0.0154: real time    0.0154
    CHARGE:  cpu time    0.2416: real time    0.2417
    MIXING:  cpu time    0.0024: real time    0.0024
    --------------------------------------------
      LOOP:  cpu time   12.8018: real time   12.8052

 eigenvalue-minimisations  :  4648
 total energy-change (2. order) : 0.5344164E-01  (-0.1037043E+00)
 number of electron     280.0000055 magnetization      -0.0000000
 augmentation part       19.3388191 magnetization      -0.0000341

 Broyden mixing:
  rms(total) = 0.12948E+00    rms(broyden)= 0.12925E+00
  rms(prec ) = 0.16767E+00
  weight for this iteration     100.00

 eigenvalues of (default mixing * dielectric matrix)
  average eigenvalue GAMMA=   1.4869
  3.8583  2.2488  1.3793  0.9047  0.9047  0.5563  0.5563

 Free energy of the ion-electron system (eV)
  ---------------------------------------------------
  alpha Z        PSCENC =       174.85037942
  Ewald energy   TEWEN  =     26818.79328041
  -Hartree energ DENC   =    -39489.17444458
  -exchange      EXHF   =         0.00000000
  -V(xc)+E(xc)   XCENC  =      1123.42510351
  PAW double counting   =     34983.58320220   -35487.39010330
  entropy T*S    EENTRO =         0.00000000
  eigenvalues    EBANDS =     -3781.34469295
  atomic energy  EATOM  =     15171.73615219
  Solvation  Ediel_sol  =         0.00000000
  ---------------------------------------------------
  free energy    TOTEN  =      -485.52112312 eV

  energy without entropy =     -485.52112312  energy(sigma->0) =     -485.52112312


--------------------------------------------------------------------------------------------------------




--------------------------------------- Iteration      1(  13)  ---------------------------------------


    POTLOK:  cpu time    0.1114: real time    0.1135
    SETDIJ:  cpu time    0.0094: real time    0.0094
     EDDAV:  cpu time   11.1821: real time   11.1863
 BZINTS: Fermi energy: -1.605651;280.000000 electrons
         Band energy:***********;  BLOECHL correction:  0.000000
       DOS:  cpu time    0.0145: real time    0.0145
    CHARGE:  cpu time    0.3112: real time    0.3112
    MIXING:  cpu time    0.0027: real time    0.0027
    --------------------------------------------
      LOOP:  cpu time   11.6312: real time   11.6375

 eigenvalue-minimisations  :  4088
 total energy-change (2. order) : 0.3511506E-01  (-0.3035257E-01)
 number of electron     280.0000055 magnetization      -0.0000000
 augmentation part       19.3529353 magnetization      -0.0000218

 Broyden mixing:
  rms(total) = 0.51057E-01    rms(broyden)= 0.50945E-01
  rms(prec ) = 0.56955E-01
  weight for this iteration     100.00

 eigenvalues of (default mixing * dielectric matrix)
  average eigenvalue GAMMA=   1.4653
  3.8502  2.5012  1.5194  0.9048  0.9048  0.9327  0.5548  0.5548

 Free energy of the ion-electron system (eV)
  ---------------------------------------------------
  alpha Z        PSCENC =       174.85037942
  Ewald energy   TEWEN  =     26818.79328041
  -Hartree energ DENC   =    -39472.83504772
  -exchange      EXHF   =         0.00000000
  -V(xc)+E(xc)   XCENC  =      1122.85688699
  PAW double counting   =     35118.98494280   -35622.66297130
  entropy T*S    EENTRO =         0.00000000
  eigenvalues    EBANDS =     -3797.20963083
  atomic energy  EATOM  =     15171.73615219
  Solvation  Ediel_sol  =         0.00000000
  ---------------------------------------------------
  free energy    TOTEN  =      -485.48600806 eV

  energy without entropy =     -485.48600806  energy(sigma->0) =     -485.48600806


--------------------------------------------------------------------------------------------------------




--------------------------------------- Iteration      1(  14)  ---------------------------------------


    POTLOK:  cpu time    0.1060: real time    0.1062
    SETDIJ:  cpu time    0.0096: real time    0.0096
     EDDAV:  cpu time   10.6015: real time   10.6022
 BZINTS: Fermi energy: -1.625656;280.000000 electrons
         Band energy:***********;  BLOECHL correction:  0.000000
       DOS:  cpu time    0.0148: real time    0.0148
    CHARGE:  cpu time    0.2555: real time    0.2555
    MIXING:  cpu time    0.0028: real time    0.0028
    --------------------------------------------
      LOOP:  cpu time   10.9902: real time   10.9911

 eigenvalue-minimisations  :  3856
 total energy-change (2. order) :-0.8339694E-03  (-0.4948588E-02)
 number of electron     280.0000055 magnetization      -0.0000000
 augmentation part       19.3557541 magnetization      -0.0000210

 Broyden mixing:
  rms(total) = 0.30236E-01    rms(broyden)= 0.30222E-01
  rms(prec ) = 0.33465E-01
  weight for this iteration     100.00

 eigenvalues of (default mixing * dielectric matrix)
  average eigenvalue GAMMA=   1.4202
  3.8177  2.4926  1.5172  1.0632  1.0632  0.8557  0.8557  0.5581  0.5581

 Free energy of the ion-electron system (eV)
  ---------------------------------------------------
  alpha Z        PSCENC =       174.85037942
  Ewald energy   TEWEN  =     26818.79328041
  -Hartree energ DENC   =    -39468.96434643
  -exchange      EXHF   =         0.00000000
  -V(xc)+E(xc)   XCENC  =      1122.72367256
  PAW double counting   =     35186.19977964   -35689.79468135
  entropy T*S    EENTRO =         0.00000000
  eigenvalues    EBANDS =     -3801.03107846
  atomic energy  EATOM  =     15171.73615219
  Solvation  Ediel_sol  =         0.00000000
  ---------------------------------------------------
  free energy    TOTEN  =      -485.48684202 eV

  energy without entropy =     -485.48684202  energy(sigma->0) =     -485.48684202


--------------------------------------------------------------------------------------------------------




--------------------------------------- Iteration      1(  15)  ---------------------------------------


    POTLOK:  cpu time    0.1052: real time    0.1053
    SETDIJ:  cpu time    0.0094: real time    0.0094
     EDDAV:  cpu time   12.3738: real time   12.3746
 BZINTS: Fermi energy: -1.620655;280.000000 electrons
         Band energy:***********;  BLOECHL correction:  0.000000
       DOS:  cpu time    0.0148: real time    0.0148
    CHARGE:  cpu time    0.2395: real time    0.2395
    MIXING:  cpu time    0.0029: real time    0.0029
    --------------------------------------------
      LOOP:  cpu time   12.7456: real time   12.7466

 eigenvalue-minimisations  :  4552
 total energy-change (2. order) : 0.5493418E-03  (-0.6890936E-03)
 number of electron     280.0000055 magnetization      -0.0000000
 augmentation part       19.3553960 magnetization       0.0000007

 Broyden mixing:
  rms(total) = 0.21271E-01    rms(broyden)= 0.21267E-01
  rms(prec ) = 0.21920E-01
  weight for this iteration     100.00

 eigenvalues of (default mixing * dielectric matrix)
  average eigenvalue GAMMA=   1.4466
  3.7517  2.5977  1.8603  1.2947  1.2947  0.8837  0.8837  0.7830  0.5581  0.5581

 Free energy of the ion-electron system (eV)
  ---------------------------------------------------
  alpha Z        PSCENC =       174.85037942
  Ewald energy   TEWEN  =     26818.79328041
  -Hartree energ DENC   =    -39470.26627250
  -exchange      EXHF   =         0.00000000
  -V(xc)+E(xc)   XCENC  =      1122.75307602
  PAW double counting   =     35192.32304294   -35696.00172789
  entropy T*S    EENTRO =         0.00000000
  eigenvalues    EBANDS =     -3799.67422327
  atomic energy  EATOM  =     15171.73615219
  Solvation  Ediel_sol  =         0.00000000
  ---------------------------------------------------
  free energy    TOTEN  =      -485.48629268 eV

  energy without entropy =     -485.48629268  energy(sigma->0) =     -485.48629268


--------------------------------------------------------------------------------------------------------




--------------------------------------- Iteration      1(  16)  ---------------------------------------


    POTLOK:  cpu time    0.1044: real time    0.1050
    SETDIJ:  cpu time    0.0089: real time    0.0089
     EDDAV:  cpu time   12.2848: real time   12.2856
 BZINTS: Fermi energy: -1.620655;280.000000 electrons
         Band energy:***********;  BLOECHL correction:  0.000000
       DOS:  cpu time    0.0164: real time    0.0164
    CHARGE:  cpu time    0.2303: real time    0.2304
    MIXING:  cpu time    0.0033: real time    0.0033
    --------------------------------------------
      LOOP:  cpu time   12.6480: real time   12.6495

 eigenvalue-minimisations  :  4544
 total energy-change (2. order) :-0.5149630E-04  (-0.1678932E-03)
 number of electron     280.0000055 magnetization      -0.0000000
 augmentation part       19.3552176 magnetization       0.0000003

 Broyden mixing:
  rms(total) = 0.13305E-01    rms(broyden)= 0.13303E-01
  rms(prec ) = 0.13600E-01
  weight for this iteration     100.00

 eigenvalues of (default mixing * dielectric matrix)
  average eigenvalue GAMMA=   1.4972
  3.6254  3.1171  2.3364  1.2293  1.2017  1.2017  0.9046  0.9046  0.8313  0.5586
  0.5586

 Free energy of the ion-electron system (eV)
  ---------------------------------------------------
  alpha Z        PSCENC =       174.85037942
  Ewald energy   TEWEN  =     26818.79328041
  -Hartree energ DENC   =    -39470.96720655
  -exchange      EXHF   =         0.00000000
  -V(xc)+E(xc)   XCENC  =      1122.76619623
  PAW double counting   =     35195.71185215   -35699.40808784
  entropy T*S    EENTRO =         0.00000000
  eigenvalues    EBANDS =     -3798.96891019
  atomic energy  EATOM  =     15171.73615219
  Solvation  Ediel_sol  =         0.00000000
  ---------------------------------------------------
  free energy    TOTEN  =      -485.48634418 eV

  energy without entropy =     -485.48634418  energy(sigma->0) =     -485.48634418


--------------------------------------------------------------------------------------------------------




--------------------------------------- Iteration      1(  17)  ---------------------------------------


    POTLOK:  cpu time    0.1016: real time    0.1019
    SETDIJ:  cpu time    0.0087: real time    0.0087
     EDDAV:  cpu time    8.0360: real time    8.0367
 BZINTS: Fermi energy: -1.619405;280.000000 electrons
         Band energy:***********;  BLOECHL correction:  0.000000
       DOS:  cpu time    0.0152: real time    0.0152
    --------------------------------------------
      LOOP:  cpu time    8.1616: real time    8.1626

 eigenvalue-minimisations  :  2512
 total energy-change (2. order) :-0.2115775E-04  (-0.2492923E-04)
 number of electron     280.0000055 magnetization      -0.0000000
 augmentation part       19.3552176 magnetization       0.0000003

 Free energy of the ion-electron system (eV)
  ---------------------------------------------------
  alpha Z        PSCENC =       174.85037942
  Ewald energy   TEWEN  =     26818.79328041
  -Hartree energ DENC   =    -39471.26954118
  -exchange      EXHF   =         0.00000000
  -V(xc)+E(xc)   XCENC  =      1122.77491908
  PAW double counting   =     35200.71979662   -35704.41424295
  entropy T*S    EENTRO =         0.00000000
  eigenvalues    EBANDS =     -3798.67710892
  atomic energy  EATOM  =     15171.73615219
  Solvation  Ediel_sol  =         0.00000000
  ---------------------------------------------------
  free energy    TOTEN  =      -485.48636534 eV

  energy without entropy =     -485.48636534  energy(sigma->0) =     -485.48636534


--------------------------------------------------------------------------------------------------------




 average (electrostatic) potential at core
  the test charge radii are     0.6991  0.7089  0.9911  0.6991  0.7215
  (the norm of the test charge is              1.0000)
       1 -59.9399       2 -60.3207       3 -60.3204       4 -60.0060       5 -60.0025
       6 -60.0242       7 -60.1477       8 -59.9707       9 -59.8746      10 -60.7442
      11 -60.1661      12 -60.7263      13 -59.9461      14 -59.9329      15 -59.6905
      16 -60.0331      17 -60.0167      18 -59.9805      19 -60.2482      20 -59.9356
      21 -59.9698      22 -60.1119      23 -60.0635      24 -60.0673      25 -74.0384
      26 -71.6681      27 -71.6526      28 -71.8938      29 -72.0102      30 -71.7328
      31 -71.6996      32 -74.5352      33 -73.6517      34 -72.2032      35 -73.2898
      36 -71.8139      37 -71.8277      38 -72.2620      39 -73.2384      40 -74.6597
      41 -73.7991      42 -71.8159      43 -71.7175      44 -72.0385      45 -72.0313
      46 -71.6924      47 -71.6999      48 -74.4065      49 -73.8404      50 -71.9933
      51 -71.8797      52 -71.6785      53 -71.6307      54 -71.9511      55 -71.8740
      56 -74.6936      57 -81.3828      58 -59.3907      59 -81.4766



 E-fermi :  -1.6194     XC(G=0):  -3.3914     alpha+bet : -2.6262


 spin component 1

 k-point     1 :       0.0000    0.0000    0.0000
  band No.  band energies     occupation 
      1     -27.5096      1.00000
      2     -27.1411      1.00000
      3     -27.0401      1.00000
      4     -26.7677      1.00000
      5     -26.7172      1.00000
      6     -26.7084      1.00000
      7     -26.6832      1.00000
      8     -26.6677      1.00000
      9     -26.6338      1.00000
     10     -26.6078      1.00000
     11     -25.6784      1.00000
     12     -25.5636      1.00000
     13     -25.5175      1.00000
     14     -24.5834      1.00000
     15     -24.5670      1.00000
     16     -24.4541      1.00000
     17     -24.3774      1.00000
     18     -24.3166      1.00000
     19     -24.1906      1.00000
     20     -23.4317      1.00000
     21     -23.1983      1.00000
     22     -23.1953      1.00000
     23     -22.3814      1.00000
     24     -22.3225      1.00000
     25     -22.0887      1.00000
     26     -21.9619      1.00000
     27     -21.9126      1.00000
     28     -21.8962      1.00000
     29     -21.7949      1.00000
     30     -21.7569      1.00000
     31     -21.4756      1.00000
     32     -21.4135      1.00000
     33     -21.3084      1.00000
     34     -20.9179      1.00000
     35     -20.7725      1.00000
     36     -20.6511      1.00000
     37     -20.4775      1.00000
     38     -20.2145      1.00000
     39     -17.7825      1.00000
     40     -17.6995      1.00000
     41     -17.5624      1.00000
     42     -17.3409      1.00000
     43     -17.2060      1.00000
     44     -17.1707      1.00000
     45     -16.7379      1.00000
     46     -16.5046      1.00000
     47     -15.8634      1.00000
     48     -15.7249      1.00000
     49     -15.6490      1.00000
     50     -15.3735      1.00000
     51     -15.2701      1.00000
     52     -15.2311      1.00000
     53     -14.6405      1.00000
     54     -14.5317      1.00000
     55     -14.1743      1.00000
     56     -14.1010      1.00000
     57     -14.0242      1.00000
     58     -13.9337      1.00000
     59     -13.8174      1.00000
     60     -13.7661      1.00000
     61     -13.6831      1.00000
     62     -13.5976      1.00000
     63     -13.5337      1.00000
     64     -12.6685      1.00000
     65     -12.6041      1.00000
     66     -12.4299      1.00000
     67     -12.3466      1.00000
     68     -12.2222      1.00000
     69     -12.1482      1.00000
     70     -12.1286      1.00000
     71     -12.0551      1.00000
     72     -12.0074      1.00000
     73     -11.8512      1.00000
     74     -11.8278      1.00000
     75     -11.6569      1.00000
     76     -11.5891      1.00000
     77     -11.5500      1.00000
     78     -11.4106      1.00000
     79     -11.2106      1.00000
     80     -10.8370      1.00000
     81     -10.7086      1.00000
     82     -10.4071      1.00000
     83     -10.2825      1.00000
     84     -10.1358      1.00000
     85     -10.0561      1.00000
     86      -9.8205      1.00000
     87      -9.8182      1.00000
     88      -9.7998      1.00000
     89      -9.6174      1.00000
     90      -9.4612      1.00000
     91      -9.3399      1.00000
     92      -9.3201      1.00000
     93      -9.2158      1.00000
     94      -9.1420      1.00000
     95      -8.8094      1.00000
     96      -8.1913      1.00000
     97      -8.1172      1.00000
     98      -8.0198      1.00000
     99      -7.9036      1.00000
[...]
   -.175E+02 0.559E+02 0.200E+03   0.179E+02 -.587E+02 -.202E+03   -.430E+00 0.311E+01 0.177E+01   -.108E-01 0.116E-01 0.955E-02
   -.657E+02 -.172E+02 0.964E+02   0.686E+02 0.186E+02 -.977E+02   -.292E+01 -.145E+01 0.111E+01   -.104E-01 0.227E-02 0.558E-02
   0.440E+02 -.302E+02 -.351E+02   -.444E+02 0.286E+02 0.348E+02   0.542E+00 0.245E+01 0.838E+00   0.310E-02 0.827E-02 0.154E-02
   0.276E+02 -.184E+02 -.495E+02   -.256E+02 0.195E+02 0.492E+02   -.278E+01 -.181E+01 0.413E+00   -.342E-02 -.535E-02 0.428E-02
   -.719E+01 -.155E+01 -.607E+02   0.495E+01 0.239E+01 0.607E+02   0.310E+01 -.157E+01 0.280E+00   0.700E-03 -.160E-03 0.128E-02
   -.281E+02 0.186E+02 -.726E+02   0.268E+02 -.168E+02 0.739E+02   0.107E+01 -.182E+01 -.116E+01   0.329E-02 -.265E-02 -.284E-02
   -.374E+01 0.190E+02 0.485E+02   0.372E+01 -.225E+02 -.482E+02   0.722E-01 0.323E+01 -.645E+00   0.538E-02 -.230E-02 0.643E-02
   0.359E+02 0.169E+02 -.671E+02   -.345E+02 -.150E+02 0.683E+02   -.122E+01 -.220E+01 -.808E+00   0.895E-02 0.307E-02 0.213E-02
   -.362E+01 -.175E+02 -.154E+02   0.382E+01 0.149E+02 0.157E+02   -.115E+00 0.339E+01 -.644E+00   -.622E-02 -.110E-03 0.516E-03
   0.416E+02 0.304E+02 0.194E+03   -.397E+02 -.294E+02 -.193E+03   -.288E+01 -.138E+01 -.768E+00   -.705E-02 0.102E-02 0.408E-02
   -.146E+02 0.236E+02 0.871E+02   0.126E+02 -.230E+02 -.867E+02   0.304E+01 -.131E+01 -.516E+00   -.183E-01 0.732E-02 0.331E-02
   0.679E+02 -.158E+02 0.662E+02   -.710E+02 0.172E+02 -.669E+02   0.295E+01 -.152E+01 0.573E+00   0.102E-01 -.586E-02 0.626E-02
   0.644E+01 0.794E+02 0.213E+03   -.623E+01 -.823E+02 -.215E+03   -.128E-01 0.300E+01 0.173E+01   0.119E-01 0.476E-02 0.360E-02
   -.670E+02 -.618E+02 -.998E+02   0.701E+02 0.633E+02 0.101E+03   -.289E+01 -.153E+01 -.450E+00   -.193E-02 -.157E-01 0.453E-02
   -.374E+02 -.289E+02 -.142E+03   0.373E+02 0.276E+02 0.142E+03   -.275E+00 0.244E+01 0.924E+00   -.402E-02 -.125E-02 -.278E-02
   0.107E+02 -.263E+01 -.110E+03   -.858E+01 0.343E+01 0.110E+03   -.316E+01 -.148E+01 0.527E+00   -.677E-02 -.635E-02 0.780E-03
   -.306E+02 -.135E+02 -.896E+02   0.288E+02 0.146E+02 0.891E+02   0.279E+01 -.191E+01 0.892E+00   0.846E-02 -.119E-01 0.439E-02
   0.778E+02 -.725E+02 0.138E+03   -.804E+02 0.749E+02 -.138E+03   0.294E+01 -.206E+01 0.162E+00   0.785E-02 0.988E-02 0.448E-02
   -.108E+02 0.450E+02 -.191E+03   0.109E+02 -.485E+02 0.193E+03   -.468E-01 0.346E+01 -.148E+01   -.534E-02 0.100E-01 -.579E-02
   -.889E+02 -.264E+02 -.616E+02   0.919E+02 0.275E+02 0.629E+02   -.321E+01 -.966E+00 -.114E+01   -.193E-01 -.139E-02 -.136E-02
   -.153E+02 0.422E+02 0.166E+03   0.158E+02 -.432E+02 -.169E+03   -.345E+00 0.112E+01 0.271E+01   0.206E-01 0.353E-02 0.911E-02
   -.205E+03 -.315E+02 0.227E+03   0.239E+03 0.494E+02 -.241E+03   -.309E+02 -.165E+02 0.124E+02   -.176E-02 0.907E-02 0.765E-02
   0.166E+03 -.162E+03 -.243E+03   -.198E+03 0.180E+03 0.256E+03   0.305E+02 -.162E+02 -.109E+02   -.301E-02 -.529E-02 0.651E-02
   0.242E+01 0.181E+03 0.402E+03   0.323E+00 -.212E+03 -.427E+03   -.240E+01 0.288E+02 0.223E+02   -.186E-01 0.984E-02 0.477E-02
   -.416E+02 0.150E+03 0.422E+03   0.392E+02 -.179E+03 -.450E+03   0.228E+01 0.270E+02 0.250E+02   -.337E-03 0.911E-02 0.983E-02
   0.203E+03 -.105E+03 -.115E+03   -.235E+03 0.126E+03 0.116E+03   0.296E+02 -.197E+02 -.784E-01   -.143E-01 -.108E-02 0.434E-02
   -.153E+03 -.843E+02 0.259E+03   0.186E+03 0.945E+02 -.281E+03   -.300E+02 -.952E+01 0.195E+02   -.626E-02 0.207E-02 0.237E-02
   -.471E+01 -.404E+00 -.252E+02   0.496E+01 0.290E+00 0.264E+02   -.188E+00 0.458E-01 -.104E+01   -.362E-02 0.205E-02 0.302E-02
   0.187E+02 -.253E+02 -.992E+02   -.189E+02 0.261E+02 0.104E+03   0.224E+00 -.743E+00 -.401E+01   0.188E-02 0.974E-03 0.396E-02
   -.354E+00 -.655E+02 -.310E+03   0.236E+02 0.800E+02 0.336E+03   -.218E+02 -.134E+02 -.232E+02   0.151E-01 0.505E-02 0.496E-02
   0.787E+01 0.705E+02 -.785E+02   -.289E+02 -.663E+02 0.897E+02   0.191E+02 -.417E+01 -.105E+02   0.306E-02 0.957E-02 0.723E-02
   -.185E+02 0.118E+03 0.128E+03   0.216E+02 -.154E+03 -.139E+03   -.274E+01 0.337E+02 0.986E+01   0.706E-02 -.144E-01 0.804E-02
   0.558E+00 0.114E+03 0.142E+03   -.277E+01 -.150E+03 -.153E+03   0.188E+01 0.335E+02 0.995E+01   0.862E-02 -.107E-01 0.708E-02
   0.406E+02 -.639E+02 -.338E+03   -.686E+02 0.790E+02 0.358E+03   0.261E+02 -.139E+02 -.176E+02   -.861E-02 -.836E-02 -.438E-02
   -.189E+01 0.804E+02 -.112E+03   0.211E+02 -.769E+02 0.127E+03   -.175E+02 -.358E+01 -.142E+02   0.263E-01 0.110E-01 0.121E-01
   0.551E+02 0.194E+02 0.730E+02   -.598E+02 -.227E+02 -.728E+02   0.407E+01 0.286E+01 -.401E+00   0.143E-01 0.127E-01 0.962E-02
   0.156E+02 0.409E+02 0.151E+03   -.176E+02 -.426E+02 -.156E+03   0.194E+01 0.161E+01 0.408E+01   -.250E-01 0.403E-02 0.335E-02
   -.200E+03 -.110E+03 -.126E+03   0.232E+03 0.130E+03 0.127E+03   -.300E+02 -.188E+02 -.862E+00   0.778E-02 -.118E-01 0.951E-02
   0.157E+03 -.713E+02 0.202E+03   -.191E+03 0.811E+02 -.220E+03   0.311E+02 -.918E+01 0.167E+02   0.197E-02 -.128E-01 0.692E-02
   0.140E+02 0.174E+03 0.435E+03   -.909E+01 -.203E+03 -.460E+03   -.467E+01 0.279E+02 0.230E+02   0.216E-01 -.724E-02 -.273E-02
   0.667E+01 0.249E+03 0.364E+03   -.845E+01 -.286E+03 -.376E+03   0.135E+01 0.339E+02 0.108E+02   0.519E-02 -.156E-01 -.469E-02
   0.206E+03 -.327E+02 0.137E+03   -.240E+03 0.519E+02 -.143E+03   0.315E+02 -.177E+02 0.601E+01   0.112E-01 -.236E-02 0.830E-02
   -.151E+03 -.166E+03 -.298E+03   0.182E+03 0.184E+03 0.314E+03   -.291E+02 -.160E+02 -.140E+02   0.710E-02 -.189E-01 0.650E-02
   0.796E+00 -.364E+02 -.126E+02   -.685E+00 0.378E+02 0.101E+02   -.142E+00 -.115E+01 0.222E+01   0.257E-02 -.150E-01 0.594E-02
   -.182E+02 -.280E+02 -.192E+03   0.180E+02 0.301E+02 0.198E+03   0.144E+00 -.200E+01 -.536E+01   -.177E-02 -.442E-02 0.406E-03
   -.238E+03 -.696E+02 -.941E+02   0.271E+03 0.893E+02 0.952E+02   -.305E+02 -.183E+02 -.955E+00   -.129E-01 0.590E-03 -.270E-02
   0.189E+03 -.154E+03 0.309E+03   -.223E+03 0.171E+03 -.317E+03   0.309E+02 -.161E+02 0.673E+01   -.146E-01 0.167E-01 0.131E-02
   0.108E+01 0.156E+03 -.393E+03   0.384E+01 -.186E+03 0.418E+03   -.446E+01 0.283E+02 -.227E+02   -.294E-02 0.504E-02 -.522E-03
   -.371E+02 0.120E+03 -.442E+03   0.355E+02 -.148E+03 0.471E+03   0.143E+01 0.266E+02 -.261E+02   -.123E-01 0.256E-02 -.427E-02
   0.200E+03 -.135E+03 0.240E+03   -.227E+03 0.160E+03 -.253E+03   0.241E+02 -.226E+02 0.123E+02   0.449E-03 0.168E-01 0.170E-02
   -.178E+03 -.766E+02 -.191E+03   0.212E+03 0.861E+02 0.207E+03   -.320E+02 -.915E+01 -.141E+02   -.217E-01 0.675E-02 0.462E-02
   -.515E+02 0.223E+02 0.442E+02   0.548E+02 -.249E+02 -.468E+02   -.284E+01 0.218E+01 0.215E+01   -.123E-01 0.260E-02 0.215E-02
   0.465E+02 -.121E+03 -.998E+03   -.479E+02 0.139E+03 0.102E+04   0.125E+01 -.174E+02 -.214E+02   0.595E-01 -.729E-02 -.541E-01
   -.678E+02 -.155E+03 0.147E+03   0.766E+02 0.175E+03 -.170E+03   -.778E+01 -.176E+02 0.205E+02   0.114E-02 -.368E-03 -.278E-02
   0.567E+02 0.128E+03 -.802E+02   -.748E+02 -.169E+03 0.128E+03   0.170E+02 0.386E+02 -.448E+02   0.290E-02 0.148E-02 -.534E-02
 -----------------------------------------------------------------------------------------------
   -.636E+01 -.249E+02 0.255E+02   0.426E-13 -.171E-12 -.284E-12   0.629E+01 0.249E+02 -.256E+02   0.616E-01 -.305E-02 0.139E+00


 POSITION                                       TOTAL-FORCE (eV/Angst)
 -----------------------------------------------------------------------------------
     -0.01436      2.37791      6.28394        -0.021133      1.175216     -0.386354
      1.17178      4.42330      6.38033        -1.259092      0.167708      0.013144
     -1.22389      4.37958      6.29579         1.195786      0.152911      0.131863
      5.52065      0.63483      7.42484        -0.141990     -0.078590      0.255694
      3.34853      4.42210      6.08322        -0.045551      0.244597     -0.250412
      1.13846      0.57161      6.60386         0.094447     -0.039200     -0.150135
     -3.44967      7.97525      7.11103         0.230632      0.928775      0.560301
     -2.13555      9.94102      7.36015        -0.886129     -0.815144      0.141212
     -4.49554     10.03267      7.31586         0.921630     -0.755606      0.205971
      2.30961      6.07363      7.37027        -0.281583     -0.094961      0.175221
      0.03783      9.85693      7.18402         0.054969     -0.313323     -0.307579
     -2.44721      6.07050      7.06452         0.214322     -0.230772      0.408773
      6.70710      2.39006      6.94980         0.086404      0.891136     -0.443329
      7.77973      4.23225      5.90116        -1.047648     -0.454048     -0.244092
      5.49151      4.31545      6.41350         1.076553     -0.668848     -0.132145
     12.13837      0.41513      6.77694        -0.146964     -0.100939     -0.143675
      9.93343      4.16745      5.81473         0.211858      0.145594     -0.319617
      7.84083      0.62227      7.51611         0.234526     -0.018037      0.256142
      3.42391      7.87245      7.79284        -0.397312      1.150538      0.552912
      4.53460      9.92940      7.67233        -1.066106     -0.722435      0.541196
      2.16890      9.90865      7.64996         1.038180     -0.852170      0.388085
      8.73003      6.14734      6.19819         0.292582      0.385999     -0.104916
      6.69137      9.94919      7.84202         0.001432     -0.057279      0.393736
      4.57136      6.11356      7.19684        -0.185648      0.208567      0.139112
     -0.01378      3.73573      6.26326         0.104957      0.093997     -0.173264
      1.11971      1.77711      6.20456         2.352337      1.353847     -1.134900
      4.45686     -0.04129      7.66192        -2.280826      1.336155      1.440948
      4.45899      3.86359      5.79321         0.329081     -2.186636     -2.167247
      2.18409      3.98711      5.75529        -0.100090     -1.791479     -2.394334
      5.54565      1.89168      7.24424        -2.298503      1.940742      0.347421
     -4.45706     11.06605      6.57471         2.314593      0.677411     -1.941032
      0.01615      0.02053      7.09578         0.060692     -0.069619      0.146466
     -3.33291      9.29791      7.34659         0.077964      0.029426      0.404770
     -2.50679      7.22013      7.59900         1.395069      1.143189      2.346884
      1.17125      5.45336      7.22118        -1.882073     -0.022271      0.764234
      1.16275      9.23542      7.19487         0.359581     -2.620373     -1.140723
     -1.08433      9.25019      7.04583        -0.331651     -2.604500     -1.139769
      2.32577      7.18433      7.98846        -1.772427      1.154803      2.061085
     -1.33012      5.40413      7.12853         1.722921     -0.076840      1.276383
      9.83991      5.38730      6.42108        -0.561603     -0.396773     -0.141295
      6.67524      3.58456      6.32503        -0.155885     -0.088555     -0.503109
      7.85010      1.87425      7.27428         2.332682      1.893640      0.206655
      4.43994     10.92125      6.87988        -2.416111      0.607315     -1.794393
     -2.16725      3.90624      5.59761         0.272749     -1.892861     -2.385922
      8.84292      3.55482      5.60807        -0.431284     -2.814483     -1.280315
     12.12621      1.62600      6.40874        -2.428994      1.526168     -0.599365
      8.85419     -0.06360      7.91138         2.062966      1.370988      1.655826
      6.68348     -0.04884      7.31851        -0.026900      0.188073     -0.282264
      3.35120      9.22191      7.83532        -0.126580      0.120447      0.560845
      4.55314      7.34832      7.52234         2.578252      1.366084      0.064582
      7.69180      5.53620      5.84160        -2.718823      0.897818     -1.347950
     -5.45746      9.57400      8.04381         0.455337     -2.129799      2.116597
      5.57451      9.49515      8.29397        -0.133862     -1.710071      2.506655
     -4.44394      7.60312      6.40044        -2.033284      1.749663     -1.341097
      5.60682      5.39353      7.10987         2.746389      0.290579      1.391278
      3.38565      5.54127      6.86998         0.440036     -0.431188     -0.442148
     -0.12858      6.60400      8.17510        -0.081906      0.844761      1.241951
     -0.12858      6.60400     13.91590         1.070137      2.415630     -2.824130
     -0.43676      5.90719      0.32742        -1.069107     -2.414976      2.819566
 -----------------------------------------------------------------------------------
    total drift:                               -0.007798      0.000233      0.015306


--------------------------------------------------------------------------------------------------------



  FREE ENERGIE OF THE ION-ELECTRON SYSTEM (eV)
  ---------------------------------------------------
  free  energy   TOTEN  =      -489.60469421 eV

  energy  without entropy=     -489.60469421  energy(sigma->0) =     -489.60469421



--------------------------------------------------------------------------------------------------------


    POTLOK:  cpu time    0.1352: real time    0.1352


--------------------------------------------------------------------------------------------------------


     LOOP+:  cpu time  214.5347: real time  214.7115
    4ORBIT:  cpu time    0.0000: real time    0.0000



 total charge     

# of ion       s       p       d       tot
------------------------------------------
    1        0.886   1.867   0.000   2.753
    2        0.872   1.850   0.000   2.722
    3        0.875   1.857   0.000   2.732
    4        0.899   1.878   0.000   2.777
    5        0.888   1.874   0.000   2.762
    6        0.903   1.889   0.000   2.793
    7        0.887   1.860   0.000   2.747
    8        0.885   1.854   0.000   2.739
    9        0.891   1.857   0.000   2.747
   10        0.904   1.912   0.000   2.816
   11        0.900   1.882   0.000   2.782
   12        0.910   1.923   0.000   2.832
   13        0.884   1.854   0.000   2.738
   14        0.880   1.857   0.000   2.737
   15        0.878   1.859   0.000   2.736
   16        0.905   1.895   0.000   2.799
   17        0.891   1.884   0.000   2.775
   18        0.896   1.875   0.000   2.771
   19        0.885   1.857   0.000   2.742
   20        0.888   1.853   0.000   2.740
   21        0.881   1.846   0.000   2.727
   22        0.896   1.879   0.000   2.775
   23        0.897   1.865   0.000   2.762
   24        0.901   1.897   0.000   2.797
   25        1.230   2.846   0.000   4.076
   26        1.287   2.772   0.000   4.060
   27        1.284   2.769   0.000   4.052
   28        1.286   2.738   0.000   4.025
   29        1.286   2.761   0.000   4.046
   30        1.283   2.764   0.000   4.047
   31        1.293   2.765   0.000   4.058
   32        1.255   2.882   0.000   4.137
   33        1.240   2.862   0.000   4.103
   34        1.281   2.778   0.000   4.060
   35        1.259   2.783   0.000   4.042
   36        1.280   2.762   0.000   4.042
   37        1.279   2.761   0.000   4.041
   38        1.278   2.768   0.000   4.046
   39        1.260   2.790   0.000   4.050
   40        1.254   2.900   0.000   4.154
   41        1.237   2.846   0.000   4.082
   42        1.281   2.753   0.000   4.034
   43        1.291   2.772   0.000   4.063
   44        1.285   2.762   0.000   4.047
   45        1.285   2.743   0.000   4.028
   46        1.287   2.778   0.000   4.065
   47        1.283   2.760   0.000   4.043
   48        1.252   2.886   0.000   4.138
   49        1.235   2.829   0.000   4.064
   50        1.287   2.774   0.000   4.060
   51        1.283   2.762   0.000   4.045
   52        1.284   2.746   0.000   4.030
   53        1.285   2.750   0.000   4.035
   54        1.281   2.756   0.000   4.037
   55        1.292   2.758   0.000   4.050
   56        1.253   2.893   0.000   4.146
   57        1.331   0.816  10.081  12.228
   58        1.050   1.499   0.000   2.549
   59        1.648   3.587   0.000   5.235
--------------------------------------------------
tot         66.149 140.091  10.081 216.322



 magnetization (x)

# of ion       s       p       d       tot
------------------------------------------
    1        0.000  -0.000   0.000  -0.000
    2        0.000   0.000   0.000   0.000
    3       -0.000  -0.000   0.000  -0.000
    4       -0.000  -0.000   0.000  -0.000
    5        0.000   0.000   0.000   0.000
    6       -0.000  -0.000   0.000  -0.000
    7       -0.000  -0.000   0.000  -0.000
    8       -0.000  -0.000   0.000  -0.000
    9        0.000  -0.000   0.000  -0.000
   10       -0.000  -0.000   0.000  -0.000
   11       -0.000   0.000   0.000   0.000
   12        0.000   0.000   0.000   0.000
   13       -0.000  -0.000   0.000  -0.000
   14       -0.000  -0.000   0.000  -0.000
   15        0.000   0.000   0.000   0.000
   16       -0.000   0.000   0.000   0.000
   17       -0.000  -0.000   0.000  -0.000
   18       -0.000  -0.000   0.000  -0.000
   19        0.000   0.000   0.000   0.000
   20        0.000  -0.000   0.000  -0.000
   21        0.000  -0.000   0.000   0.000
   22       -0.000  -0.000   0.000  -0.000
   23       -0.000  -0.000   0.000  -0.000
   24        0.000   0.000   0.000   0.000
   25        0.000   0.000   0.000   0.000
   26        0.000   0.000   0.000   0.000
   27        0.000  -0.000   0.000  -0.000
   28       -0.000  -0.000   0.000  -0.000
   29       -0.000  -0.000   0.000  -0.000
   30        0.000  -0.000   0.000  -0.000
   31        0.000  -0.000   0.000  -0.000
   32       -0.000  -0.000   0.000  -0.000
   33        0.000   0.000   0.000   0.000
   34       -0.000  -0.000   0.000  -0.000
   35       -0.000   0.000   0.000   0.000
   36        0.000  -0.000   0.000  -0.000
   37        0.000  -0.000   0.000  -0.000
   38       -0.000   0.000   0.000   0.000
   39       -0.000  -0.000   0.000  -0.000
   40       -0.000  -0.000   0.000  -0.000
   41        0.000   0.000   0.000   0.000
   42        0.000   0.000   0.000   0.000
   43        0.000   0.000   0.000   0.000
   44        0.000   0.000   0.000   0.000
   45        0.000   0.000   0.000   0.000
   46        0.000  -0.000   0.000  -0.000
   47        0.000   0.000   0.000   0.000
   48       -0.000  -0.000   0.000  -0.000
   49        0.000   0.000   0.000   0.000
   50        0.000  -0.000   0.000   0.000
   51       -0.000  -0.000   0.000  -0.000
   52        0.000   0.000   0.000   0.000
   53        0.000   0.000   0.000   0.000
   54        0.000   0.000   0.000   0.000
   55        0.000   0.000   0.000   0.000
   56        0.000   0.000   0.000   0.000
   57        0.000   0.000   0.000   0.000
   58        0.000   0.000   0.000   0.000
   59       -0.000  -0.000   0.000  -0.000
--------------------------------------------------
tot          0.000   0.000   0.000   0.000

 BZINTS: Fermi energy: -1.619405;280.000000 electrons
         Band energy:***********;  BLOECHL correction:  0.000000

 total amount of memory used by VASP MPI-rank0    86188. kBytes
=======================================================================

   base      :      30000. kBytes
   nonl-proj :      16940. kBytes
   fftplans  :       3323. kBytes
   grid      :       9764. kBytes
   one-center:        155. kBytes
   wavefun   :      26006. kBytes

  
  
 General timing and accounting informations for this job:
 ========================================================
  
                  Total CPU time used (sec):      227.630
                            User time (sec):      226.754
                          System time (sec):        0.876
                         Elapsed time (sec):      228.266
  
                   Maximum memory used (kb):      164728.
                   Average memory used (kb):           0.
  
                          Minor page faults:        47493
                          Major page faults:            0
                 Voluntary context switches:          905
