       N       E                     dE             d eps       ncg     rms          ort
DAV:   1     0.250727523913E+04    0.25073E+04   -0.11650E+05   768   0.110E+03
DAV:   2    -0.246031355947E+03   -0.27533E+04   -0.26298E+04   768   0.279E+02
DAV:   3    -0.702848313839E+03   -0.45682E+03   -0.45372E+03   768   0.120E+02
DAV:   4    -0.719324844393E+03   -0.16477E+02   -0.16343E+02   768   0.279E+01
DAV:   5    -0.719863663854E+03   -0.53882E+00   -0.53706E+00   768   0.423E+00
SDA:   6    -0.550692496681E+03    0.16917E+03   -0.53706E+00   768   0.500E+03 0.000E+00
CGA:   7    -0.603626329852E+03   -0.52934E+02   -0.25859E+02   768   0.328E+03 0.461E+03
CGA:   8    -0.638121024398E+03   -0.34495E+02   -0.15056E+02   768   0.164E+03 0.297E+03
CGA:   9    -0.651293314843E+03   -0.13172E+02   -0.89158E+01   768   0.363E+02 0.337E+02
CGA:  10    -0.658773023170E+03   -0.74797E+01   -0.74708E+01   768   0.208E+02-0.387E+00
CGA:  11    -0.660423497223E+03   -0.16505E+01   -0.16225E+01   768   0.551E+01 0.368E+00
CGA:  12    -0.661361480176E+03   -0.93798E+00   -0.93826E+00   768   0.571E+01 0.393E-02
CGA:  13    -0.661772285471E+03   -0.41081E+00   -0.27994E+00   768   0.199E+01 0.253E+01
CGA:  14    -0.661938091575E+03   -0.16581E+00   -0.13856E+00   768   0.886E+00 0.478E+00
CGA:  15    -0.662071958181E+03   -0.13387E+00   -0.13300E+00   768   0.164E+01-0.186E-02
CGA:  16    -0.662145085798E+03   -0.73128E-01   -0.49513E-01   768   0.116E+01 0.788E+00
CGA:  17    -0.662218098741E+03   -0.73013E-01   -0.61315E-01   768   0.358E+00 0.325E+00
CGA:  18    -0.662250144286E+03   -0.32046E-01   -0.32252E-01   768   0.471E+00 0.333E-03
CGA:  19    -0.662277274101E+03   -0.27130E-01   -0.17702E-01   768   0.520E+00 0.244E+00
CGA:  20    -0.662316460145E+03   -0.39186E-01   -0.39735E-01   768   0.138E+00-0.207E-02
CGA:  21    -0.662361255660E+03   -0.44796E-01   -0.40375E-01   768   0.375E-01 0.239E-01
CGA:  22    -0.662384698480E+03   -0.23443E-01   -0.21650E-01   768   0.850E-01 0.520E-02
CGA:  23    -0.662396259429E+03   -0.11561E-01   -0.11456E-01   768   0.299E-01 0.348E-03
CGA:  24    -0.662404872654E+03   -0.86132E-02   -0.86801E-02   768   0.123E-01-0.663E-03
CGA:  25    -0.662408517227E+03   -0.36446E-02   -0.36596E-02   768   0.175E-01-0.321E-04
CGA:  26    -0.662410841558E+03   -0.23243E-02   -0.23529E-02   768   0.579E-02 0.131E-03
CGA:  27    -0.662413953637E+03   -0.31121E-02   -0.32419E-02   768   0.793E-02-0.369E-03
CGA:  28    -0.662415016538E+03   -0.10629E-02   -0.10777E-02   768   0.479E-02 0.555E-04
CGA:  29    -0.662416466821E+03   -0.14503E-02   -0.14666E-02   768   0.197E-02-0.105E-03
CGA:  30    -0.662416888438E+03   -0.42162E-03   -0.41965E-03   768   0.179E-02 0.459E-04
CGA:  31    -0.662417196896E+03   -0.30846E-03   -0.30842E-03   768   0.615E-03 0.136E-04
CGA:  32    -0.662417401883E+03   -0.20499E-03   -0.20237E-03   768   0.640E-03 0.174E-04
CGA:  33    -0.662417507776E+03   -0.10589E-03   -0.10594E-03   768   0.351E-03 0.570E-05
CGA:  34    -0.662417615192E+03   -0.10742E-03   -0.10723E-03   768   0.227E-03 0.108E-05
CGA:  35    -0.662417656639E+03   -0.41447E-04   -0.41421E-04   768   0.159E-03-0.628E-06
   1 F= -.66895300E+03 E0= -.66893153E+03  d E =-.668953E+03  mag=     1.3520
       N       E                     dE             d eps       ncg     rms          ort
SDA:   1    -0.661307411310E+03    0.11102E+01    0.00000E+00   768   0.372E+01 0.000E+00
CGA:   2    -0.661821950335E+03   -0.51454E+00   -0.51697E+00   768   0.167E+01 0.145E-02
CGA:   3    -0.662132306477E+03   -0.31036E+00   -0.30994E+00   768   0.109E+01-0.177E-01
CGA:   4    -0.662322968429E+03   -0.19066E+00   -0.19114E+00   768   0.390E+00 0.926E-02
CGA:   5    -0.662390223771E+03   -0.67255E-01   -0.67190E-01   768   0.137E+00-0.688E-03
CGA:   6    -0.662414203465E+03   -0.23980E-01   -0.24010E-01   768   0.623E-01 0.712E-03
CGA:   7    -0.662425120744E+03   -0.10917E-01   -0.10909E-01   768   0.316E-01-0.154E-03
CGA:   8    -0.662430705010E+03   -0.55843E-02   -0.55875E-02   768   0.118E-01 0.997E-04
CGA:   9    -0.662432998812E+03   -0.22938E-02   -0.22938E-02   768   0.437E-02-0.124E-04
CGA:  10    -0.662433721156E+03   -0.72234E-03   -0.72273E-03   768   0.176E-02 0.112E-04
CGA:  11    -0.662434016574E+03   -0.29542E-03   -0.29540E-03   768   0.632E-03 0.468E-06
CGA:  12    -0.662434146345E+03   -0.12977E-03   -0.12975E-03   768   0.282E-03 0.159E-05
CGA:  13    -0.662434197565E+03   -0.51219E-04   -0.51208E-04   768   0.168E-03-0.120E-05
   2 F= -.66896947E+03 E0= -.66894996E+03  d E =-.164681E-01  mag=     1.2766
       N       E                     dE             d eps       ncg     rms          ort
SDA:   1    -0.662340807120E+03    0.93339E-01    0.00000E+00   768   0.313E+00 0.000E+00
CGA:   2    -0.662385932360E+03   -0.45125E-01   -0.45089E-01   768   0.141E+00-0.188E-03
CGA:   3    -0.662412699753E+03   -0.26767E-01   -0.26767E-01   768   0.885E-01 0.390E-03
CGA:   4    -0.662428445346E+03   -0.15746E-01   -0.15739E-01   768   0.349E-01-0.276E-03
CGA:   5    -0.662434112085E+03   -0.56667E-02   -0.56685E-02   768   0.121E-01 0.142E-04
CGA:   6    -0.662436194309E+03   -0.20822E-02   -0.20817E-02   768   0.570E-02-0.175E-04
CGA:   7    -0.662437180571E+03   -0.98626E-03   -0.98640E-03   768   0.264E-02 0.411E-05
CGA:   8    -0.662437663060E+03   -0.48249E-03   -0.48246E-03   768   0.105E-02-0.908E-05
CGA:   9    -0.662437853638E+03   -0.19058E-03   -0.19057E-03   768   0.407E-03-0.339E-05
CGA:  10    -0.662437919459E+03   -0.65821E-04   -0.65746E-04   768   0.147E-03-0.309E-05
   3 F= -.66897322E+03 E0= -.66895325E+03  d E =-.202171E-01  mag=     1.2865
       N       E                     dE             d eps       ncg     rms          ort
SDA:   1    -0.662193968703E+03    0.24388E+00    0.00000E+00   768   0.929E+00 0.000E+00
CGA:   2    -0.662311756550E+03   -0.11779E+00   -0.11809E+00   768   0.353E+00 0.331E-03
CGA:   3    -0.662379008256E+03   -0.67252E-01   -0.67298E-01   768   0.253E+00-0.290E-02
CGA:   4    -0.662427098480E+03   -0.48090E-01   -0.48055E-01   768   0.111E+00 0.211E-02
CGA:   5    -0.662446852888E+03   -0.19754E-01   -0.19751E-01   768   0.396E-01-0.285E-03
CGA:   6    -0.662453266126E+03   -0.64132E-02   -0.64175E-02   768   0.154E-01 0.105E-03
CGA:   7    -0.662455821501E+03   -0.25554E-02   -0.25550E-02   768   0.705E-02-0.705E-05
CGA:   8    -0.662457076258E+03   -0.12548E-02   -0.12548E-02   768   0.273E-02 0.220E-04
CGA:   9    -0.662457589180E+03   -0.51292E-03   -0.51291E-03   768   0.101E-02 0.379E-05
CGA:  10    -0.662457752641E+03   -0.16346E-03   -0.16353E-03   768   0.400E-03 0.381E-05
CGA:  11    -0.662457822576E+03   -0.69935E-04   -0.69934E-04   768   0.155E-03-0.285E-06
   4 F= -.66899284E+03 E0= -.66897410E+03  d E =-.196260E-01  mag=     1.2452
       N       E                     dE             d eps       ncg     rms          ort
SDA:   1    -0.660126028331E+03    0.23317E+01    0.00000E+00   768   0.866E+01 0.000E+00
CGA:   2    -0.661175101820E+03   -0.10491E+01   -0.10586E+01   768   0.325E+01-0.112E-01
CGA:   3    -0.661776780082E+03   -0.60168E+00   -0.60271E+00   768   0.237E+01-0.849E-01
CGA:   4    -0.662225858590E+03   -0.44908E+00   -0.44759E+00   768   0.931E+00 0.589E-01
CGA:   5    -0.662406662726E+03   -0.18080E+00   -0.18092E+00   768   0.326E+00-0.570E-02
CGA:   6    -0.662463271815E+03   -0.56609E-01   -0.56631E-01   768   0.121E+00 0.280E-02
CGA:   7    -0.662484798549E+03   -0.21527E-01   -0.21524E-01   768   0.631E-01-0.430E-03
CGA:   8    -0.662495069047E+03   -0.10270E-01   -0.10278E-01   768   0.235E-01 0.231E-03
CGA:   9    -0.662499657219E+03   -0.45882E-02   -0.45899E-02   768   0.754E-02-0.611E-04
CGA:  10    -0.662501072630E+03   -0.14154E-02   -0.14152E-02   768   0.315E-02 0.194E-04
CGA:  11    -0.662501591680E+03   -0.51905E-03   -0.51892E-03   768   0.146E-02-0.520E-05
CGA:  12    -0.662501888832E+03   -0.29715E-03   -0.29716E-03   768   0.654E-03-0.267E-07
CGA:  13    -0.662502056796E+03   -0.16796E-03   -0.16832E-03   768   0.566E-03-0.456E-05
CGA:  14    -0.662502163957E+03   -0.10716E-03   -0.10716E-03   768   0.394E-03 0.523E-06
CGA:  15    -0.662502275448E+03   -0.11149E-03   -0.11165E-03   768   0.278E-03-0.160E-05
CGA:  16    -0.662502339294E+03   -0.63845E-04   -0.63770E-04   768   0.226E-03 0.203E-05
   5 F= -.66903689E+03 E0= -.66902269E+03  d E =-.636683E-01  mag=     1.1411
       N       E                     dE             d eps       ncg     rms          ort
SDA:   1    -0.652946411736E+03    0.95559E+01    0.00000E+00   768   0.372E+02 0.000E+00
CGA:   2    -0.657107537644E+03   -0.41611E+01   -0.42497E+01   768   0.137E+02-0.445E+00
CGA:   3    -0.659522330083E+03   -0.24148E+01   -0.24061E+01   768   0.959E+01-0.521E+00
CGA:   4    -0.661397883003E+03   -0.18756E+01   -0.18654E+01   768   0.343E+01 0.422E+00
CGA:   5    -0.662121061599E+03   -0.72318E+00   -0.72318E+00   768   0.122E+01 0.522E-02
CGA:   6    -0.662351025311E+03   -0.22996E+00   -0.22996E+00   768   0.421E+00 0.900E-02
CGA:   7    -0.662444496560E+03   -0.93471E-01   -0.93512E-01   768   0.173E+00-0.704E-03
CGA:   8    -0.662481818119E+03   -0.37322E-01   -0.37280E-01   768   0.631E-01 0.106E-02
CGA:   9    -0.662493790707E+03   -0.11973E-01   -0.11971E-01   768   0.274E-01-0.315E-03
CGA:  10    -0.662497711889E+03   -0.39212E-02   -0.39217E-02   768   0.106E-01 0.108E-04
CGA:  11    -0.662499859209E+03   -0.21473E-02   -0.21481E-02   768   0.365E-02-0.352E-04
CGA:  12    -0.662500823456E+03   -0.96425E-03   -0.96463E-03   768   0.201E-02-0.424E-05
CGA:  13    -0.662501229322E+03   -0.40587E-03   -0.40595E-03   768   0.184E-02-0.817E-05
CGA:  14    -0.662501583456E+03   -0.35413E-03   -0.35413E-03   768   0.837E-03-0.252E-05
CGA:  15    -0.662501871066E+03   -0.28761E-03   -0.28787E-03   768   0.620E-03-0.200E-05
CGA:  16    -0.662501984516E+03   -0.11345E-03   -0.11345E-03   768   0.469E-03 0.142E-05
CGA:  17    -0.662502084333E+03   -0.99818E-04   -0.99828E-04   768   0.176E-03-0.974E-06
   6 F= -.66903856E+03 E0= -.66902643E+03  d E =-.653432E-01  mag=     1.1394
       N       E                     dE             d eps       ncg     rms          ort
SDA:   1    -0.659967328580E+03    0.25347E+01    0.00000E+00   768   0.870E+01 0.000E+00
CGA:   2    -0.661149073453E+03   -0.11817E+01   -0.11786E+01   768   0.327E+01-0.238E-01
CGA:   3    -0.661800819754E+03   -0.65175E+00   -0.65190E+00   768   0.229E+01 0.287E-01
CGA:   4    -0.662239548636E+03   -0.43873E+00   -0.43783E+00   768   0.106E+01-0.382E-01
CGA:   5    -0.662417050328E+03   -0.17750E+00   -0.17798E+00   768   0.348E+00 0.386E-02
CGA:   6    -0.662477445235E+03   -0.60395E-01   -0.60243E-01   768   0.139E+00-0.229E-02
CGA:   7    -0.662500866093E+03   -0.23421E-01   -0.23446E-01   768   0.615E-01 0.237E-03
CGA:   8    -0.662511817088E+03   -0.10951E-01   -0.10941E-01   768   0.249E-01-0.252E-03
CGA:   9    -0.662516309469E+03   -0.44924E-02   -0.44935E-02   768   0.811E-02 0.254E-04
CGA:  10    -0.662517701080E+03   -0.13916E-02   -0.13908E-02   768   0.302E-02-0.192E-04
CGA:  11    -0.662518200359E+03   -0.49928E-03   -0.49930E-03   768   0.111E-02-0.615E-07
CGA:  12    -0.662518414564E+03   -0.21420E-03   -0.21420E-03   768   0.458E-03-0.109E-05
CGA:  13    -0.662518504720E+03   -0.90156E-04   -0.90147E-04   768   0.269E-03 0.220E-05
   7 F= -.66905355E+03 E0= -.66904173E+03  d E =-.803284E-01  mag=     1.1111
       N       E                     dE             d eps       ncg     rms          ort
SDA:   1    -0.661857133625E+03    0.66128E+00    0.00000E+00   768   0.235E+01 0.000E+00
CGA:   2    -0.662167347980E+03   -0.31021E+00   -0.31066E+00   768   0.108E+01-0.169E-02
CGA:   3    -0.662363051809E+03   -0.19570E+00   -0.19557E+00   768   0.657E+00-0.930E-02
CGA:   4    -0.662483842663E+03   -0.12079E+00   -0.12082E+00   768   0.228E+00 0.451E-02
CGA:   5    -0.662524842910E+03   -0.41000E-01   -0.40994E-01   768   0.778E-01-0.162E-03
CGA:   6    -0.662538930269E+03   -0.14087E-01   -0.14092E-01   768   0.356E-01 0.355E-03
CGA:   7    -0.662545056489E+03   -0.61262E-02   -0.61244E-02   768   0.181E-01-0.284E-04
CGA:   8    -0.662548276267E+03   -0.32198E-02   -0.32205E-02   768   0.720E-02 0.467E-04
CGA:   9    -0.662549664079E+03   -0.13878E-02   -0.13879E-02   768   0.237E-02-0.771E-05
CGA:  10    -0.662550071947E+03   -0.40787E-03   -0.40796E-03   768   0.985E-03 0.512E-05
CGA:  11    -0.662550228581E+03   -0.15663E-03   -0.15662E-03   768   0.340E-03 0.173E-07
CGA:  12    -0.662550294870E+03   -0.66289E-04   -0.66280E-04   768   0.128E-03 0.974E-06
   8 F= -.66908617E+03 E0= -.66907339E+03  d E =-.326279E-01  mag=     1.1109
       N       E                     dE             d eps       ncg     rms          ort
SDA:   1    -0.661349190575E+03    0.12010E+01    0.00000E+00   768   0.419E+01 0.000E+00
CGA:   2    -0.661890449161E+03   -0.54126E+00   -0.54172E+00   768   0.193E+01-0.582E-02
CGA:   3    -0.662233015778E+03   -0.34257E+00   -0.34236E+00   768   0.119E+01-0.213E-01
CGA:   4    -0.662450582195E+03   -0.21757E+00   -0.21751E+00   768   0.404E+00 0.122E-01
CGA:   5    -0.662523439369E+03   -0.72857E-01   -0.72851E-01   768   0.142E+00-0.415E-03
CGA:   6    -0.662548286744E+03   -0.24847E-01   -0.24859E-01   768   0.669E-01 0.868E-03
CGA:   7    -0.662559350215E+03   -0.11063E-01   -0.11059E-01   768   0.337E-01-0.695E-04
CGA:   8    -0.662565474045E+03   -0.61238E-02   -0.61238E-02   768   0.134E-01 0.104E-03
CGA:   9    -0.662568078919E+03   -0.26049E-02   -0.26054E-02   768   0.479E-02-0.276E-04
CGA:  10    -0.662568835426E+03   -0.75651E-03   -0.75674E-03   768   0.203E-02 0.706E-05
CGA:  11    -0.662569168720E+03   -0.33329E-03   -0.33326E-03   768   0.665E-03-0.569E-06
CGA:  12    -0.662569302155E+03   -0.13344E-03   -0.13341E-03   768   0.299E-03 0.134E-05
CGA:  13    -0.662569354049E+03   -0.51894E-04   -0.51883E-04   768   0.181E-03-0.145E-05
   9 F= -.66910669E+03 E0= -.66909202E+03  d E =-.531463E-01  mag=     1.1258
       N       E                     dE             d eps       ncg     rms          ort
SDA:   1    -0.661906626170E+03    0.66268E+00    0.00000E+00   768   0.200E+01 0.000E+00
CGA:   2    -0.662246127814E+03   -0.33950E+00   -0.33905E+00   768   0.156E+01-0.165E-01
CGA:   3    -0.662469971597E+03   -0.22384E+00   -0.22429E+00   768   0.582E+00 0.252E-02
CGA:   4    -0.662571091480E+03   -0.10112E+00   -0.10114E+00   768   0.122E+00 0.202E-02
CGA:   5    -0.662591817441E+03   -0.20726E-01   -0.20727E-01   768   0.400E-01 0.108E-03
CGA:   6    -0.662599529613E+03   -0.77122E-02   -0.77112E-02   768   0.174E-01 0.749E-04
CGA:   7    -0.662602440747E+03   -0.29111E-02   -0.29111E-02   768   0.938E-02 0.576E-05
CGA:   8    -0.662603981434E+03   -0.15407E-02   -0.15409E-02   768   0.420E-02 0.846E-05
CGA:   9    -0.662604838411E+03   -0.85698E-03   -0.85713E-03   768   0.161E-02-0.515E-05
CGA:  10    -0.662605174206E+03   -0.33580E-03   -0.33553E-03   768   0.891E-03 0.831E-05
CGA:  11    -0.662605306282E+03   -0.13208E-03   -0.13217E-03   768   0.355E-03 0.279E-05
CGA:  12    -0.662605374414E+03   -0.68131E-04   -0.68095E-04   768   0.117E-03 0.297E-05
  10 F= -.66914430E+03 E0= -.66912911E+03  d E =-.376074E-01  mag=     1.1354
       N       E                     dE             d eps       ncg     rms          ort
SDA:   1    -0.662101461175E+03    0.50385E+00    0.00000E+00   768   0.149E+01 0.000E+00
CGA:   2    -0.662347046389E+03   -0.24559E+00   -0.24522E+00   768   0.115E+01-0.999E-02
CGA:   3    -0.662513117471E+03   -0.16607E+00   -0.16632E+00   768   0.433E+00 0.152E-02
CGA:   4    -0.662589382901E+03   -0.76265E-01   -0.76270E-01   768   0.904E-01 0.130E-02
CGA:   5    -0.662604717454E+03   -0.15335E-01   -0.15335E-01   768   0.295E-01 0.792E-04
CGA:   6    -0.662610389169E+03   -0.56717E-02   -0.56708E-02   768   0.131E-01 0.619E-04
CGA:   7    -0.662612552070E+03   -0.21629E-02   -0.21629E-02   768   0.712E-02 0.561E-05
CGA:   8    -0.662613713151E+03   -0.11611E-02   -0.11612E-02   768   0.315E-02 0.530E-05
CGA:   9    -0.662614357863E+03   -0.64471E-03   -0.64486E-03   768   0.120E-02-0.489E-05
CGA:  10    -0.662614604388E+03   -0.24653E-03   -0.24634E-03   768   0.678E-03 0.637E-05
CGA:  11    -0.662614702940E+03   -0.98552E-04   -0.98634E-04   768   0.263E-03 0.236E-05
  11 F= -.66915502E+03 E0= -.66913924E+03  d E =-.483258E-01  mag=     1.1477
       N       E                     dE             d eps       ncg     rms          ort
SDA:   1    -0.662546698749E+03    0.67906E-01    0.00000E+00   768   0.236E+00 0.000E+00
CGA:   2    -0.662585771577E+03   -0.39073E-01   -0.39042E-01   768   0.194E+00-0.999E-03
CGA:   3    -0.662613709298E+03   -0.27938E-01   -0.27957E-01   768   0.674E-01 0.165E-03
CGA:   4    -0.662626371052E+03   -0.12662E-01   -0.12662E-01   768   0.129E-01-0.140E-04
CGA:   5    -0.662628551968E+03   -0.21809E-02   -0.21810E-02   768   0.418E-02 0.152E-04
CGA:   6    -0.662629364735E+03   -0.81277E-03   -0.81253E-03   768   0.163E-02 0.140E-04
CGA:   7    -0.662629665408E+03   -0.30067E-03   -0.30066E-03   768   0.943E-03 0.221E-05
CGA:   8    -0.662629817565E+03   -0.15216E-03   -0.15215E-03   768   0.506E-03-0.619E-06
CGA:   9    -0.662629909503E+03   -0.91937E-04   -0.91947E-04   768   0.183E-03-0.196E-05
  12 F= -.66917098E+03 E0= -.66915492E+03  d E =-.159574E-01  mag=     1.1585
       N       E                     dE             d eps       ncg     rms          ort
SDA:   1    -0.661916515846E+03    0.71330E+00    0.00000E+00   768   0.213E+01 0.000E+00
CGA:   2    -0.662261727269E+03   -0.34521E+00   -0.34440E+00   768   0.179E+01-0.178E-01
CGA:   3    -0.662519000455E+03   -0.25727E+00   -0.25772E+00   768   0.610E+00 0.370E-02
CGA:   4    -0.662633192715E+03   -0.11419E+00   -0.11417E+00   768   0.117E+00 0.143E-02
CGA:   5    -0.662653082857E+03   -0.19890E-01   -0.19891E-01   768   0.397E-01 0.120E-03
CGA:   6    -0.662660874422E+03   -0.77916E-02   -0.77911E-02   768   0.142E-01 0.419E-04
CGA:   7    -0.662663843409E+03   -0.29690E-02   -0.29688E-02   768   0.729E-02 0.102E-04
CGA:   8    -0.662665162041E+03   -0.13186E-02   -0.13186E-02   768   0.480E-02-0.445E-05
CGA:   9    -0.662665867609E+03   -0.70557E-03   -0.70573E-03   768   0.173E-02 0.156E-05
CGA:  10    -0.662666265518E+03   -0.39791E-03   -0.39783E-03   768   0.627E-03 0.149E-05
CGA:  11    -0.662666401169E+03   -0.13565E-03   -0.13554E-03   768   0.318E-03 0.313E-05
CGA:  12    -0.662666444033E+03   -0.42864E-04   -0.42852E-04   768   0.142E-03-0.308E-06
  13 F= -.66920980E+03 E0= -.66919270E+03  d E =-.547786E-01  mag=     1.1995
       N       E                     dE             d eps       ncg     rms          ort
SDA:   1    -0.659698055800E+03    0.29683E+01    0.00000E+00   768   0.859E+01 0.000E+00
CGA:   2    -0.661055296611E+03   -0.13572E+01   -0.13558E+01   768   0.717E+01-0.367E-01
CGA:   3    -0.662100156877E+03   -0.10449E+01   -0.10471E+01   768   0.242E+01 0.209E-01
CGA:   4    -0.662550158419E+03   -0.45000E+00   -0.44987E+00   768   0.469E+00 0.115E-01
CGA:   5    -0.662631230520E+03   -0.81072E-01   -0.81082E-01   768   0.166E+00 0.937E-03
CGA:   6    -0.662662623308E+03   -0.31393E-01   -0.31395E-01   768   0.682E-01-0.366E-04
CGA:   7    -0.662674347238E+03   -0.11724E-01   -0.11725E-01   768   0.409E-01 0.119E-03
CGA:   8    -0.662680828193E+03   -0.64810E-02   -0.64820E-02   768   0.195E-01 0.236E-04
CGA:   9    -0.662684798421E+03   -0.39702E-02   -0.39688E-02   768   0.688E-02 0.377E-04
CGA:  10    -0.662686458081E+03   -0.16597E-02   -0.16599E-02   768   0.321E-02-0.337E-05
CGA:  11    -0.662686956665E+03   -0.49858E-03   -0.49874E-03   768   0.173E-02 0.555E-05
CGA:  12    -0.662687230524E+03   -0.27386E-03   -0.27385E-03   768   0.502E-03-0.512E-06
CGA:  13    -0.662687346382E+03   -0.11586E-03   -0.11583E-03   768   0.221E-03 0.567E-06
CGA:  14    -0.662687385621E+03   -0.39239E-04   -0.39237E-04   768   0.167E-03-0.585E-06
  14 F= -.66923538E+03 E0= -.66921538E+03  d E =-.803614E-01  mag=     1.3223
       N       E                     dE             d eps       ncg     rms          ort
SDA:   1    -0.662565773131E+03    0.12157E+00    0.00000E+00   768   0.365E+00 0.000E+00
CGA:   2    -0.662622456953E+03   -0.56684E-01   -0.56701E-01   768   0.277E+00 0.222E-03
CGA:   3    -0.662665113424E+03   -0.42656E-01   -0.42637E-01   768   0.103E+00-0.226E-03
CGA:   4    -0.662684635269E+03   -0.19522E-01   -0.19523E-01   768   0.181E-01-0.176E-04
CGA:   5    -0.662687773556E+03   -0.31383E-02   -0.31382E-02   768   0.652E-02-0.179E-04
CGA:   6    -0.662688920802E+03   -0.11472E-02   -0.11472E-02   768   0.272E-02-0.161E-04
CGA:   7    -0.662689351253E+03   -0.43045E-03   -0.43040E-03   768   0.146E-02-0.238E-05
CGA:   8    -0.662689602063E+03   -0.25081E-03   -0.25081E-03   768   0.667E-03 0.717E-06
CGA:   9    -0.662689739325E+03   -0.13726E-03   -0.13719E-03   768   0.261E-03 0.267E-05
CGA:  10    -0.662689792842E+03   -0.53518E-04   -0.53548E-04   768   0.156E-03-0.120E-05
  15 F= -.66923685E+03 E0= -.66921750E+03  d E =-.818275E-01  mag=     1.2955
       N       E                     dE             d eps       ncg     rms          ort
SDA:   1    -0.662609352412E+03    0.80387E-01    0.00000E+00   768   0.243E+00 0.000E+00
CGA:   2    -0.662659601199E+03   -0.50249E-01   -0.50243E-01   768   0.220E+00 0.120E-03
CGA:   3    -0.662687882589E+03   -0.28281E-01   -0.28328E-01   768   0.704E-01 0.688E-04
CGA:   4    -0.662700449627E+03   -0.12567E-01   -0.12567E-01   768   0.133E-01-0.329E-04
CGA:   5    -0.662702938556E+03   -0.24889E-02   -0.24888E-02   768   0.489E-02 0.128E-04
CGA:   6    -0.662703747549E+03   -0.80899E-03   -0.80909E-03   768   0.200E-02 0.805E-05
CGA:   7    -0.662704063038E+03   -0.31549E-03   -0.31548E-03   768   0.106E-02-0.644E-06
CGA:   8    -0.662704251785E+03   -0.18875E-03   -0.18875E-03   768   0.474E-03-0.258E-05
CGA:   9    -0.662704354507E+03   -0.10272E-03   -0.10285E-03   768   0.216E-03-0.318E-05
CGA:  10    -0.662704394183E+03   -0.39676E-04   -0.39672E-04   768   0.123E-03 0.503E-06
  16 F= -.66925218E+03 E0= -.66923281E+03  d E =-.153346E-01  mag=     1.3041
       N       E                     dE             d eps       ncg     rms          ort
SDA:   1    -0.661875031138E+03    0.82932E+00    0.00000E+00   768   0.218E+01 0.000E+00
CGA:   2    -0.662323395708E+03   -0.44836E+00   -0.44820E+00   768   0.199E+01 0.362E-02
CGA:   3    -0.662580719155E+03   -0.25732E+00   -0.25830E+00   768   0.617E+00 0.197E-02
CGA:   4    -0.662691388453E+03   -0.11067E+00   -0.11066E+00   768   0.118E+00 0.103E-02
CGA:   5    -0.662713588457E+03   -0.22200E-01   -0.22200E-01   768   0.439E-01 0.122E-04
CGA:   6    -0.662721246683E+03   -0.76582E-02   -0.76583E-02   768   0.175E-01 0.521E-04
CGA:   7    -0.662724196801E+03   -0.29501E-02   -0.29501E-02   768   0.999E-02 0.248E-06
CGA:   8    -0.662725885021E+03   -0.16882E-02   -0.16883E-02   768   0.456E-02 0.374E-05
CGA:   9    -0.662726852114E+03   -0.96709E-03   -0.96740E-03   768   0.189E-02-0.881E-05
CGA:  10    -0.662727247149E+03   -0.39504E-03   -0.39493E-03   768   0.103E-02 0.301E-05
CGA:  11    -0.662727395409E+03   -0.14826E-03   -0.14827E-03   768   0.403E-03 0.179E-06
CGA:  12    -0.662727475642E+03   -0.80233E-04   -0.80201E-04   768   0.133E-03 0.147E-05
  17 F= -.66927740E+03 E0= -.66925788E+03  d E =-.405534E-01  mag=     1.3279
       N       E                     dE             d eps       ncg     rms          ort
SDA:   1    -0.662658700911E+03    0.68694E-01    0.00000E+00   768   0.180E+00 0.000E+00
CGA:   2    -0.662694871198E+03   -0.36170E-01   -0.36169E-01   768   0.160E+00 0.466E-04
CGA:   3    -0.662716254847E+03   -0.21384E-01   -0.21406E-01   768   0.504E-01 0.534E-04
CGA:   4    -0.662725398764E+03   -0.91439E-02   -0.91440E-02   768   0.944E-02-0.392E-04
CGA:   5    -0.662727177080E+03   -0.17783E-02   -0.17782E-02   768   0.346E-02 0.115E-04
CGA:   6    -0.662727761726E+03   -0.58465E-03   -0.58471E-03   768   0.140E-02 0.617E-05
CGA:   7    -0.662727999629E+03   -0.23790E-03   -0.23790E-03   768   0.783E-03-0.425E-06
CGA:   8    -0.662728136855E+03   -0.13723E-03   -0.13722E-03   768   0.376E-03-0.193E-05
CGA:   9    -0.662728217037E+03   -0.80182E-04   -0.80271E-04   768   0.164E-03-0.250E-05
  18 F= -.66927873E+03 E0= -.66925914E+03  d E =-.418864E-01  mag=     1.3343
       N       E                     dE             d eps       ncg     rms          ort
SDA:   1    -0.662460289077E+03    0.26785E+00    0.00000E+00   768   0.704E+00 0.000E+00
CGA:   2    -0.662630577851E+03   -0.17029E+00   -0.17016E+00   768   0.470E+00 0.154E-02
CGA:   3    -0.662704115327E+03   -0.73537E-01   -0.73494E-01   768   0.214E+00-0.772E-03
CGA:   4    -0.662733204305E+03   -0.29089E-01   -0.29098E-01   768   0.493E-01-0.594E-04
CGA:   5    -0.662741420128E+03   -0.82158E-02   -0.82143E-02   768   0.180E-01-0.430E-04
CGA:   6    -0.662744596121E+03   -0.31760E-02   -0.31761E-02   768   0.835E-02 0.138E-04
CGA:   7    -0.662746019663E+03   -0.14235E-02   -0.14234E-02   768   0.405E-02-0.128E-04
CGA:   8    -0.662746755347E+03   -0.73568E-03   -0.73569E-03   768   0.182E-02-0.508E-05
CGA:   9    -0.662747109494E+03   -0.35415E-03   -0.35426E-03   768   0.858E-03-0.685E-05
CGA:  10    -0.662747256053E+03   -0.14656E-03   -0.14657E-03   768   0.384E-03 0.125E-05
CGA:  11    -0.662747322051E+03   -0.65999E-04   -0.66007E-04   768   0.138E-03 0.106E-05
  19 F= -.66929835E+03 E0= -.66927891E+03  d E =-.196184E-01  mag=     1.3275
       N       E                     dE             d eps       ncg     rms          ort
SDA:   1    -0.662369041463E+03    0.37821E+00    0.00000E+00   768   0.946E+00 0.000E+00
CGA:   2    -0.662597192526E+03   -0.22815E+00   -0.22793E+00   768   0.632E+00 0.247E-02
CGA:   3    -0.662696116294E+03   -0.98924E-01   -0.98861E-01   768   0.290E+00-0.121E-02
CGA:   4    -0.662735470604E+03   -0.39354E-01   -0.39368E-01   768   0.673E-01-0.679E-04
CGA:   5    -0.662746615403E+03   -0.11145E-01   -0.11142E-01   768   0.238E-01-0.720E-04
CGA:   6    -0.662750856242E+03   -0.42408E-02   -0.42408E-02   768   0.113E-01 0.218E-04
CGA:   7    -0.662752767907E+03   -0.19117E-02   -0.19114E-02   768   0.548E-02-0.171E-04
CGA:   8    -0.662753764599E+03   -0.99669E-03   -0.99669E-03   768   0.244E-02-0.422E-05
CGA:   9    -0.662754240337E+03   -0.47574E-03   -0.47590E-03   768   0.115E-02-0.851E-05
CGA:  10    -0.662754435720E+03   -0.19538E-03   -0.19540E-03   768   0.520E-03 0.136E-05
CGA:  11    -0.662754524979E+03   -0.89259E-04   -0.89267E-04   768   0.186E-03 0.108E-05
  20 F= -.66930612E+03 E0= -.66928695E+03  d E =-.273865E-01  mag=     1.3167
       N       E                     dE             d eps       ncg     rms          ort
SDA:   1    -0.662641689013E+03    0.11275E+00    0.00000E+00   768   0.318E+00 0.000E+00
CGA:   2    -0.662708720961E+03   -0.67032E-01   -0.67023E-01   768   0.201E+00 0.116E-03
CGA:   3    -0.662745914042E+03   -0.37193E-01   -0.37198E-01   768   0.106E+00-0.591E-03
CGA:   4    -0.662760853337E+03   -0.14939E-01   -0.14947E-01   768   0.282E-01-0.461E-05
CGA:   5    -0.662765325022E+03   -0.44717E-02   -0.44703E-02   768   0.102E-01-0.309E-04
CGA:   6    -0.662767095825E+03   -0.17708E-02   -0.17709E-02   768   0.548E-02 0.874E-05
CGA:   7    -0.662768042802E+03   -0.94698E-03   -0.94692E-03   768   0.267E-02-0.746E-05
CGA:   8    -0.662768550212E+03   -0.50741E-03   -0.50743E-03   768   0.117E-02-0.265E-05
CGA:   9    -0.662768764881E+03   -0.21467E-03   -0.21470E-03   768   0.521E-03-0.462E-05
CGA:  10    -0.662768846457E+03   -0.81576E-04   -0.81580E-04   768   0.204E-03 0.135E-06
  21 F= -.66932079E+03 E0= -.66930075E+03  d E =-.146667E-01  mag=     1.3403
       N       E                     dE             d eps       ncg     rms          ort
SDA:   1    -0.661652635662E+03    0.11161E+01    0.00000E+00   768   0.287E+01 0.000E+00
CGA:   2    -0.662252275546E+03   -0.59964E+00   -0.59930E+00   768   0.183E+01 0.438E-02
CGA:   3    -0.662586454347E+03   -0.33418E+00   -0.33429E+00   768   0.100E+01-0.187E-01
CGA:   4    -0.662724027392E+03   -0.13757E+00   -0.13783E+00   768   0.257E+00 0.361E-03
CGA:   5    -0.662765358377E+03   -0.41331E-01   -0.41296E-01   768   0.960E-01-0.102E-02
CGA:   6    -0.662781660391E+03   -0.16302E-01   -0.16304E-01   768   0.491E-01 0.178E-03
CGA:   7    -0.662790333751E+03   -0.86734E-02   -0.86735E-02   768   0.245E-01-0.184E-03
CGA:   8    -0.662794844943E+03   -0.45112E-02   -0.45105E-02   768   0.110E-01 0.391E-04
CGA:   9    -0.662796841238E+03   -0.19963E-02   -0.19965E-02   768   0.485E-02-0.287E-04
CGA:  10    -0.662797617323E+03   -0.77608E-03   -0.77616E-03   768   0.191E-02 0.212E-05
CGA:  11    -0.662797952859E+03   -0.33554E-03   -0.33554E-03   768   0.713E-03-0.135E-06
CGA:  12    -0.662798079543E+03   -0.12668E-03   -0.12668E-03   768   0.344E-03 0.231E-05
CGA:  13    -0.662798141412E+03   -0.61869E-04   -0.61869E-04   768   0.181E-03-0.978E-07
  22 F= -.66935103E+03 E0= -.66932824E+03  d E =-.449088E-01  mag=     1.4290
       N       E                     dE             d eps       ncg     rms          ort
SDA:   1    -0.658208079692E+03    0.45900E+01    0.00000E+00   768   0.115E+02 0.000E+00
CGA:   2    -0.660601365076E+03   -0.23933E+01   -0.23902E+01   768   0.728E+01 0.402E-01
CGA:   3    -0.661932067855E+03   -0.13307E+01   -0.13316E+01   768   0.419E+01-0.175E+00
CGA:   4    -0.662481422186E+03   -0.54935E+00   -0.55189E+00   768   0.103E+01 0.340E-03
CGA:   5    -0.662651539089E+03   -0.17012E+00   -0.16988E+00   768   0.397E+00-0.945E-02
CGA:   6    -0.662716255944E+03   -0.64717E-01   -0.64758E-01   768   0.200E+00 0.143E-02
CGA:   7    -0.662751398046E+03   -0.35142E-01   -0.35141E-01   768   0.103E+00-0.161E-02
CGA:   8    -0.662769618394E+03   -0.18220E-01   -0.18219E-01   768   0.461E-01 0.396E-03
CGA:   9    -0.662778063523E+03   -0.84451E-02   -0.84471E-02   768   0.207E-01-0.177E-03
CGA:  10    -0.662781310415E+03   -0.32469E-02   -0.32482E-02   768   0.837E-02 0.301E-04
CGA:  11    -0.662782750442E+03   -0.14400E-02   -0.14400E-02   768   0.311E-02-0.772E-05
CGA:  12    -0.662783299012E+03   -0.54857E-03   -0.54856E-03   768   0.150E-02 0.561E-05
CGA:  13    -0.662783558327E+03   -0.25931E-03   -0.25932E-03   768   0.769E-03-0.308E-06
CGA:  14    -0.662783715452E+03   -0.15713E-03   -0.15711E-03   768   0.481E-03 0.965E-06
CGA:  15    -0.662783816031E+03   -0.10058E-03   -0.10059E-03   768   0.371E-03-0.849E-06
CGA:  16    -0.662783893663E+03   -0.77632E-04   -0.77629E-04   768   0.255E-03 0.413E-06
  23 F= -.66933827E+03 E0= -.66931190E+03  d E =-.321492E-01  mag=     1.5683
       N       E                     dE             d eps       ncg     rms          ort
SDA:   1    -0.660888388351E+03    0.18954E+01    0.00000E+00   768   0.480E+01 0.000E+00
CGA:   2    -0.661915796893E+03   -0.10274E+01   -0.10276E+01   768   0.298E+01-0.377E-02
CGA:   3    -0.662464996571E+03   -0.54920E+00   -0.54916E+00   768   0.154E+01 0.246E-01
CGA:   4    -0.662687942943E+03   -0.22295E+00   -0.22232E+00   768   0.419E+00-0.304E-02
CGA:   5    -0.662752146047E+03   -0.64203E-01   -0.64324E-01   768   0.159E+00 0.139E-02
CGA:   6    -0.662777992388E+03   -0.25846E-01   -0.25826E-01   768   0.839E-01-0.512E-03
CGA:   7    -0.662792476686E+03   -0.14484E-01   -0.14489E-01   768   0.377E-01 0.380E-03
CGA:   8    -0.662800141154E+03   -0.76645E-02   -0.76693E-02   768   0.176E-01-0.130E-03
CGA:   9    -0.662803193645E+03   -0.30525E-02   -0.30530E-02   768   0.823E-02 0.500E-04
CGA:  10    -0.662804447852E+03   -0.12542E-02   -0.12539E-02   768   0.292E-02-0.531E-05
CGA:  11    -0.662804987748E+03   -0.53990E-03   -0.53988E-03   768   0.102E-02 0.573E-06
CGA:  12    -0.662805162957E+03   -0.17521E-03   -0.17519E-03   768   0.507E-03-0.317E-05
CGA:  13    -0.662805245509E+03   -0.82552E-04   -0.82551E-04   768   0.210E-03-0.802E-07
  24 F= -.66935872E+03 E0= -.66933368E+03  d E =-.526050E-01  mag=     1.5248
       N       E                     dE             d eps       ncg     rms          ort
SDA:   1    -0.662358074363E+03    0.44709E+00    0.00000E+00   768   0.121E+01 0.000E+00
CGA:   2    -0.662603982088E+03   -0.24591E+00   -0.24589E+00   768   0.714E+00-0.666E-04
CGA:   3    -0.662741629089E+03   -0.13765E+00   -0.13768E+00   768   0.384E+00-0.187E-02
CGA:   4    -0.662797303914E+03   -0.55675E-01   -0.55707E-01   768   0.999E-01 0.837E-04
CGA:   5    -0.662814333916E+03   -0.17030E-01   -0.17027E-01   768   0.364E-01-0.144E-03
CGA:   6    -0.662821444432E+03   -0.71105E-02   -0.71086E-02   768   0.198E-01 0.633E-04
CGA:   7    -0.662824612460E+03   -0.31680E-02   -0.31660E-02   768   0.117E-01-0.433E-04
CGA:   8    -0.662826483777E+03   -0.18713E-02   -0.18717E-02   768   0.441E-02 0.470E-05
CGA:   9    -0.662827388575E+03   -0.90480E-03   -0.90511E-03   768   0.151E-02-0.929E-05
CGA:  10    -0.662827672006E+03   -0.28343E-03   -0.28340E-03   768   0.767E-03 0.331E-05
CGA:  11    -0.662827775297E+03   -0.10329E-03   -0.10332E-03   768   0.277E-03 0.851E-06
CGA:  12    -0.662827830744E+03   -0.55447E-04   -0.55409E-04   768   0.105E-03 0.174E-05
  25 F= -.66938159E+03 E0= -.66935496E+03  d E =-.228705E-01  mag=     1.5892
       N       E                     dE             d eps       ncg     rms          ort
SDA:   1    -0.658652005935E+03    0.41758E+01    0.00000E+00   768   0.109E+02 0.000E+00
CGA:   2    -0.660858043977E+03   -0.22060E+01   -0.22051E+01   768   0.639E+01 0.808E-02
CGA:   3    -0.662092946240E+03   -0.12349E+01   -0.12363E+01   768   0.356E+01-0.861E-01
CGA:   4    -0.662586248647E+03   -0.49330E+00   -0.49503E+00   768   0.930E+00 0.163E-02
CGA:   5    -0.662739589294E+03   -0.15334E+00   -0.15309E+00   768   0.386E+00-0.763E-02
CGA:   6    -0.662799142299E+03   -0.59553E-01   -0.59659E-01   768   0.216E+00 0.123E-02
CGA:   7    -0.662833835903E+03   -0.34694E-01   -0.34628E-01   768   0.101E+00-0.145E-02
CGA:   8    -0.662853217527E+03   -0.19382E-01   -0.19371E-01   768   0.426E-01 0.413E-03
CGA:   9    -0.662861086241E+03   -0.78687E-02   -0.78703E-02   768   0.218E-01-0.172E-03
CGA:  10    -0.662864058754E+03   -0.29725E-02   -0.29753E-02   768   0.824E-02 0.194E-04
CGA:  11    -0.662865579135E+03   -0.15204E-02   -0.15205E-02   768   0.285E-02-0.513E-05
CGA:  12    -0.662866093366E+03   -0.51423E-03   -0.51421E-03   768   0.168E-02 0.653E-05
CGA:  13    -0.662866350944E+03   -0.25758E-03   -0.25758E-03   768   0.809E-03-0.517E-06
CGA:  14    -0.662866542249E+03   -0.19131E-03   -0.19130E-03   768   0.558E-03 0.492E-06
CGA:  15    -0.662866654265E+03   -0.11202E-03   -0.11203E-03   768   0.527E-03-0.109E-05
CGA:  16    -0.662866763684E+03   -0.10942E-03   -0.10942E-03   768   0.327E-03 0.334E-06
CGA:  17    -0.662866846173E+03   -0.82489E-04   -0.82539E-04   768   0.287E-03-0.995E-06
  26 F= -.66942112E+03 E0= -.66939053E+03  d E =-.623985E-01  mag=     1.7818
       N       E                     dE             d eps       ncg     rms          ort
SDA:   1    -0.662447337521E+03    0.41943E+00    0.00000E+00   768   0.108E+01 0.000E+00
CGA:   2    -0.662668827753E+03   -0.22149E+00   -0.22150E+00   768   0.642E+00-0.431E-03
CGA:   3    -0.662791107373E+03   -0.12228E+00   -0.12228E+00   768   0.344E+00-0.126E-03
CGA:   4    -0.662841202384E+03   -0.50095E-01   -0.50083E-01   768   0.892E-01-0.109E-03
CGA:   5    -0.662856598114E+03   -0.15396E-01   -0.15397E-01   768   0.316E-01 0.538E-04
CGA:   6    -0.662862939056E+03   -0.63409E-02   -0.63432E-02   768   0.179E-01-0.779E-04
CGA:   7    -0.662865648709E+03   -0.27097E-02   -0.27121E-02   768   0.109E-01 0.200E-04
CGA:   8    -0.662867309728E+03   -0.16610E-02   -0.16597E-02   768   0.412E-02-0.186E-04
CGA:   9    -0.662868158379E+03   -0.84865E-03   -0.84854E-03   768   0.138E-02 0.209E-05
CGA:  10    -0.662868415811E+03   -0.25743E-03   -0.25743E-03   768   0.758E-03-0.127E-06
CGA:  11    -0.662868508752E+03   -0.92941E-04   -0.93098E-04   768   0.256E-03 0.225E-05
  27 F= -.66942284E+03 E0= -.66939137E+03  d E =-.641206E-01  mag=     1.8093
       N       E                     dE             d eps       ncg     rms          ort
SDA:   1    -0.661443623816E+03    0.14248E+01    0.00000E+00   768   0.385E+01 0.000E+00
CGA:   2    -0.662227400722E+03   -0.78378E+00   -0.78377E+00   768   0.218E+01-0.118E-02
CGA:   3    -0.662635298670E+03   -0.40790E+00   -0.40786E+00   768   0.115E+01 0.268E-02
CGA:   4    -0.662805054238E+03   -0.16976E+00   -0.16965E+00   768   0.309E+00-0.116E-02
CGA:   5    -0.662856982740E+03   -0.51929E-01   -0.51946E-01   768   0.118E+00 0.532E-03
CGA:   6    -0.662877582378E+03   -0.20600E-01   -0.20594E-01   768   0.770E-01-0.555E-03
CGA:   7    -0.662888042032E+03   -0.10460E-01   -0.10478E-01   768   0.355E-01 0.726E-04
CGA:   8    -0.662894795909E+03   -0.67539E-02   -0.67567E-02   768   0.138E-01-0.133E-03
CGA:   9    -0.662897642866E+03   -0.28470E-02   -0.28459E-02   768   0.613E-02 0.252E-04
CGA:  10    -0.662898500908E+03   -0.85804E-03   -0.85753E-03   768   0.323E-02-0.291E-05
CGA:  11    -0.662899000437E+03   -0.49953E-03   -0.49971E-03   768   0.914E-03 0.707E-05
CGA:  12    -0.662899201637E+03   -0.20120E-03   -0.20113E-03   768   0.496E-03 0.155E-05
CGA:  13    -0.662899274558E+03   -0.72922E-04   -0.72969E-04   768   0.339E-03 0.182E-05
  28 F= -.66945330E+03 E0= -.66942169E+03  d E =-.304584E-01  mag=     1.6608
       N       E                     dE             d eps       ncg     rms          ort
SDA:   1    -0.662400249197E+03    0.49895E+00    0.00000E+00   768   0.133E+01 0.000E+00
CGA:   2    -0.662671203883E+03   -0.27095E+00   -0.27097E+00   768   0.757E+00-0.462E-03
CGA:   3    -0.662811597336E+03   -0.14039E+00   -0.14038E+00   768   0.404E+00 0.114E-02
CGA:   4    -0.662871092732E+03   -0.59495E-01   -0.59458E-01   768   0.111E+00-0.312E-03
CGA:   5    -0.662888825993E+03   -0.17733E-01   -0.17742E-01   768   0.474E-01 0.176E-03
CGA:   6    -0.662895744743E+03   -0.69188E-02   -0.69117E-02   768   0.283E-01-0.727E-04
CGA:   7    -0.662900126438E+03   -0.43817E-02   -0.43831E-02   768   0.119E-01 0.231E-04
CGA:   8    -0.662902630399E+03   -0.25040E-02   -0.25054E-02   768   0.529E-02-0.318E-04
CGA:   9    -0.662903603203E+03   -0.97280E-03   -0.97274E-03   768   0.312E-02 0.516E-05
CGA:  10    -0.662904001506E+03   -0.39830E-03   -0.39817E-03   768   0.118E-02-0.653E-06
CGA:  11    -0.662904242797E+03   -0.24129E-03   -0.24116E-03   768   0.477E-03 0.459E-05
CGA:  12    -0.662904340029E+03   -0.97232E-04   -0.97192E-04   768   0.422E-03 0.133E-05
  29 F= -.66945811E+03 E0= -.66942783E+03  d E =-.352630E-01  mag=     1.5202
       N       E                     dE             d eps       ncg     rms          ort
SDA:   1    -0.661506104271E+03    0.13981E+01    0.00000E+00   768   0.393E+01 0.000E+00
CGA:   2    -0.662232765740E+03   -0.72666E+00   -0.72656E+00   768   0.206E+01 0.304E-02
CGA:   3    -0.662632236150E+03   -0.39947E+00   -0.39987E+00   768   0.132E+01-0.162E-01
CGA:   4    -0.662826484032E+03   -0.19425E+00   -0.19457E+00   768   0.387E+00 0.235E-02
CGA:   5    -0.662885926318E+03   -0.59442E-01   -0.59361E-01   768   0.170E+00-0.148E-02
CGA:   6    -0.662909614083E+03   -0.23688E-01   -0.23723E-01   768   0.873E-01 0.216E-03
CGA:   7    -0.662924984357E+03   -0.15370E-01   -0.15372E-01   768   0.405E-01-0.359E-03
CGA:   8    -0.662932950716E+03   -0.79664E-02   -0.79632E-02   768   0.199E-01 0.896E-04
CGA:   9    -0.662936099753E+03   -0.31490E-02   -0.31485E-02   768   0.109E-01-0.199E-04
CGA:  10    -0.662937692955E+03   -0.15932E-02   -0.15936E-02   768   0.369E-02 0.763E-05
CGA:  11    -0.662938461070E+03   -0.76811E-03   -0.76801E-03   768   0.197E-02 0.128E-05
CGA:  12    -0.662938794031E+03   -0.33296E-03   -0.33296E-03   768   0.148E-02 0.198E-05
CGA:  13    -0.662939099014E+03   -0.30498E-03   -0.30478E-03   768   0.101E-02 0.400E-05
CGA:  14    -0.662939386812E+03   -0.28780E-03   -0.28832E-03   768   0.122E-02-0.335E-05
CGA:  15    -0.662939605308E+03   -0.21850E-03   -0.21851E-03   768   0.915E-03 0.468E-05
CGA:  16    -0.662939832503E+03   -0.22720E-03   -0.22769E-03   768   0.619E-03-0.466E-05
CGA:  17    -0.662939945616E+03   -0.11311E-03   -0.11311E-03   768   0.438E-03 0.911E-06
CGA:  18    -0.662940021659E+03   -0.76043E-04   -0.76041E-04   768   0.179E-03 0.861E-06
  30 F= -.66949360E+03 E0= -.66947324E+03  d E =-.354906E-01  mag=     1.1429
       N       E                     dE             d eps       ncg     rms          ort
SDA:   1    -0.662282568918E+03    0.65738E+00    0.00000E+00   768   0.182E+01 0.000E+00
CGA:   2    -0.662621448347E+03   -0.33888E+00   -0.33888E+00   768   0.974E+00 0.104E-02
CGA:   3    -0.662806605553E+03   -0.18516E+00   -0.18519E+00   768   0.613E+00-0.481E-02
CGA:   4    -0.662898849331E+03   -0.92244E-01   -0.92383E-01   768   0.180E+00 0.830E-03
CGA:   5    -0.662926668553E+03   -0.27819E-01   -0.27790E-01   768   0.760E-01-0.376E-03
CGA:   6    -0.662937838295E+03   -0.11170E-01   -0.11180E-01   768   0.396E-01 0.733E-04
CGA:   7    -0.662944692300E+03   -0.68540E-02   -0.68524E-02   768   0.180E-01-0.955E-04
CGA:   8    -0.662948172085E+03   -0.34798E-02   -0.34791E-02   768   0.826E-02 0.298E-04
CGA:   9    -0.662949533288E+03   -0.13612E-02   -0.13610E-02   768   0.417E-02-0.844E-05
CGA:  10    -0.662950123758E+03   -0.59047E-03   -0.59072E-03   768   0.133E-02 0.299E-05
CGA:  11    -0.662950378152E+03   -0.25439E-03   -0.25440E-03   768   0.533E-03-0.524E-06
CGA:  12    -0.662950462623E+03   -0.84471E-04   -0.84502E-04   768   0.296E-03 0.169E-05
  31 F= -.66950379E+03 E0= -.66948635E+03  d E =-.456869E-01  mag=     1.0829
       N       E                     dE             d eps       ncg     rms          ort
SDA:   1    -0.662887968769E+03    0.62409E-01    0.00000E+00   768   0.172E+00 0.000E+00
CGA:   2    -0.662920074108E+03   -0.32105E-01   -0.32105E-01   768   0.930E-01 0.186E-04
CGA:   3    -0.662937442164E+03   -0.17368E-01   -0.17370E-01   768   0.576E-01-0.134E-03
CGA:   4    -0.662946283840E+03   -0.88417E-02   -0.88442E-02   768   0.169E-01 0.275E-04
CGA:   5    -0.662948940400E+03   -0.26566E-02   -0.26561E-02   768   0.659E-02-0.893E-05
CGA:   6    -0.662949955146E+03   -0.10147E-02   -0.10149E-02   768   0.383E-02 0.408E-05
CGA:   7    -0.662950590966E+03   -0.63582E-03   -0.63578E-03   768   0.176E-02-0.211E-05
CGA:   8    -0.662950940052E+03   -0.34909E-03   -0.34903E-03   768   0.789E-03 0.198E-05
CGA:   9    -0.662951081929E+03   -0.14188E-03   -0.14188E-03   768   0.408E-03-0.876E-06
CGA:  10    -0.662951138295E+03   -0.56366E-04   -0.56397E-04   768   0.156E-03 0.766E-06
  32 F= -.66950438E+03 E0= -.66948801E+03  d E =-.462715E-01  mag=     1.0627
       N       E                     dE             d eps       ncg     rms          ort
SDA:   1    -0.661566483865E+03    0.13846E+01    0.00000E+00   768   0.389E+01 0.000E+00
CGA:   2    -0.662286539585E+03   -0.72006E+00   -0.71983E+00   768   0.212E+01 0.959E-02
CGA:   3    -0.662667504028E+03   -0.38096E+00   -0.38106E+00   768   0.132E+01-0.180E-01
CGA:   4    -0.662865239620E+03   -0.19774E+00   -0.19811E+00   768   0.393E+00 0.418E-02
CGA:   5    -0.662926279190E+03   -0.61040E-01   -0.60984E-01   768   0.159E+00-0.127E-02
CGA:   6    -0.662952136452E+03   -0.25857E-01   -0.25867E-01   768   0.781E-01 0.398E-03
CGA:   7    -0.662966241209E+03   -0.14105E-01   -0.14108E-01   768   0.381E-01-0.322E-03
CGA:   8    -0.662973186212E+03   -0.69450E-02   -0.69435E-02   768   0.176E-01 0.965E-04
CGA:   9    -0.662976166940E+03   -0.29807E-02   -0.29805E-02   768   0.757E-02-0.221E-04
CGA:  10    -0.662977359369E+03   -0.11924E-02   -0.11927E-02   768   0.268E-02 0.843E-05
CGA:  11    -0.662977837276E+03   -0.47791E-03   -0.47791E-03   768   0.108E-02-0.102E-05
CGA:  12    -0.662978016928E+03   -0.17965E-03   -0.17967E-03   768   0.514E-03 0.235E-05
CGA:  13    -0.662978113815E+03   -0.96887E-04   -0.96882E-04   768   0.281E-03 0.653E-07
  33 F= -.66953097E+03 E0= -.66951779E+03  d E =-.265947E-01  mag=     1.0214
       N       E                     dE             d eps       ncg     rms          ort
SDA:   1    -0.662244699331E+03    0.73332E+00    0.00000E+00   768   0.203E+01 0.000E+00
CGA:   2    -0.662623145873E+03   -0.37845E+00   -0.37837E+00   768   0.110E+01 0.300E-02
CGA:   3    -0.662822866069E+03   -0.19972E+00   -0.19976E+00   768   0.665E+00-0.625E-02
CGA:   4    -0.662926546395E+03   -0.10368E+00   -0.10377E+00   768   0.193E+00 0.139E-02
CGA:   5    -0.662958207437E+03   -0.31661E-01   -0.31648E-01   768   0.753E-01-0.541E-03
CGA:   6    -0.662970993556E+03   -0.12786E-01   -0.12788E-01   768   0.401E-01 0.150E-03
CGA:   7    -0.662977820252E+03   -0.68267E-02   -0.68258E-02   768   0.194E-01-0.947E-04
CGA:   8    -0.662981441694E+03   -0.36214E-02   -0.36207E-02   768   0.815E-02 0.370E-04
CGA:   9    -0.662982971255E+03   -0.15296E-02   -0.15297E-02   768   0.339E-02-0.105E-04
CGA:  10    -0.662983489578E+03   -0.51832E-03   -0.51843E-03   768   0.137E-02 0.330E-05
CGA:  11    -0.662983726560E+03   -0.23698E-03   -0.23698E-03   768   0.474E-03-0.488E-06
CGA:  12    -0.662983819148E+03   -0.92588E-04   -0.92557E-04   768   0.259E-03 0.162E-05
  34 F= -.66953634E+03 E0= -.66952447E+03  d E =-.319620E-01  mag=     1.0115
       N       E                     dE             d eps       ncg     rms          ort
SDA:   1    -0.662868517194E+03    0.11521E+00    0.00000E+00   768   0.344E+00 0.000E+00
CGA:   2    -0.662946780655E+03   -0.78263E-01   -0.78259E-01   768   0.211E+00 0.603E-05
CGA:   3    -0.662977129902E+03   -0.30349E-01   -0.30342E-01   768   0.982E-01-0.143E-03
CGA:   4    -0.662991620641E+03   -0.14491E-01   -0.14494E-01   768   0.261E-01 0.460E-05
CGA:   5    -0.662996082185E+03   -0.44615E-02   -0.44615E-02   768   0.886E-02-0.836E-05
CGA:   6    -0.662997555798E+03   -0.14736E-02   -0.14737E-02   768   0.368E-02 0.996E-05
CGA:   7    -0.662998176380E+03   -0.62058E-03   -0.62057E-03   768   0.193E-02 0.329E-07
CGA:   8    -0.662998540127E+03   -0.36375E-03   -0.36373E-03   768   0.937E-03 0.944E-06
CGA:   9    -0.662998726078E+03   -0.18595E-03   -0.18598E-03   768   0.451E-03-0.116E-05
CGA:  10    -0.662998805372E+03   -0.79294E-04   -0.79294E-04   768   0.228E-03 0.224E-05
  35 F= -.66955145E+03 E0= -.66953919E+03  d E =-.151120E-01  mag=     1.0093
       N       E                     dE             d eps       ncg     rms          ort
SDA:   1    -0.662942302070E+03    0.56424E-01    0.00000E+00   768   0.157E+00 0.000E+00
CGA:   2    -0.662978014732E+03   -0.35713E-01   -0.35711E-01   768   0.957E-01 0.717E-05
CGA:   3    -0.662991796422E+03   -0.13782E-01   -0.13780E-01   768   0.444E-01-0.448E-04
CGA:   4    -0.662998391955E+03   -0.65955E-02   -0.65961E-02   768   0.118E-01-0.851E-05
CGA:   5    -0.663000364670E+03   -0.19727E-02   -0.19727E-02   768   0.415E-02-0.466E-06
CGA:   6    -0.663001069819E+03   -0.70515E-03   -0.70518E-03   768   0.169E-02 0.569E-05
CGA:   7    -0.663001357232E+03   -0.28741E-03   -0.28741E-03   768   0.917E-03 0.346E-06
CGA:   8    -0.663001527351E+03   -0.17012E-03   -0.17011E-03   768   0.432E-03 0.194E-06
CGA:   9    -0.663001613619E+03   -0.86269E-04   -0.86288E-04   768   0.209E-03-0.707E-06
  36 F= -.66955432E+03 E0= -.66954178E+03  d E =-.179800E-01  mag=     1.0086
       N       E                     dE             d eps       ncg     rms          ort
SDA:   1    -0.662949723034E+03    0.51804E-01    0.00000E+00   768   0.163E+00 0.000E+00
CGA:   2    -0.662986097339E+03   -0.36374E-01   -0.36381E-01   768   0.111E+00-0.111E-03
CGA:   3    -0.663000361242E+03   -0.14264E-01   -0.14268E-01   768   0.451E-01-0.197E-04
CGA:   4    -0.663007771628E+03   -0.74104E-02   -0.74102E-02   768   0.103E-01-0.247E-04
CGA:   5    -0.663009655411E+03   -0.18838E-02   -0.18837E-02   768   0.379E-02 0.601E-05
CGA:   6    -0.663010280749E+03   -0.62534E-03   -0.62546E-03   768   0.154E-02 0.106E-04
CGA:   7    -0.663010530896E+03   -0.25015E-03   -0.25020E-03   768   0.807E-03 0.424E-05
CGA:   8    -0.663010682375E+03   -0.15148E-03   -0.15145E-03   768   0.367E-03 0.229E-05
CGA:   9    -0.663010760935E+03   -0.78560E-04   -0.78575E-04   768   0.185E-03-0.378E-06
  37 F= -.66956377E+03 E0= -.66955116E+03  d E =-.945333E-02  mag=     1.0060
       N       E                     dE             d eps       ncg     rms          ort
SDA:   1    -0.662883384672E+03    0.12730E+00    0.00000E+00   768   0.352E+00 0.000E+00
CGA:   2    -0.662961603766E+03   -0.78219E-01   -0.78252E-01   768   0.245E+00-0.575E-03
CGA:   3    -0.662992722339E+03   -0.31119E-01   -0.31138E-01   768   0.969E-01-0.605E-04
CGA:   4    -0.663008856729E+03   -0.16134E-01   -0.16134E-01   768   0.222E-01-0.260E-04
CGA:   5    -0.663012929259E+03   -0.40725E-02   -0.40725E-02   768   0.811E-02 0.642E-05
CGA:   6    -0.663014280950E+03   -0.13517E-02   -0.13519E-02   768   0.330E-02 0.179E-04
CGA:   7    -0.663014816445E+03   -0.53549E-03   -0.53558E-03   768   0.174E-02 0.619E-05
CGA:   8    -0.663015143144E+03   -0.32670E-03   -0.32665E-03   768   0.787E-03 0.373E-05
CGA:   9    -0.663015311786E+03   -0.16864E-03   -0.16866E-03   768   0.391E-03-0.598E-06
CGA:  10    -0.663015382427E+03   -0.70642E-04   -0.70638E-04   768   0.222E-03 0.121E-05
  38 F= -.66956883E+03 E0= -.66955612E+03  d E =-.145069E-01  mag=     1.0018
       N       E                     dE             d eps       ncg     rms          ort
SDA:   1    -0.662937774923E+03    0.77537E-01    0.00000E+00   768   0.224E+00 0.000E+00
CGA:   2    -0.662994367986E+03   -0.56593E-01   -0.56615E-01   768   0.157E+00-0.262E-03
CGA:   3    -0.663012720483E+03   -0.18352E-01   -0.18408E-01   768   0.566E-01-0.528E-04
CGA:   4    -0.663022209167E+03   -0.94887E-02   -0.94882E-02   768   0.113E-01-0.376E-04
CGA:   5    -0.663024422481E+03   -0.22133E-02   -0.22132E-02   768   0.423E-02 0.965E-05
CGA:   6    -0.663025117327E+03   -0.69485E-03   -0.69494E-03   768   0.158E-02 0.637E-05
CGA:   7    -0.663025374590E+03   -0.25726E-03   -0.25727E-03   768   0.886E-03 0.361E-06
CGA:   8    -0.663025536586E+03   -0.16200E-03   -0.16200E-03   768   0.380E-03-0.106E-06
CGA:   9    -0.663025620464E+03   -0.83878E-04   -0.83884E-04   768   0.200E-03-0.160E-06
  39 F= -.66957934E+03 E0= -.66956687E+03  d E =-.105157E-01  mag=     1.0024
       N       E                     dE             d eps       ncg     rms          ort
SDA:   1    -0.662248227289E+03    0.77731E+00    0.00000E+00   768   0.201E+01 0.000E+00
CGA:   2    -0.662761533920E+03   -0.51331E+00   -0.51418E+00   768   0.138E+01-0.102E-01
CGA:   3    -0.662922473752E+03   -0.16094E+00   -0.16269E+00   768   0.514E+00-0.102E-02
CGA:   4    -0.663006268882E+03   -0.83795E-01   -0.83789E-01   768   0.101E+00-0.160E-03
CGA:   5    -0.663026456523E+03   -0.20188E-01   -0.20189E-01   768   0.381E-01-0.280E-04
CGA:   6    -0.663032520496E+03   -0.60640E-02   -0.60652E-02   768   0.143E-01 0.434E-04
CGA:   7    -0.663034878971E+03   -0.23585E-02   -0.23587E-02   768   0.760E-02 0.535E-05
CGA:   8    -0.663036288105E+03   -0.14091E-02   -0.14091E-02   768   0.333E-02 0.449E-05
CGA:   9    -0.663037007822E+03   -0.71972E-03   -0.71966E-03   768   0.171E-02 0.683E-06
CGA:  10    -0.663037331712E+03   -0.32389E-03   -0.32385E-03   768   0.100E-02 0.518E-05
CGA:  11    -0.663037495050E+03   -0.16334E-03   -0.16336E-03   768   0.351E-03 0.118E-05
CGA:  12    -0.663037571984E+03   -0.76934E-04   -0.76893E-04   768   0.165E-03 0.112E-05
  40 F= -.66959208E+03 E0= -.66958019E+03  d E =-.232512E-01  mag=     1.0060
       N       E                     dE             d eps       ncg     rms          ort
SDA:   1    -0.662867775426E+03    0.16972E+00    0.00000E+00   768   0.458E+00 0.000E+00
CGA:   2    -0.662992148319E+03   -0.12437E+00   -0.12434E+00   768   0.228E+00 0.278E-03
CGA:   3    -0.663025637051E+03   -0.33489E-01   -0.33481E-01   768   0.108E+00-0.103E-03
CGA:   4    -0.663040968410E+03   -0.15331E-01   -0.15333E-01   768   0.253E-01-0.249E-04
CGA:   5    -0.663045349380E+03   -0.43810E-02   -0.43809E-02   768   0.934E-02-0.180E-06
CGA:   6    -0.663046866316E+03   -0.15169E-02   -0.15171E-02   768   0.334E-02 0.487E-05
CGA:   7    -0.663047453824E+03   -0.58751E-03   -0.58750E-03   768   0.176E-02-0.102E-05
CGA:   8    -0.663047780235E+03   -0.32641E-03   -0.32640E-03   768   0.851E-03 0.151E-05
CGA:   9    -0.663047949664E+03   -0.16943E-03   -0.16942E-03   768   0.418E-03 0.626E-06
CGA:  10    -0.663048030738E+03   -0.81074E-04   -0.81048E-04   768   0.219E-03 0.212E-05
  41 F= -.66960273E+03 E0= -.66959108E+03  d E =-.106550E-01  mag=     1.0115
       N       E                     dE             d eps       ncg     rms          ort
SDA:   1    -0.662736232124E+03    0.31172E+00    0.00000E+00   768   0.802E+00 0.000E+00
CGA:   2    -0.662955109126E+03   -0.21888E+00   -0.21880E+00   768   0.393E+00 0.668E-03
CGA:   3    -0.663013780822E+03   -0.58672E-01   -0.58651E-01   768   0.187E+00-0.265E-03
CGA:   4    -0.663040223446E+03   -0.26443E-01   -0.26448E-01   768   0.437E-01-0.437E-04
CGA:   5    -0.663047761950E+03   -0.75385E-02   -0.75381E-02   768   0.164E-01-0.137E-04
CGA:   6    -0.663050455979E+03   -0.26940E-02   -0.26943E-02   768   0.582E-02 0.908E-05
CGA:   7    -0.663051485983E+03   -0.10300E-02   -0.10300E-02   768   0.309E-02-0.180E-05
CGA:   8    -0.663052057526E+03   -0.57154E-03   -0.57153E-03   768   0.148E-02 0.263E-05
CGA:   9    -0.663052352952E+03   -0.29543E-03   -0.29541E-03   768   0.728E-03 0.875E-06
CGA:  10    -0.663052494765E+03   -0.14181E-03   -0.14178E-03   768   0.376E-03 0.284E-05
CGA:  11    -0.663052558380E+03   -0.63615E-04   -0.63621E-04   768   0.150E-03 0.439E-06
  42 F= -.66960749E+03 E0= -.66959613E+03  d E =-.154069E-01  mag=     1.0198
       N       E                     dE             d eps       ncg     rms          ort
SDA:   1    -0.662808098876E+03    0.24440E+00    0.00000E+00   768   0.723E+00 0.000E+00
CGA:   2    -0.662951257536E+03   -0.14316E+00   -0.14315E+00   768   0.381E+00 0.713E-04
CGA:   3    -0.663014211932E+03   -0.62954E-01   -0.62951E-01   768   0.186E+00-0.143E-03
CGA:   4    -0.663043892609E+03   -0.29681E-01   -0.29678E-01   768   0.551E-01-0.620E-04
CGA:   5    -0.663053919258E+03   -0.10027E-01   -0.10027E-01   768   0.200E-01 0.136E-04
CGA:   6    -0.663057826260E+03   -0.39070E-02   -0.39075E-02   768   0.831E-02-0.204E-04
CGA:   7    -0.663059530186E+03   -0.17039E-02   -0.17035E-02   768   0.472E-02 0.113E-04
CGA:   8    -0.663060291844E+03   -0.76166E-03   -0.76150E-03   768   0.246E-02-0.225E-05
CGA:   9    -0.663060712092E+03   -0.42025E-03   -0.42030E-03   768   0.786E-03 0.330E-05
CGA:  10    -0.663060879563E+03   -0.16747E-03   -0.16750E-03   768   0.270E-03-0.699E-06
CGA:  11    -0.663060929613E+03   -0.50050E-04   -0.50048E-04   768   0.143E-03 0.598E-06
  43 F= -.66961574E+03 E0= -.66960424E+03  d E =-.825698E-02  mag=     1.0189
       N       E                     dE             d eps       ncg     rms          ort
SDA:   1    -0.662950797528E+03    0.11008E+00    0.00000E+00   768   0.320E+00 0.000E+00
CGA:   2    -0.663014029295E+03   -0.63232E-01   -0.63230E-01   768   0.169E+00 0.398E-04
CGA:   3    -0.663041836745E+03   -0.27807E-01   -0.27805E-01   768   0.829E-01-0.842E-04
CGA:   4    -0.663055049979E+03   -0.13213E-01   -0.13213E-01   768   0.243E-01-0.438E-05
CGA:   5    -0.663059490309E+03   -0.44403E-02   -0.44403E-02   768   0.869E-02 0.127E-05
CGA:   6    -0.663061228454E+03   -0.17381E-02   -0.17382E-02   768   0.349E-02-0.322E-05
CGA:   7    -0.663062020850E+03   -0.79240E-03   -0.79221E-03   768   0.166E-02 0.342E-05
CGA:   8    -0.663062366145E+03   -0.34529E-03   -0.34532E-03   768   0.914E-03-0.317E-06
CGA:   9    -0.663062497405E+03   -0.13126E-03   -0.13132E-03   768   0.386E-03 0.126E-05
CGA:  10    -0.663062566392E+03   -0.68987E-04   -0.68985E-04   768   0.114E-03-0.440E-06
  44 F= -.66961730E+03 E0= -.66960571E+03  d E =-.981425E-02  mag=     1.0183
       N       E                     dE             d eps       ncg     rms          ort
SDA:   1    -0.662872502832E+03    0.18999E+00    0.00000E+00   768   0.563E+00 0.000E+00
CGA:   2    -0.662982635075E+03   -0.11013E+00   -0.11014E+00   768   0.310E+00-0.273E-03
CGA:   3    -0.663031969758E+03   -0.49335E-01   -0.49361E-01   768   0.147E+00 0.408E-03
CGA:   4    -0.663055521032E+03   -0.23551E-01   -0.23545E-01   768   0.450E-01-0.606E-04
CGA:   5    -0.663063451021E+03   -0.79300E-02   -0.79307E-02   768   0.177E-01 0.503E-04
CGA:   6    -0.663066556851E+03   -0.31058E-02   -0.31055E-02   768   0.848E-02-0.262E-04
CGA:   7    -0.663067993906E+03   -0.14371E-02   -0.14372E-02   768   0.444E-02 0.250E-05
CGA:   8    -0.663068829618E+03   -0.83571E-03   -0.83577E-03   768   0.185E-02-0.508E-05
CGA:   9    -0.663069196772E+03   -0.36715E-03   -0.36708E-03   768   0.735E-03 0.339E-05
CGA:  10    -0.663069320701E+03   -0.12393E-03   -0.12393E-03   768   0.326E-03 0.130E-07
CGA:  11    -0.663069371959E+03   -0.51259E-04   -0.51288E-04   768   0.108E-03 0.117E-05
  45 F= -.66962377E+03 E0= -.66961205E+03  d E =-.647429E-02  mag=     1.0207
       N       E                     dE             d eps       ncg     rms          ort
SDA:   1    -0.662996047250E+03    0.73273E-01    0.00000E+00   768   0.213E+00 0.000E+00
CGA:   2    -0.663037844936E+03   -0.41798E-01   -0.41799E-01   768   0.117E+00-0.648E-04
CGA:   3    -0.663056545796E+03   -0.18701E-01   -0.18705E-01   768   0.556E-01 0.760E-04
CGA:   4    -0.663065446049E+03   -0.89003E-02   -0.88993E-02   768   0.169E-01-0.323E-05
CGA:   5    -0.663068454698E+03   -0.30086E-02   -0.30087E-02   768   0.650E-02 0.114E-04
CGA:   6    -0.663069624801E+03   -0.11701E-02   -0.11701E-02   768   0.312E-02-0.875E-05
CGA:   7    -0.663070157043E+03   -0.53224E-03   -0.53225E-03   768   0.171E-02-0.456E-06
CGA:   8    -0.663070467073E+03   -0.31003E-03   -0.31003E-03   768   0.707E-03-0.135E-05
CGA:   9    -0.663070609197E+03   -0.14212E-03   -0.14208E-03   768   0.266E-03 0.167E-05
CGA:  10    -0.663070656839E+03   -0.47642E-04   -0.47642E-04   768   0.123E-03 0.112E-06
  46 F= -.66962486E+03 E0= -.66961306E+03  d E =-.755784E-02  mag=     1.0223
       N       E                     dE             d eps       ncg     rms          ort
SDA:   1    -0.662916218029E+03    0.15439E+00    0.00000E+00   768   0.443E+00 0.000E+00
CGA:   2    -0.663010429920E+03   -0.94212E-01   -0.94227E-01   768   0.257E+00-0.257E-03
CGA:   3    -0.663049826888E+03   -0.39397E-01   -0.39423E-01   768   0.114E+00 0.389E-03
CGA:   4    -0.663067522195E+03   -0.17695E-01   -0.17690E-01   768   0.334E-01-0.319E-04
CGA:   5    -0.663073331604E+03   -0.58094E-02   -0.58097E-02   768   0.129E-01 0.320E-04
CGA:   6    -0.663075528012E+03   -0.21964E-02   -0.21962E-02   768   0.590E-02-0.160E-04
CGA:   7    -0.663076571268E+03   -0.10433E-02   -0.10433E-02   768   0.311E-02 0.186E-05
CGA:   8    -0.663077156179E+03   -0.58491E-03   -0.58495E-03   768   0.134E-02-0.214E-05
CGA:   9    -0.663077423182E+03   -0.26700E-03   -0.26694E-03   768   0.581E-03 0.274E-05
CGA:  10    -0.663077520480E+03   -0.97297E-04   -0.97290E-04   768   0.249E-03-0.550E-06
  47 F= -.66963154E+03 E0= -.66961980E+03  d E =-.668068E-02  mag=     1.0246
       N       E                     dE             d eps       ncg     rms          ort
SDA:   1    -0.661678364950E+03    0.13991E+01    0.00000E+00   768   0.386E+01 0.000E+00
CGA:   2    -0.662503986138E+03   -0.82562E+00   -0.82590E+00   768   0.223E+01-0.506E-02
CGA:   3    -0.662846303073E+03   -0.34232E+00   -0.34284E+00   768   0.975E+00 0.806E-02
CGA:   4    -0.662999219560E+03   -0.15292E+00   -0.15280E+00   768   0.289E+00-0.158E-02
CGA:   5    -0.663049822138E+03   -0.50603E-01   -0.50606E-01   768   0.110E+00 0.690E-03
CGA:   6    -0.663068693635E+03   -0.18871E-01   -0.18868E-01   768   0.508E-01-0.335E-03
CGA:   7    -0.663077657532E+03   -0.89639E-02   -0.89639E-02   768   0.267E-01 0.782E-04
CGA:   8    -0.663082659945E+03   -0.50024E-02   -0.50035E-02   768   0.115E-01-0.646E-04
CGA:   9    -0.663084968720E+03   -0.23088E-02   -0.23080E-02   768   0.481E-02 0.239E-04
CGA:  10    -0.663085788313E+03   -0.81959E-03   -0.81953E-03   768   0.209E-02-0.480E-05
CGA:  11    -0.663086128387E+03   -0.34007E-03   -0.34010E-03   768   0.718E-03 0.151E-05
CGA:  12    -0.663086270647E+03   -0.14226E-03   -0.14228E-03   768   0.302E-03-0.101E-05
CGA:  13    -0.663086324330E+03   -0.53683E-04   -0.53683E-04   768   0.171E-03 0.104E-05
  48 F= -.66963981E+03 E0= -.66962833E+03  d E =-.149539E-01  mag=     1.0307
       N       E                     dE             d eps       ncg     rms          ort
SDA:   1    -0.662789307760E+03    0.29696E+00    0.00000E+00   768   0.783E+00 0.000E+00
CGA:   2    -0.662988290761E+03   -0.19898E+00   -0.19905E+00   768   0.471E+00-0.627E-03
CGA:   3    -0.663051099453E+03   -0.62809E-01   -0.62920E-01   768   0.184E+00 0.592E-03
CGA:   4    -0.663079781743E+03   -0.28682E-01   -0.28677E-01   768   0.497E-01 0.122E-04
CGA:   5    -0.663088355275E+03   -0.85735E-02   -0.85741E-02   768   0.164E-01 0.390E-04
CGA:   6    -0.663091108305E+03   -0.27530E-02   -0.27527E-02   768   0.703E-02-0.210E-04
CGA:   7    -0.663092380836E+03   -0.12725E-02   -0.12725E-02   768   0.361E-02-0.304E-05
CGA:   8    -0.663093039204E+03   -0.65837E-03   -0.65839E-03   768   0.171E-02-0.365E-05
CGA:   9    -0.663093394804E+03   -0.35560E-03   -0.35549E-03   768   0.800E-03 0.366E-05
CGA:  10    -0.663093538565E+03   -0.14376E-03   -0.14376E-03   768   0.379E-03 0.467E-07
CGA:  11    -0.663093602917E+03   -0.64352E-04   -0.64363E-04   768   0.144E-03 0.106E-05
  49 F= -.66964700E+03 E0= -.66963566E+03  d E =-.719001E-02  mag=     1.0356
       N       E                     dE             d eps       ncg     rms          ort
SDA:   1    -0.662865105979E+03    0.22843E+00    0.00000E+00   768   0.594E+00 0.000E+00
CGA:   2    -0.663015937465E+03   -0.15083E+00   -0.15088E+00   768   0.355E+00-0.423E-03
CGA:   3    -0.663063448775E+03   -0.47511E-01   -0.47585E-01   768   0.140E+00 0.375E-03
CGA:   4    -0.663085153184E+03   -0.21704E-01   -0.21701E-01   768   0.377E-01 0.211E-04
CGA:   5    -0.663091643956E+03   -0.64908E-02   -0.64912E-02   768   0.122E-01 0.257E-04
CGA:   6    -0.663093752689E+03   -0.21087E-02   -0.21086E-02   768   0.537E-02-0.161E-04
CGA:   7    -0.663094705205E+03   -0.95252E-03   -0.95251E-03   768   0.275E-02-0.320E-05
CGA:   8    -0.663095207994E+03   -0.50279E-03   -0.50280E-03   768   0.129E-02-0.266E-05
CGA:   9    -0.663095475953E+03   -0.26796E-03   -0.26787E-03   768   0.594E-03 0.296E-05
CGA:  10    -0.663095583981E+03   -0.10803E-03   -0.10803E-03   768   0.285E-03 0.803E-07
CGA:  11    -0.663095631600E+03   -0.47618E-04   -0.47631E-04   768   0.107E-03 0.898E-06
  50 F= -.66964894E+03 E0= -.66963772E+03  d E =-.913114E-02  mag=     1.0400
       N       E                     dE             d eps       ncg     rms          ort
SDA:   1    -0.662943140283E+03    0.15244E+00    0.00000E+00   768   0.396E+00 0.000E+00
CGA:   2    -0.663056042371E+03   -0.11290E+00   -0.11292E+00   768   0.191E+00-0.168E-03
CGA:   3    -0.663082385054E+03   -0.26343E-01   -0.26340E-01   768   0.875E-01 0.221E-04
CGA:   4    -0.663095027168E+03   -0.12642E-01   -0.12644E-01   768   0.200E-01 0.451E-04
CGA:   5    -0.663098559489E+03   -0.35323E-02   -0.35324E-02   768   0.536E-02 0.310E-05
CGA:   6    -0.663099540442E+03   -0.98095E-03   -0.98096E-03   768   0.237E-02-0.674E-05
CGA:   7    -0.663099934205E+03   -0.39376E-03   -0.39368E-03   768   0.110E-02-0.455E-05
CGA:   8    -0.663100127198E+03   -0.19299E-03   -0.19298E-03   768   0.531E-03-0.230E-05
CGA:   9    -0.663100242456E+03   -0.11526E-03   -0.11521E-03   768   0.247E-03 0.127E-05
CGA:  10    -0.663100292488E+03   -0.50032E-04   -0.50030E-04   768   0.144E-03 0.133E-06
  51 F= -.66965383E+03 E0= -.66964251E+03  d E =-.488891E-02  mag=     1.0412
       N       E                     dE             d eps       ncg     rms          ort
SDA:   1    -0.662962589935E+03    0.13765E+00    0.00000E+00   768   0.351E+00 0.000E+00
CGA:   2    -0.663061574174E+03   -0.98984E-01   -0.99000E-01   768   0.179E+00-0.122E-03
CGA:   3    -0.663085056381E+03   -0.23482E-01   -0.23473E-01   768   0.780E-01 0.164E-04
CGA:   4    -0.663096843917E+03   -0.11788E-01   -0.11789E-01   768   0.175E-01 0.424E-04
CGA:   5    -0.663099961217E+03   -0.31173E-02   -0.31173E-02   768   0.489E-02 0.232E-05
CGA:   6    -0.663100848435E+03   -0.88722E-03   -0.88721E-03   768   0.213E-02-0.588E-05
CGA:   7    -0.663101203411E+03   -0.35498E-03   -0.35490E-03   768   0.101E-02-0.420E-05
CGA:   8    -0.663101379448E+03   -0.17604E-03   -0.17602E-03   768   0.475E-03-0.220E-05
CGA:   9    -0.663101485107E+03   -0.10566E-03   -0.10561E-03   768   0.225E-03 0.121E-05
CGA:  10    -0.663101529945E+03   -0.44838E-04   -0.44837E-04   768   0.132E-03 0.866E-07
  52 F= -.66965527E+03 E0= -.66964386E+03  d E =-.633003E-02  mag=     1.0424
       N       E                     dE             d eps       ncg     rms          ort
SDA:   1    -0.662928019508E+03    0.17347E+00    0.00000E+00   768   0.451E+00 0.000E+00
CGA:   2    -0.663054172712E+03   -0.12615E+00   -0.12613E+00   768   0.214E+00 0.225E-03
CGA:   3    -0.663085475436E+03   -0.31303E-01   -0.31324E-01   768   0.970E-01 0.132E-03
CGA:   4    -0.663099062676E+03   -0.13587E-01   -0.13588E-01   768   0.242E-01 0.336E-04
CGA:   5    -0.663103000147E+03   -0.39375E-02   -0.39377E-02   768   0.697E-02 0.328E-05
CGA:   6    -0.663104223744E+03   -0.12236E-02   -0.12235E-02   768   0.285E-02-0.852E-05
CGA:   7    -0.663104725281E+03   -0.50154E-03   -0.50149E-03   768   0.136E-02-0.641E-05
CGA:   8    -0.663104961355E+03   -0.23607E-03   -0.23604E-03   768   0.645E-03-0.428E-05
CGA:   9    -0.663105094906E+03   -0.13355E-03   -0.13355E-03   768   0.308E-03-0.235E-07
CGA:  10    -0.663105155449E+03   -0.60543E-04   -0.60544E-04   768   0.160E-03-0.469E-07
  53 F= -.66965912E+03 E0= -.66964759E+03  d E =-.384878E-02  mag=     1.0434
       N       E                     dE             d eps       ncg     rms          ort
SDA:   1    -0.663064655580E+03    0.40439E-01    0.00000E+00   768   0.104E+00 0.000E+00
CGA:   2    -0.663093668725E+03   -0.29013E-01   -0.29011E-01   768   0.504E-01 0.169E-04
CGA:   3    -0.663100870596E+03   -0.72019E-02   -0.72037E-02   768   0.228E-01 0.425E-05
CGA:   4    -0.663104112216E+03   -0.32416E-02   -0.32421E-02   768   0.555E-02 0.101E-04
CGA:   5    -0.663105014092E+03   -0.90188E-03   -0.90188E-03   768   0.164E-02-0.355E-06
CGA:   6    -0.663105307370E+03   -0.29328E-03   -0.29327E-03   768   0.669E-03-0.319E-05
CGA:   7    -0.663105425111E+03   -0.11774E-03   -0.11772E-03   768   0.336E-03-0.319E-05
CGA:   8    -0.663105482733E+03   -0.57622E-04   -0.57602E-04   768   0.155E-03-0.207E-05
  54 F= -.66965955E+03 E0= -.66964797E+03  d E =-.428136E-02  mag=     1.0442
       N       E                     dE             d eps       ncg     rms          ort
SDA:   1    -0.663001093721E+03    0.10433E+00    0.00000E+00   768   0.276E+00 0.000E+00
CGA:   2    -0.663077761691E+03   -0.76668E-01   -0.76676E-01   768   0.120E+00-0.887E-04
CGA:   3    -0.663097874022E+03   -0.20112E-01   -0.20114E-01   768   0.512E-01 0.315E-04
CGA:   4    -0.663105125839E+03   -0.72518E-02   -0.72501E-02   768   0.142E-01 0.356E-06
CGA:   5    -0.663107495336E+03   -0.23695E-02   -0.23696E-02   768   0.401E-02 0.386E-05
CGA:   6    -0.663108212888E+03   -0.71755E-03   -0.71753E-03   768   0.195E-02-0.307E-05
CGA:   7    -0.663108531982E+03   -0.31909E-03   -0.31904E-03   768   0.892E-03-0.254E-05
CGA:   8    -0.663108693169E+03   -0.16119E-03   -0.16118E-03   768   0.423E-03-0.247E-05
CGA:   9    -0.663108785851E+03   -0.92682E-04   -0.92687E-04   768   0.191E-03-0.162E-06
  55 F= -.66966319E+03 E0= -.66965160E+03  d E =-.363571E-02  mag=     1.0421
       N       E                     dE             d eps       ncg     rms          ort
SDA:   1    -0.662797076850E+03    0.31162E+00    0.00000E+00   768   0.803E+00 0.000E+00
CGA:   2    -0.663020489723E+03   -0.22341E+00   -0.22344E+00   768   0.346E+00-0.338E-03
CGA:   3    -0.663079282860E+03   -0.58793E-01   -0.58793E-01   768   0.144E+00-0.299E-04
CGA:   4    -0.663100358023E+03   -0.21075E-01   -0.21078E-01   768   0.389E-01 0.141E-04
CGA:   5    -0.663106899587E+03   -0.65416E-02   -0.65413E-02   768   0.106E-01-0.531E-05
CGA:   6    -0.663109014827E+03   -0.21152E-02   -0.21153E-02   768   0.425E-02-0.527E-05
CGA:   7    -0.663109922646E+03   -0.90782E-03   -0.90795E-03   768   0.162E-02-0.472E-05
CGA:   8    -0.663110341200E+03   -0.41855E-03   -0.41873E-03   768   0.752E-03-0.245E-05
CGA:   9    -0.663110524372E+03   -0.18317E-03   -0.18315E-03   768   0.338E-03 0.424E-06
CGA:  10    -0.663110587865E+03   -0.63493E-04   -0.63490E-04   768   0.212E-03-0.419E-06
  56 F= -.66966555E+03 E0= -.66965394E+03  d E =-.599526E-02  mag=     1.0382
       N       E                     dE             d eps       ncg     rms          ort
SDA:   1    -0.662938521376E+03    0.17200E+00    0.00000E+00   768   0.466E+00 0.000E+00
CGA:   2    -0.663052966179E+03   -0.11444E+00   -0.11443E+00   768   0.244E+00 0.116E-03
CGA:   3    -0.663090856742E+03   -0.37891E-01   -0.37883E-01   768   0.101E+00-0.105E-03
CGA:   4    -0.663106286897E+03   -0.15430E-01   -0.15431E-01   768   0.288E-01-0.893E-05
CGA:   5    -0.663111202160E+03   -0.49153E-02   -0.49150E-02   768   0.838E-02-0.774E-05
CGA:   6    -0.663112917004E+03   -0.17148E-02   -0.17149E-02   768   0.355E-02-0.482E-05
CGA:   7    -0.663113713106E+03   -0.79610E-03   -0.79628E-03   768   0.148E-02-0.459E-05
CGA:   8    -0.663114070612E+03   -0.35751E-03   -0.35756E-03   768   0.662E-03-0.124E-05
CGA:   9    -0.663114207679E+03   -0.13707E-03   -0.13708E-03   768   0.363E-03-0.571E-06
CGA:  10    -0.663114257330E+03   -0.49651E-04   -0.49695E-04   768   0.144E-03 0.765E-06
  57 F= -.66966962E+03 E0= -.66965819E+03  d E =-.407014E-02  mag=     1.0357
       N       E                     dE             d eps       ncg     rms          ort
SDA:   1    -0.662060876085E+03    0.10533E+01    0.00000E+00   768   0.281E+01 0.000E+00
CGA:   2    -0.662748605301E+03   -0.68773E+00   -0.68751E+00   768   0.147E+01 0.247E-02
CGA:   3    -0.662977088288E+03   -0.22848E+00   -0.22829E+00   768   0.605E+00-0.205E-02
CGA:   4    -0.663069458077E+03   -0.92370E-01   -0.92418E-01   768   0.172E+00-0.238E-04
CGA:   5    -0.663099011053E+03   -0.29553E-01   -0.29545E-01   768   0.513E-01-0.219E-03
CGA:   6    -0.663109164725E+03   -0.10154E-01   -0.10153E-01   768   0.222E-01 0.407E-05
CGA:   7    -0.663113742384E+03   -0.45777E-02   -0.45790E-02   768   0.112E-01-0.515E-04
CGA:   8    -0.663115625018E+03   -0.18826E-02   -0.18830E-02   768   0.650E-02 0.450E-05
CGA:   9    -0.663116723161E+03   -0.10981E-02   -0.10978E-02   768   0.233E-02-0.739E-05
CGA:  10    -0.663117229879E+03   -0.50672E-03   -0.50660E-03   768   0.820E-03 0.336E-05
CGA:  11    -0.663117389421E+03   -0.15954E-03   -0.15954E-03   768   0.440E-03-0.454E-06
CGA:  12    -0.663117452142E+03   -0.62721E-04   -0.62774E-04   768   0.156E-03 0.117E-05
  58 F= -.66967379E+03 E0= -.66966278E+03  d E =-.823566E-02  mag=     1.0296
       N       E                     dE             d eps       ncg     rms          ort
SDA:   1    -0.662753256699E+03    0.36413E+00    0.00000E+00   768   0.102E+01 0.000E+00
CGA:   2    -0.662978571659E+03   -0.22531E+00   -0.22528E+00   768   0.547E+00 0.606E-03
CGA:   3    -0.663064119097E+03   -0.85547E-01   -0.85462E-01   768   0.241E+00-0.102E-02
CGA:   4    -0.663101765897E+03   -0.37647E-01   -0.37663E-01   768   0.707E-01 0.171E-04
CGA:   5    -0.663114072274E+03   -0.12306E-01   -0.12304E-01   768   0.234E-01-0.988E-04
CGA:   6    -0.663118367576E+03   -0.42953E-02   -0.42954E-02   768   0.115E-01 0.121E-04
CGA:   7    -0.663120415657E+03   -0.20481E-02   -0.20478E-02   768   0.630E-02-0.177E-04
CGA:   8    -0.663121465928E+03   -0.10503E-02   -0.10504E-02   768   0.270E-02 0.228E-05
CGA:   9    -0.663122025225E+03   -0.55930E-03   -0.55941E-03   768   0.103E-02-0.365E-05
CGA:  10    -0.663122223444E+03   -0.19822E-03   -0.19821E-03   768   0.485E-03 0.167E-05
CGA:  11    -0.663122296638E+03   -0.73194E-04   -0.73180E-04   768   0.187E-03-0.303E-06
  59 F= -.66967914E+03 E0= -.66966833E+03  d E =-.535399E-02  mag=     1.0234
       N       E                     dE             d eps       ncg     rms          ort
SDA:   1    -0.662621243294E+03    0.50098E+00    0.00000E+00   768   0.138E+01 0.000E+00
CGA:   2    -0.662928629108E+03   -0.30739E+00   -0.30732E+00   768   0.743E+00 0.888E-03
CGA:   3    -0.663044937739E+03   -0.11631E+00   -0.11620E+00   768   0.327E+00-0.154E-02
CGA:   4    -0.663096054724E+03   -0.51117E-01   -0.51138E-01   768   0.964E-01 0.419E-04
CGA:   5    -0.663112818455E+03   -0.16764E-01   -0.16761E-01   768   0.314E-01-0.151E-03
CGA:   6    -0.663118771682E+03   -0.59532E-02   -0.59529E-02   768   0.151E-01 0.213E-04
CGA:   7    -0.663121527036E+03   -0.27554E-02   -0.27552E-02   768   0.855E-02-0.279E-04
CGA:   8    -0.663122896949E+03   -0.13699E-02   -0.13701E-02   768   0.372E-02 0.321E-05
CGA:   9    -0.663123654762E+03   -0.75781E-03   -0.75797E-03   768   0.137E-02-0.522E-05
CGA:  10    -0.663123931386E+03   -0.27662E-03   -0.27658E-03   768   0.613E-03 0.223E-05
CGA:  11    -0.663124024001E+03   -0.92615E-04   -0.92599E-04   768   0.263E-03-0.389E-06
  60 F= -.66968146E+03 E0= -.66967087E+03  d E =-.767497E-02  mag=     1.0163
       N       E                     dE             d eps       ncg     rms          ort
SDA:   1    -0.662559398438E+03    0.56453E+00    0.00000E+00   768   0.154E+01 0.000E+00
CGA:   2    -0.662926137350E+03   -0.36674E+00   -0.36659E+00   768   0.784E+00 0.184E-02
CGA:   3    -0.663048615664E+03   -0.12248E+00   -0.12238E+00   768   0.351E+00-0.145E-02
CGA:   4    -0.663101894443E+03   -0.53279E-01   -0.53306E-01   768   0.960E-01 0.782E-04
CGA:   5    -0.663118229859E+03   -0.16335E-01   -0.16332E-01   768   0.307E-01-0.129E-03
CGA:   6    -0.663123923154E+03   -0.56933E-02   -0.56932E-02   768   0.148E-01 0.152E-04
CGA:   7    -0.663126489201E+03   -0.25660E-02   -0.25657E-02   768   0.799E-02-0.220E-04
CGA:   8    -0.663127830443E+03   -0.13412E-02   -0.13414E-02   768   0.347E-02 0.294E-05
CGA:   9    -0.663128550624E+03   -0.72018E-03   -0.72033E-03   768   0.138E-02-0.410E-05
CGA:  10    -0.663128823757E+03   -0.27313E-03   -0.27308E-03   768   0.675E-03 0.317E-05
CGA:  11    -0.663128924285E+03   -0.10053E-03   -0.10053E-03   768   0.261E-03 0.158E-06
CGA:  12    -0.663128975264E+03   -0.50980E-04   -0.50962E-04   768   0.949E-04 0.128E-05
  61 F= -.66968684E+03 E0= -.66967634E+03  d E =-.538163E-02  mag=     1.0138
       N       E                     dE             d eps       ncg     rms          ort
SDA:   1    -0.663072948332E+03    0.55976E-01    0.00000E+00   768   0.152E+00 0.000E+00
CGA:   2    -0.663109070707E+03   -0.36122E-01   -0.36117E-01   768   0.787E-01 0.578E-04
CGA:   3    -0.663121123453E+03   -0.12053E-01   -0.12048E-01   768   0.351E-01-0.603E-04
CGA:   4    -0.663126482364E+03   -0.53589E-02   -0.53597E-02   768   0.963E-02-0.164E-05
CGA:   5    -0.663128106656E+03   -0.16243E-02   -0.16242E-02   768   0.316E-02-0.175E-05
CGA:   6    -0.663128656160E+03   -0.54950E-03   -0.54950E-03   768   0.158E-02-0.978E-06
CGA:   7    -0.663128926190E+03   -0.27003E-03   -0.27000E-03   768   0.789E-03-0.216E-05
CGA:   8    -0.663129070254E+03   -0.14406E-03   -0.14406E-03   768   0.351E-03-0.281E-06
CGA:   9    -0.663129143139E+03   -0.72885E-04   -0.72896E-04   768   0.158E-03-0.369E-06
  62 F= -.66968713E+03 E0= -.66967666E+03  d E =-.567348E-02  mag=     1.0131
       N       E                     dE             d eps       ncg     rms          ort
SDA:   1    -0.662924655363E+03    0.20441E+00    0.00000E+00   768   0.556E+00 0.000E+00
CGA:   2    -0.663065601549E+03   -0.14095E+00   -0.14094E+00   768   0.258E+00-0.921E-05
CGA:   3    -0.663106504925E+03   -0.40903E-01   -0.40882E-01   768   0.122E+00-0.340E-03
CGA:   4    -0.663124060282E+03   -0.17555E-01   -0.17562E-01   768   0.317E-01-0.573E-05
CGA:   5    -0.663129302636E+03   -0.52424E-02   -0.52417E-02   768   0.105E-01-0.122E-04
CGA:   6    -0.663131028846E+03   -0.17262E-02   -0.17263E-02   768   0.480E-02 0.234E-05
CGA:   7    -0.663131875331E+03   -0.84649E-03   -0.84646E-03   768   0.220E-02-0.360E-05
CGA:   8    -0.663132280745E+03   -0.40541E-03   -0.40541E-03   768   0.104E-02 0.284E-06
CGA:   9    -0.663132490265E+03   -0.20952E-03   -0.20954E-03   768   0.521E-03-0.771E-06
CGA:  10    -0.663132581367E+03   -0.91102E-04   -0.91111E-04   768   0.241E-03 0.142E-05
  63 F= -.66969095E+03 E0= -.66968047E+03  d E =-.381492E-02  mag=     1.0112
       N       E                     dE             d eps       ncg     rms          ort
SDA:   1    -0.662779981425E+03    0.35251E+00    0.00000E+00   768   0.948E+00 0.000E+00
CGA:   2    -0.663019228140E+03   -0.23925E+00   -0.23923E+00   768   0.450E+00 0.648E-04
CGA:   3    -0.663088584927E+03   -0.69357E-01   -0.69303E-01   768   0.213E+00-0.736E-03
CGA:   4    -0.663119282727E+03   -0.30698E-01   -0.30708E-01   768   0.560E-01-0.305E-04
CGA:   5    -0.663128366850E+03   -0.90841E-02   -0.90824E-02   768   0.182E-01-0.350E-04
CGA:   6    -0.663131397446E+03   -0.30306E-02   -0.30307E-02   768   0.810E-02 0.516E-05
CGA:   7    -0.663132839961E+03   -0.14425E-02   -0.14425E-02   768   0.382E-02-0.648E-05
CGA:   8    -0.663133526106E+03   -0.68614E-03   -0.68614E-03   768   0.181E-02 0.783E-06
CGA:   9    -0.663133887451E+03   -0.36135E-03   -0.36138E-03   768   0.890E-03-0.127E-05
CGA:  10    -0.663134047405E+03   -0.15995E-03   -0.15996E-03   768   0.418E-03 0.202E-05
CGA:  11    -0.663134120377E+03   -0.72972E-04   -0.72973E-04   768   0.164E-03 0.139E-06
  64 F= -.66969284E+03 E0= -.66968233E+03  d E =-.570681E-02  mag=     1.0086
       N       E                     dE             d eps       ncg     rms          ort
SDA:   1    -0.663074658214E+03    0.59389E-01    0.00000E+00   768   0.162E+00 0.000E+00
CGA:   2    -0.663120265423E+03   -0.45607E-01   -0.45606E-01   768   0.579E-01 0.674E-05
CGA:   3    -0.663131698547E+03   -0.11433E-01   -0.11433E-01   768   0.256E-01-0.109E-04
CGA:   4    -0.663134934145E+03   -0.32356E-02   -0.32358E-02   768   0.753E-02-0.343E-05
CGA:   5    -0.663136044202E+03   -0.11101E-02   -0.11102E-02   768   0.194E-02 0.520E-05
CGA:   6    -0.663136392736E+03   -0.34853E-03   -0.34853E-03   768   0.860E-03-0.713E-06
CGA:   7    -0.663136537249E+03   -0.14451E-03   -0.14449E-03   768   0.351E-03-0.168E-05
CGA:   8    -0.663136601377E+03   -0.64129E-04   -0.64131E-04   768   0.187E-03-0.688E-06
  65 F= -.66969566E+03 E0= -.66968512E+03  d E =-.282264E-02  mag=     1.0093
       N       E                     dE             d eps       ncg     rms          ort
SDA:   1    -0.662797007310E+03    0.33953E+00    0.00000E+00   768   0.897E+00 0.000E+00
CGA:   2    -0.663046973716E+03   -0.24997E+00   -0.24994E+00   768   0.335E+00 0.156E-03
CGA:   3    -0.663107874165E+03   -0.60900E-01   -0.60902E-01   768   0.170E+00 0.134E-03
CGA:   4    -0.663128330814E+03   -0.20457E-01   -0.20447E-01   768   0.421E-01-0.364E-05
CGA:   5    -0.663135342395E+03   -0.70116E-02   -0.70115E-02   768   0.109E-01 0.345E-05
CGA:   6    -0.663137269908E+03   -0.19275E-02   -0.19275E-02   768   0.492E-02-0.907E-06
[...]
CGA:   4    -0.663135436769E+03   -0.37984E-01   -0.37973E-01   768   0.748E-01-0.680E-05
CGA:   5    -0.663146841899E+03   -0.11405E-01   -0.11408E-01   768   0.227E-01 0.391E-04
CGA:   6    -0.663150588652E+03   -0.37468E-02   -0.37461E-02   768   0.979E-02-0.270E-04
CGA:   7    -0.663152363979E+03   -0.17753E-02   -0.17753E-02   768   0.451E-02-0.369E-05
CGA:   8    -0.663153172563E+03   -0.80858E-03   -0.80860E-03   768   0.215E-02-0.817E-05
CGA:   9    -0.663153591187E+03   -0.41862E-03   -0.41858E-03   768   0.109E-02 0.215E-05
CGA:  10    -0.663153788789E+03   -0.19760E-03   -0.19760E-03   768   0.477E-03-0.777E-06
CGA:  11    -0.663153872801E+03   -0.84012E-04   -0.84015E-04   768   0.199E-03 0.996E-06
  74 F= -.66971724E+03 E0= -.66970616E+03  d E =-.558245E-02  mag=     1.0095
       N       E                     dE             d eps       ncg     rms          ort
SDA:   1    -0.663044850915E+03    0.10894E+00    0.00000E+00   768   0.306E+00 0.000E+00
CGA:   2    -0.663122213001E+03   -0.77362E-01   -0.77381E-01   768   0.138E+00-0.200E-03
CGA:   3    -0.663143398236E+03   -0.21185E-01   -0.21194E-01   768   0.609E-01 0.109E-03
CGA:   4    -0.663152199539E+03   -0.88013E-02   -0.87996E-02   768   0.176E-01 0.108E-04
CGA:   5    -0.663154883462E+03   -0.26839E-02   -0.26842E-02   768   0.511E-02 0.403E-05
CGA:   6    -0.663155722890E+03   -0.83943E-03   -0.83934E-03   768   0.228E-02-0.500E-05
CGA:   7    -0.663156124848E+03   -0.40196E-03   -0.40196E-03   768   0.992E-03-0.270E-05
CGA:   8    -0.663156303980E+03   -0.17913E-03   -0.17914E-03   768   0.471E-03-0.167E-05
CGA:   9    -0.663156397516E+03   -0.93535E-04   -0.93514E-04   768   0.253E-03 0.939E-06
  75 F= -.66971999E+03 E0= -.66970891E+03  d E =-.275207E-02  mag=     1.0081
       N       E                     dE             d eps       ncg     rms          ort
SDA:   1    -0.662672273917E+03    0.48403E+00    0.00000E+00   768   0.134E+01 0.000E+00
CGA:   2    -0.663008070113E+03   -0.33580E+00   -0.33597E+00   768   0.613E+00-0.177E-02
CGA:   3    -0.663100179553E+03   -0.92109E-01   -0.92203E-01   768   0.270E+00 0.106E-02
CGA:   4    -0.663139298402E+03   -0.39119E-01   -0.39102E-01   768   0.766E-01 0.156E-04
CGA:   5    -0.663151181202E+03   -0.11883E-01   -0.11885E-01   768   0.234E-01 0.428E-04
CGA:   6    -0.663154906576E+03   -0.37254E-02   -0.37246E-02   768   0.996E-02-0.210E-04
CGA:   7    -0.663156716690E+03   -0.18101E-02   -0.18101E-02   768   0.434E-02-0.284E-05
CGA:   8    -0.663157490768E+03   -0.77408E-03   -0.77409E-03   768   0.208E-02-0.521E-05
CGA:   9    -0.663157898775E+03   -0.40801E-03   -0.40794E-03   768   0.111E-02 0.290E-05
CGA:  10    -0.663158096974E+03   -0.19820E-03   -0.19820E-03   768   0.488E-03-0.742E-06
CGA:  11    -0.663158186980E+03   -0.90006E-04   -0.90002E-04   768   0.217E-03 0.652E-06
  76 F= -.66972225E+03 E0= -.66971115E+03  d E =-.500728E-02  mag=     1.0047
       N       E                     dE             d eps       ncg     rms          ort
SDA:   1    -0.663058766442E+03    0.99331E-01    0.00000E+00   768   0.277E+00 0.000E+00
CGA:   2    -0.663130980775E+03   -0.72214E-01   -0.72222E-01   768   0.121E+00-0.714E-04
CGA:   3    -0.663149127585E+03   -0.18147E-01   -0.18155E-01   768   0.558E-01 0.847E-04
CGA:   4    -0.663156974388E+03   -0.78468E-02   -0.78465E-02   768   0.152E-01 0.201E-04
CGA:   5    -0.663159286723E+03   -0.23123E-02   -0.23125E-02   768   0.421E-02 0.118E-05
CGA:   6    -0.663159999560E+03   -0.71284E-03   -0.71278E-03   768   0.184E-02-0.592E-05
CGA:   7    -0.663160318241E+03   -0.31868E-03   -0.31867E-03   768   0.803E-03-0.335E-05
CGA:   8    -0.663160458231E+03   -0.13999E-03   -0.13999E-03   768   0.389E-03-0.150E-05
CGA:   9    -0.663160535905E+03   -0.77674E-04   -0.77653E-04   768   0.202E-03 0.879E-06
  77 F= -.66972475E+03 E0= -.66971367E+03  d E =-.250448E-02  mag=     1.0056
       N       E                     dE             d eps       ncg     rms          ort
SDA:   1    -0.662248026528E+03    0.91243E+00    0.00000E+00   768   0.250E+01 0.000E+00
CGA:   2    -0.662895587185E+03   -0.64756E+00   -0.64776E+00   768   0.113E+01-0.161E-02
CGA:   3    -0.663058842321E+03   -0.16326E+00   -0.16352E+00   768   0.511E+00 0.239E-02
CGA:   4    -0.663131769014E+03   -0.72927E-01   -0.72914E-01   768   0.137E+00 0.241E-03
CGA:   5    -0.663153090466E+03   -0.21321E-01   -0.21326E-01   768   0.397E-01 0.847E-04
CGA:   6    -0.663159608698E+03   -0.65182E-02   -0.65172E-02   768   0.166E-01-0.464E-04
CGA:   7    -0.663162555077E+03   -0.29464E-02   -0.29464E-02   768   0.724E-02-0.479E-05
CGA:   8    -0.663163784915E+03   -0.12298E-02   -0.12298E-02   768   0.348E-02-0.730E-05
CGA:   9    -0.663164480336E+03   -0.69542E-03   -0.69528E-03   768   0.176E-02 0.513E-05
CGA:  10    -0.663164811390E+03   -0.33105E-03   -0.33107E-03   768   0.855E-03-0.916E-06
CGA:  11    -0.663164959043E+03   -0.14765E-03   -0.14766E-03   768   0.375E-03 0.105E-05
CGA:  12    -0.663165027962E+03   -0.68919E-04   -0.68926E-04   768   0.153E-03-0.124E-05
  78 F= -.66972970E+03 E0= -.66971867E+03  d E =-.745263E-02  mag=     1.0088
       N       E                     dE             d eps       ncg     rms          ort
SDA:   1    -0.659485521722E+03    0.36794E+01    0.00000E+00   768   0.101E+02 0.000E+00
CGA:   2    -0.662079074229E+03   -0.25936E+01   -0.25952E+01   768   0.460E+01-0.129E-01
CGA:   3    -0.662732619944E+03   -0.65355E+00   -0.65587E+00   768   0.205E+01 0.191E-01
CGA:   4    -0.663026603993E+03   -0.29398E+00   -0.29395E+00   768   0.565E+00 0.227E-02
CGA:   5    -0.663114566390E+03   -0.87962E-01   -0.87999E-01   768   0.159E+00 0.737E-03
CGA:   6    -0.663140933550E+03   -0.26367E-01   -0.26361E-01   768   0.667E-01-0.327E-03
CGA:   7    -0.663152826759E+03   -0.11893E-01   -0.11893E-01   768   0.290E-01 0.249E-04
CGA:   8    -0.663157687740E+03   -0.48610E-02   -0.48604E-02   768   0.140E-01-0.336E-04
CGA:   9    -0.663160468754E+03   -0.27810E-02   -0.27802E-02   768   0.688E-02 0.271E-04
CGA:  10    -0.663161788050E+03   -0.13193E-02   -0.13194E-02   768   0.339E-02-0.554E-05
CGA:  11    -0.663162367066E+03   -0.57902E-03   -0.57904E-03   768   0.151E-02 0.357E-05
CGA:  12    -0.663162645670E+03   -0.27860E-03   -0.27862E-03   768   0.599E-03-0.250E-05
CGA:  13    -0.663162754329E+03   -0.10866E-03   -0.10866E-03   768   0.290E-03 0.865E-06
CGA:  14    -0.663162804925E+03   -0.50595E-04   -0.50593E-04   768   0.131E-03-0.711E-06
  79 F= -.66972834E+03 E0= -.66971741E+03  d E =-.609461E-02  mag=     1.0157
       N       E                     dE             d eps       ncg     rms          ort
SDA:   1    -0.661743035921E+03    0.14197E+01    0.00000E+00   768   0.389E+01 0.000E+00
CGA:   2    -0.662749204368E+03   -0.10062E+01   -0.10058E+01   768   0.174E+01 0.305E-02
CGA:   3    -0.663001000857E+03   -0.25180E+00   -0.25138E+00   768   0.811E+00-0.351E-02
CGA:   4    -0.663115276670E+03   -0.11428E+00   -0.11430E+00   768   0.209E+00-0.284E-03
CGA:   5    -0.663148181774E+03   -0.32905E-01   -0.32899E-01   768   0.587E-01-0.123E-03
CGA:   6    -0.663157877889E+03   -0.96961E-02   -0.96979E-02   768   0.253E-01 0.810E-04
CGA:   7    -0.663162166401E+03   -0.42885E-02   -0.42886E-02   768   0.109E-01 0.107E-04
CGA:   8    -0.663164042062E+03   -0.18757E-02   -0.18758E-02   768   0.497E-02 0.135E-04
CGA:   9    -0.663165074268E+03   -0.10322E-02   -0.10324E-02   768   0.261E-02-0.582E-05
CGA:  10    -0.663165542214E+03   -0.46795E-03   -0.46794E-03   768   0.128E-02 0.297E-05
CGA:  11    -0.663165765744E+03   -0.22353E-03   -0.22353E-03   768   0.514E-03-0.457E-06
CGA:  12    -0.663165862147E+03   -0.96403E-04   -0.96386E-04   768   0.217E-03 0.185E-05
  80 F= -.66973087E+03 E0= -.66971987E+03  d E =-.862128E-02  mag=     1.0120
       N       E                     dE             d eps       ncg     rms          ort
SDA:   1    -0.663041846140E+03    0.12392E+00    0.00000E+00   768   0.338E+00 0.000E+00
CGA:   2    -0.663137567865E+03   -0.95722E-01   -0.95709E-01   768   0.120E+00 0.125E-03
CGA:   3    -0.663158002657E+03   -0.20435E-01   -0.20435E-01   768   0.642E-01 0.127E-05
CGA:   4    -0.663165612098E+03   -0.76094E-02   -0.76151E-02   768   0.143E-01 0.155E-04
CGA:   5    -0.663168030585E+03   -0.24185E-02   -0.24184E-02   768   0.325E-02-0.431E-05
CGA:   6    -0.663168635767E+03   -0.60518E-03   -0.60522E-03   768   0.141E-02-0.564E-05
CGA:   7    -0.663168848501E+03   -0.21273E-03   -0.21265E-03   768   0.526E-03-0.254E-05
CGA:   8    -0.663168933522E+03   -0.85021E-04   -0.85012E-04   768   0.240E-03-0.573E-06
  81 F= -.66973417E+03 E0= -.66972312E+03  d E =-.330098E-02  mag=     1.0126
       N       E                     dE             d eps       ncg     rms          ort
SDA:   1    -0.662917783900E+03    0.25106E+00    0.00000E+00   768   0.673E+00 0.000E+00
CGA:   2    -0.663106522571E+03   -0.18874E+00   -0.18870E+00   768   0.257E+00 0.407E-03
CGA:   3    -0.663145956574E+03   -0.39434E-01   -0.39424E-01   768   0.140E+00-0.748E-04
CGA:   4    -0.663163581730E+03   -0.17625E-01   -0.17639E-01   768   0.280E-01 0.464E-04
CGA:   5    -0.663168632989E+03   -0.50513E-02   -0.50513E-02   768   0.630E-02-0.539E-05
CGA:   6    -0.663169850923E+03   -0.12179E-02   -0.12180E-02   768   0.311E-02-0.776E-05
CGA:   7    -0.663170289956E+03   -0.43903E-03   -0.43885E-03   768   0.110E-02-0.358E-05
CGA:   8    -0.663170486994E+03   -0.19704E-03   -0.19704E-03   768   0.555E-03-0.911E-06
CGA:   9    -0.663170602446E+03   -0.11545E-03   -0.11540E-03   768   0.256E-03 0.170E-05
CGA:  10    -0.663170654724E+03   -0.52278E-04   -0.52278E-04   768   0.175E-03-0.168E-07
  82 F= -.66973619E+03 E0= -.66972507E+03  d E =-.532312E-02  mag=     1.0133
       N       E                     dE             d eps       ncg     rms          ort
SDA:   1    -0.663003096235E+03    0.16751E+00    0.00000E+00   768   0.450E+00 0.000E+00
CGA:   2    -0.663132461860E+03   -0.12937E+00   -0.12941E+00   768   0.145E+00-0.407E-03
CGA:   3    -0.663163322913E+03   -0.30861E-01   -0.30854E-01   768   0.485E-01 0.165E-03
CGA:   4    -0.663170212222E+03   -0.68893E-02   -0.68902E-02   768   0.186E-01 0.204E-04
CGA:   5    -0.663172472649E+03   -0.22604E-02   -0.22595E-02   768   0.408E-02 0.117E-05
CGA:   6    -0.663173324960E+03   -0.85231E-03   -0.85237E-03   768   0.154E-02-0.229E-05
CGA:   7    -0.663173573591E+03   -0.24863E-03   -0.24863E-03   768   0.606E-03 0.116E-06
CGA:   8    -0.663173684739E+03   -0.11115E-03   -0.11115E-03   768   0.352E-03 0.710E-06
CGA:   9    -0.663173745122E+03   -0.60383E-04   -0.60399E-04   768   0.156E-03 0.155E-05
  83 F= -.66973964E+03 E0= -.66972842E+03  d E =-.344848E-02  mag=     1.0121
       N       E                     dE             d eps       ncg     rms          ort
SDA:   1    -0.663104524335E+03    0.69160E-01    0.00000E+00   768   0.184E+00 0.000E+00
CGA:   2    -0.663157346656E+03   -0.52822E-01   -0.52833E-01   768   0.586E-01-0.994E-04
CGA:   3    -0.663170077114E+03   -0.12730E-01   -0.12729E-01   768   0.174E-01 0.389E-04
CGA:   4    -0.663173025115E+03   -0.29480E-02   -0.29481E-02   768   0.465E-02 0.360E-05
CGA:   5    -0.663173733918E+03   -0.70880E-03   -0.70875E-03   768   0.142E-02-0.147E-06
CGA:   6    -0.663174015471E+03   -0.28155E-03   -0.28156E-03   768   0.550E-03-0.108E-05
CGA:   7    -0.663174094072E+03   -0.78600E-04   -0.78605E-04   768   0.268E-03 0.113E-06
  84 F= -.66974021E+03 E0= -.66972892E+03  d E =-.401988E-02  mag=     1.0112
       N       E                     dE             d eps       ncg     rms          ort
SDA:   1    -0.663026329746E+03    0.14769E+00    0.00000E+00   768   0.399E+00 0.000E+00
CGA:   2    -0.663140580638E+03   -0.11425E+00   -0.11425E+00   768   0.128E+00 0.261E-04
CGA:   3    -0.663167687244E+03   -0.27107E-01   -0.27104E-01   768   0.407E-01 0.735E-04
CGA:   4    -0.663174063646E+03   -0.63764E-02   -0.63757E-02   768   0.125E-01 0.119E-05
CGA:   5    -0.663175795513E+03   -0.17319E-02   -0.17322E-02   768   0.343E-02 0.102E-05
CGA:   6    -0.663176425243E+03   -0.62973E-03   -0.62972E-03   768   0.152E-02-0.160E-05
CGA:   7    -0.663176634742E+03   -0.20950E-03   -0.20946E-03   768   0.570E-03-0.582E-06
CGA:   8    -0.663176745142E+03   -0.11040E-03   -0.11040E-03   768   0.265E-03-0.334E-06
CGA:   9    -0.663176804270E+03   -0.59127E-04   -0.59095E-04   768   0.142E-03 0.874E-06
  85 F= -.66974319E+03 E0= -.66973183E+03  d E =-.297697E-02  mag=     1.0132
       N       E                     dE             d eps       ncg     rms          ort
SDA:   1    -0.662597433229E+03    0.57931E+00    0.00000E+00   768   0.154E+01 0.000E+00
CGA:   2    -0.663039520516E+03   -0.44209E+00   -0.44205E+00   768   0.489E+00 0.275E-03
CGA:   3    -0.663144375987E+03   -0.10486E+00   -0.10484E+00   768   0.154E+00 0.592E-03
CGA:   4    -0.663168709365E+03   -0.24333E-01   -0.24340E-01   768   0.453E-01 0.656E-04
CGA:   5    -0.663174994082E+03   -0.62847E-02   -0.62822E-02   768   0.132E-01-0.287E-05
CGA:   6    -0.663177281868E+03   -0.22878E-02   -0.22877E-02   768   0.590E-02-0.372E-05
CGA:   7    -0.663178097537E+03   -0.81567E-03   -0.81563E-03   768   0.191E-02-0.136E-05
CGA:   8    -0.663178497763E+03   -0.40023E-03   -0.40020E-03   768   0.902E-03 0.123E-05
CGA:   9    -0.663178684857E+03   -0.18709E-03   -0.18708E-03   768   0.536E-03 0.402E-06
CGA:  10    -0.663178776251E+03   -0.91395E-04   -0.91415E-04   768   0.295E-03 0.131E-05
  86 F= -.66974567E+03 E0= -.66973419E+03  d E =-.545955E-02  mag=     1.0176
       N       E                     dE             d eps       ncg     rms          ort
SDA:   1    -0.663022048574E+03    0.15664E+00    0.00000E+00   768   0.424E+00 0.000E+00
CGA:   2    -0.663140452373E+03   -0.11840E+00   -0.11836E+00   768   0.156E+00 0.356E-03
CGA:   3    -0.663168718702E+03   -0.28266E-01   -0.28267E-01   768   0.631E-01 0.303E-04
CGA:   4    -0.663177727260E+03   -0.90086E-02   -0.90067E-02   768   0.168E-01-0.133E-05
CGA:   5    -0.663180299612E+03   -0.25724E-02   -0.25725E-02   768   0.441E-02-0.529E-06
CGA:   6    -0.663181112861E+03   -0.81325E-03   -0.81324E-03   768   0.190E-02-0.391E-05
CGA:   7    -0.663181407864E+03   -0.29500E-03   -0.29497E-03   768   0.856E-03-0.124E-05
CGA:   8    -0.663181545575E+03   -0.13771E-03   -0.13769E-03   768   0.377E-03-0.710E-06
CGA:   9    -0.663181631475E+03   -0.85900E-04   -0.85857E-04   768   0.174E-03 0.963E-06
  87 F= -.66974866E+03 E0= -.66973720E+03  d E =-.298970E-02  mag=     1.0205
       N       E                     dE             d eps       ncg     rms          ort
SDA:   1    -0.663158463810E+03    0.23082E-01    0.00000E+00   768   0.623E-01 0.000E+00
CGA:   2    -0.663175795541E+03   -0.17332E-01   -0.17330E-01   768   0.231E-01 0.180E-04
CGA:   3    -0.663179942867E+03   -0.41473E-02   -0.41472E-02   768   0.958E-02-0.229E-05
CGA:   4    -0.663181307436E+03   -0.13646E-02   -0.13647E-02   768   0.235E-02-0.177E-06
CGA:   5    -0.663181683396E+03   -0.37596E-03   -0.37593E-03   768   0.771E-03-0.724E-06
CGA:   6    -0.663181802606E+03   -0.11921E-03   -0.11916E-03   768   0.347E-03-0.139E-05
CGA:   7    -0.663181858839E+03   -0.56234E-04   -0.56214E-04   768   0.133E-03-0.836E-06
  88 F= -.66974894E+03 E0= -.66973749E+03  d E =-.326626E-02  mag=     1.0217
       N       E                     dE             d eps       ncg     rms          ort
SDA:   1    -0.663115617997E+03    0.66185E-01    0.00000E+00   768   0.181E+00 0.000E+00
CGA:   2    -0.663166880597E+03   -0.51263E-01   -0.51267E-01   768   0.625E-01-0.453E-04
CGA:   3    -0.663179012668E+03   -0.12132E-01   -0.12132E-01   768   0.234E-01 0.777E-05
CGA:   4    -0.663182316558E+03   -0.33039E-02   -0.33043E-02   768   0.720E-02 0.208E-05
CGA:   5    -0.663183390882E+03   -0.10743E-02   -0.10743E-02   768   0.163E-02 0.336E-06
CGA:   6    -0.663183735055E+03   -0.34417E-03   -0.34417E-03   768   0.646E-03-0.280E-07
CGA:   7    -0.663183841472E+03   -0.10642E-03   -0.10642E-03   768   0.300E-03 0.282E-06
CGA:   8    -0.663183890066E+03   -0.48595E-04   -0.48613E-04   768   0.161E-03 0.768E-06
  89 F= -.66975111E+03 E0= -.66973967E+03  d E =-.217417E-02  mag=     1.0213
       N       E                     dE             d eps       ncg     rms          ort
SDA:   1    -0.662909723387E+03    0.27412E+00    0.00000E+00   768   0.731E+00 0.000E+00
CGA:   2    -0.663116685206E+03   -0.20696E+00   -0.20700E+00   768   0.254E+00-0.369E-03
CGA:   3    -0.663165312681E+03   -0.48627E-01   -0.48628E-01   768   0.101E+00-0.630E-05
CGA:   4    -0.663179004136E+03   -0.13691E-01   -0.13701E-01   768   0.291E-01 0.125E-04
CGA:   5    -0.663183396143E+03   -0.43920E-02   -0.43913E-02   768   0.767E-02-0.369E-05
CGA:   6    -0.663184650713E+03   -0.12546E-02   -0.12546E-02   768   0.368E-02-0.254E-06
CGA:   7    -0.663185211917E+03   -0.56120E-03   -0.56121E-03   768   0.118E-02 0.340E-06
CGA:   8    -0.663185444230E+03   -0.23231E-03   -0.23228E-03   768   0.584E-03 0.209E-05
CGA:   9    -0.663185563174E+03   -0.11894E-03   -0.11893E-03   768   0.335E-03 0.636E-06
CGA:  10    -0.663185620160E+03   -0.56986E-04   -0.57001E-04   768   0.171E-03 0.110E-05
  90 F= -.66975311E+03 E0= -.66974169E+03  d E =-.417657E-02  mag=     1.0201
       N       E                     dE             d eps       ncg     rms          ort
SDA:   1    -0.663149321723E+03    0.36241E-01    0.00000E+00   768   0.997E-01 0.000E+00
CGA:   2    -0.663178041219E+03   -0.28719E-01   -0.28721E-01   768   0.349E-01-0.173E-04
CGA:   3    -0.663184764565E+03   -0.67233E-02   -0.67233E-02   768   0.130E-01 0.460E-05
CGA:   4    -0.663186653618E+03   -0.18891E-02   -0.18893E-02   768   0.356E-02 0.162E-05
CGA:   5    -0.663187186861E+03   -0.53324E-03   -0.53318E-03   768   0.106E-02-0.571E-06
CGA:   6    -0.663187366826E+03   -0.17996E-03   -0.17996E-03   768   0.472E-03-0.647E-06
CGA:   7    -0.663187438705E+03   -0.71879E-04   -0.71886E-04   768   0.186E-03 0.260E-06
  91 F= -.66975501E+03 E0= -.66974357E+03  d E =-.189523E-02  mag=     1.0195
       N       E                     dE             d eps       ncg     rms          ort
SDA:   1    -0.663056764896E+03    0.13060E+00    0.00000E+00   768   0.344E+00 0.000E+00
CGA:   2    -0.663155737958E+03   -0.98973E-01   -0.98990E-01   768   0.122E+00-0.143E-03
CGA:   3    -0.663178924258E+03   -0.23186E-01   -0.23186E-01   768   0.476E-01 0.798E-04
CGA:   4    -0.663185321985E+03   -0.63977E-02   -0.63950E-02   768   0.149E-01 0.701E-05
CGA:   5    -0.663187539730E+03   -0.22177E-02   -0.22179E-02   768   0.364E-02 0.834E-06
CGA:   6    -0.663188186451E+03   -0.64672E-03   -0.64671E-03   768   0.184E-02-0.784E-06
CGA:   7    -0.663188451944E+03   -0.26549E-03   -0.26551E-03   768   0.632E-03 0.614E-06
CGA:   8    -0.663188578263E+03   -0.12632E-03   -0.12630E-03   768   0.317E-03 0.907E-06
CGA:   9    -0.663188644802E+03   -0.66540E-04   -0.66500E-04   768   0.173E-03 0.149E-05
  92 F= -.66975635E+03 E0= -.66974490E+03  d E =-.323601E-02  mag=     1.0181
       N       E                     dE             d eps       ncg     rms          ort
SDA:   1    -0.663134148361E+03    0.54430E-01    0.00000E+00   768   0.145E+00 0.000E+00
CGA:   2    -0.663176759191E+03   -0.42611E-01   -0.42602E-01   768   0.496E-01 0.753E-04
CGA:   3    -0.663186097640E+03   -0.93384E-02   -0.93385E-02   768   0.224E-01 0.776E-05
CGA:   4    -0.663188742171E+03   -0.26445E-02   -0.26456E-02   768   0.621E-02 0.675E-05
CGA:   5    -0.663189707353E+03   -0.96518E-03   -0.96505E-03   768   0.149E-02-0.360E-05
CGA:   6    -0.663189975833E+03   -0.26848E-03   -0.26847E-03   768   0.655E-03-0.275E-05
CGA:   7    -0.663190080920E+03   -0.10509E-03   -0.10507E-03   768   0.233E-03-0.806E-06
CGA:   8    -0.663190120681E+03   -0.39761E-04   -0.39763E-04   768   0.131E-03 0.116E-06
  93 F= -.66975787E+03 E0= -.66974639E+03  d E =-.151510E-02  mag=     1.0194
