       N       E                     dE             d eps       ncg     rms          rms(c)
DAV:   1     0.265277219693E+04    0.26528E+04   -0.95447E+04  4272   0.106E+03
DAV:   2     0.222384630462E+03   -0.24304E+04   -0.23107E+04  5084   0.257E+02
DAV:   3    -0.477797274561E+03   -0.70018E+03   -0.69301E+03  4144   0.149E+02
DAV:   4    -0.515511884302E+03   -0.37715E+02   -0.36715E+02  4192   0.476E+01
DAV:   5    -0.517020770099E+03   -0.15089E+01   -0.14889E+01  4864   0.875E+00    0.424E+01
DAV:   6    -0.501404475628E+03    0.15616E+02   -0.28273E+02  4464   0.322E+01    0.348E+01
DAV:   7    -0.491867395361E+03    0.95371E+01   -0.17366E+02  4368   0.202E+01    0.258E+01
DAV:   8    -0.489232869145E+03    0.26345E+01   -0.10671E+02  4152   0.173E+01    0.250E+01
DAV:   9    -0.481299644874E+03    0.79332E+01   -0.11889E+02  4096   0.151E+01    0.173E+01
DAV:  10    -0.485464698828E+03   -0.41651E+01   -0.10936E+02  4368   0.989E+00    0.185E+01
DAV:  11    -0.480950505885E+03    0.45142E+01   -0.99601E+00  3856   0.697E+00    0.115E+01
DAV:  12    -0.482165755885E+03   -0.12153E+01   -0.23180E+01  4600   0.553E+00    0.134E+01
DAV:  13    -0.480294090215E+03    0.18717E+01   -0.15740E+01  4256   0.500E+00    0.102E+01
DAV:  14    -0.481734446974E+03   -0.14404E+01   -0.31227E+01  4392   0.510E+00    0.117E+01
DAV:  15    -0.480188340465E+03    0.15461E+01   -0.40512E+00  3976   0.326E+00    0.108E+01
DAV:  16    -0.479442424708E+03    0.74592E+00   -0.92059E+00  4152   0.235E+00    0.717E+00
DAV:  17    -0.479458329340E+03   -0.15905E-01   -0.48763E+00  4000   0.141E+00    0.657E+00
DAV:  18    -0.479654984455E+03   -0.19666E+00   -0.61979E+00  4192   0.113E+00    0.994E+00
DAV:  19    -0.479257832075E+03    0.39715E+00   -0.20247E+00  4000   0.108E+00    0.574E+00
DAV:  20    -0.479275460503E+03   -0.17628E-01   -0.16849E-01  3840   0.442E-01    0.553E+00
DAV:  21    -0.479254376204E+03    0.21084E-01   -0.78510E-02  4192   0.241E-01    0.565E+00
DAV:  22    -0.479327989539E+03   -0.73613E-01   -0.95615E-01  4256   0.497E-01    0.780E+00
DAV:  23    -0.479332105351E+03   -0.41158E-02   -0.15769E-02  3692   0.288E-01    0.770E+00
DAV:  24    -0.479221769236E+03    0.11034E+00   -0.30444E+00  5216   0.814E-01    0.492E+00
DAV:  25    -0.479294489067E+03   -0.72720E-01   -0.86260E-02  3680   0.366E-01    0.672E+00
DAV:  26    -0.479201260220E+03    0.93229E-01   -0.64603E-02  3912   0.354E-01    0.499E+00
DAV:  27    -0.479192688421E+03    0.85718E-02   -0.46418E-01  4200   0.474E-01    0.539E+00
DAV:  28    -0.479180424028E+03    0.12264E-01   -0.48695E-02  3648   0.329E-01    0.400E+00
DAV:  29    -0.479189381360E+03   -0.89573E-02   -0.66836E-02  3820   0.152E-01    0.539E+00
DAV:  30    -0.479181327316E+03    0.80540E-02   -0.24993E-02  3756   0.114E-01    0.589E+00
DAV:  31    -0.479172368433E+03    0.89589E-02   -0.25733E-03  3672   0.216E-01    0.590E+00
DAV:  32    -0.479165069602E+03    0.72988E-02   -0.65862E-03  3576   0.118E-01    0.478E+00
DAV:  33    -0.479180298266E+03   -0.15229E-01   -0.34960E-01  3572   0.264E-01    0.540E+00
DAV:  34    -0.479190958495E+03   -0.10660E-01   -0.12898E-02  3592   0.205E-01    0.588E+00
DAV:  35    -0.479179623446E+03    0.11335E-01   -0.66124E-03  3596   0.228E-01    0.587E+00
DAV:  36    -0.479170984367E+03    0.86391E-02   -0.11511E-02  4008   0.116E-01    0.573E+00
DAV:  37    -0.479160828847E+03    0.10156E-01   -0.13737E-02  4000   0.114E-01    0.531E+00
DAV:  38    -0.479161917898E+03   -0.10891E-02   -0.60566E-03  3792   0.953E-02    0.504E+00
DAV:  39    -0.479171714557E+03   -0.97967E-02   -0.87572E-03  3548   0.254E-01    0.513E+00
DAV:  40    -0.479166411077E+03    0.53035E-02   -0.55160E-03  3500   0.219E-01    0.500E+00
DAV:  41    -0.479160667494E+03    0.57436E-02   -0.53060E-03  3752   0.121E-01    0.552E+00
DAV:  42    -0.479143696085E+03    0.16971E-01   -0.12982E-01  3648   0.249E-01    0.325E+00
DAV:  43    -0.479158466475E+03   -0.14770E-01   -0.96771E-02  3520   0.252E-01    0.273E+00
DAV:  44    -0.479168689903E+03   -0.10223E-01   -0.59876E-02  3568   0.194E-01    0.371E+00
DAV:  45    -0.479163261929E+03    0.54280E-02   -0.65163E-03  3524   0.152E-01    0.396E+00
DAV:  46    -0.479156378783E+03    0.68831E-02   -0.37622E-04  2732   0.588E-02    0.398E+00
DAV:  47    -0.479155469118E+03    0.90966E-03   -0.25294E-04  2136   0.189E-02    0.405E+00
DAV:  48    -0.479154465075E+03    0.10040E-02   -0.36357E-05  2096   0.153E-02    0.403E+00
DAV:  49    -0.479154500153E+03   -0.35079E-04   -0.84617E-04  1968   0.227E-02
   1 F= -.48252150E+03 E0= -.48252150E+03  d E =0.000000E+00  mag=     0.0691
