 vasp.5.4.4.18Apr17-6-g9f103f2a35 (build Nov  8 2022 18:58:45) complex           
 executed on             LinuxGNU date 2023.04.13  15:54:38
 running on   48 total cores
 distrk:  each k-point on   48 cores,    1 groups
 distr:  one band on NCORES_PER_BAND=  12 cores,    4 groups


--------------------------------------------------------------------------------------------------------


 INCAR:
 POTCAR:    PAW_PBE C 08Apr2002                   
 POTCAR:    PAW_PBE N 08Apr2002                   
 POTCAR:    PAW_PBE Ge_d 03Jul2007                
 POTCAR:    PAW_PBE C 08Apr2002                   
 POTCAR:    PAW_PBE O 08Apr2002                   
 POTCAR:    PAW_PBE C 08Apr2002                   
   SHA256 =  253f7b50bb8d59471dbedb8285d89021f4a42ed1a2c5d38a03a736e69125dd95 C/
   COPYR  = (c) Copyright 08Apr2002 Georg Kresse                                
   COPYR  = This file is part of the software VASP. Any use, copying, and all ot
   COPYR  = If you do not have a valid VASP license, you may not use, copy or di
   VRHFIN =C: s2p2                                                              
   LEXCH  = PE                                                                  
   EATOM  =   147.1560 eV,   10.8157 Ry                                         
                                                                                
   TITEL  = PAW_PBE C 08Apr2002                                                 
   LULTRA =        F    use ultrasoft PP ?                                      
   IUNSCR =        1    unscreen: 0-lin 1-nonlin 2-no                           
   RPACOR =    1.200    partial core radius                                     
   POMASS =   12.011; ZVAL   =    4.000    mass and valenz                      
   RCORE  =    1.500    outmost cutoff radius                                   
   RWIGS  =    1.630; RWIGS  =    0.863    wigner-seitz radius (au A)           
   ENMAX  =  400.000; ENMIN  =  300.000 eV                                      
   ICORE  =        2    local potential                                         
   LCOR   =        T    correct aug charges                                     
   LPAW   =        T    paw PP                                                  
   EAUG   =  644.873                                                            
   DEXC   =    0.000                                                            
   RMAX   =    1.529    core radius for proj-oper                               
   RAUG   =    1.300    factor for augmentation sphere                          
   RDEP   =    1.501    radius for radial grids                                 
   RDEPT  =    1.300    core radius for aug-charge                              
                                                                                
   Atomic configuration                                                         
    4 entries                                                                   
     n  l   j            E        occ.                                          
     1  0  0.50      -273.3789   2.0000                                         
     2  0  0.50       -13.7508   2.0000                                         
     2  1  0.50        -5.2854   2.0000                                         
     3  2  1.50        -5.4423   0.0000                                         
   Description                                                                  
     l       E           TYP  RCUT    TYP  RCUT                                 
     0    -13.7508458     23  1.200                                             
     0     -8.2022199     23  1.200                                             
     1     -5.2854383     23  1.500                                             
     1     34.0145650     23  1.500                                             
     2     -5.4423304      7  1.500                                             
  local pseudopotential read in
  partial core-charges read in
  partial kinetic energy density read in
  atomic valenz-charges read in
  non local Contribution for L=           0  read in
    real space projection operators read in
  non local Contribution for L=           0  read in
    real space projection operators read in
  non local Contribution for L=           1  read in
    real space projection operators read in
  non local Contribution for L=           1  read in
    real space projection operators read in
    PAW grid and wavefunctions read in

   number of l-projection  operators is LMAX  =           4
   number of lm-projection operators is LMMAX =           8

 POTCAR:    PAW_PBE N 08Apr2002                   
   SHA256 =  e053789ff3a61a86a1b75d8a110fcc91f86041011e7b0817c7c99e4e8a6349d7 N/
   COPYR  = (c) Copyright 08Apr2002 Georg Kresse                                
   COPYR  = This file is part of the software VASP. Any use, copying, and all ot
   COPYR  = If you do not have a valid VASP license, you may not use, copy or di
   VRHFIN =N: s2p3                                                              
   LEXCH  = PE                                                                  
   EATOM  =   264.5486 eV,   19.4438 Ry                                         
                                                                                
   TITEL  = PAW_PBE N 08Apr2002                                                 
   LULTRA =        F    use ultrasoft PP ?                                      
   IUNSCR =        1    unscreen: 0-lin 1-nonlin 2-no                           
   RPACOR =    1.200    partial core radius                                     
   POMASS =   14.001; ZVAL   =    5.000    mass and valenz                      
   RCORE  =    1.500    outmost cutoff radius                                   
   RWIGS  =    1.400; RWIGS  =    0.741    wigner-seitz radius (au A)           
   ENMAX  =  400.000; ENMIN  =  300.000 eV                                      
   ICORE  =        2    local potential                                         
   LCOR   =        T    correct aug charges                                     
   LPAW   =        T    paw PP                                                  
   EAUG   =  627.112                                                            
   DEXC   =    0.000                                                            
   RMAX   =    1.529    core radius for proj-oper                               
   RAUG   =    1.300    factor for augmentation sphere                          
   RDEP   =    1.514    radius for radial grids                                 
   RDEPT  =    1.338    core radius for aug-charge                              
                                                                                
   Atomic configuration                                                         
    4 entries                                                                   
     n  l   j            E        occ.                                          
     1  0  0.50      -384.7179   2.0000                                         
     2  0  0.50       -18.5828   2.0000                                         
     2  1  0.50        -7.0898   3.0000                                         
     3  2  1.50        -6.8029   0.0000                                         
   Description                                                                  
     l       E           TYP  RCUT    TYP  RCUT                                 
     0    -18.5828119     23  1.200                                             
     0    -13.5018863     23  1.200                                             
     1     -7.0897853     23  1.500                                             
     1      9.5240782     23  1.500                                             
     2     -6.8029130      7  1.500                                             
  local pseudopotential read in
  partial core-charges read in
  partial kinetic energy density read in
  atomic valenz-charges read in
  non local Contribution for L=           0  read in
    real space projection operators read in
  non local Contribution for L=           0  read in
    real space projection operators read in
  non local Contribution for L=           1  read in
    real space projection operators read in
  non local Contribution for L=           1  read in
    real space projection operators read in
    PAW grid and wavefunctions read in

   number of l-projection  operators is LMAX  =           4
   number of lm-projection operators is LMMAX =           8

 POTCAR:    PAW_PBE Ge_d 03Jul2007                
   SHA256 =  944b26c40d2d7c4f4eb1ff3a2e8dbfdd7129146276cd341854bfd5c0e57780ed Ge
   COPYR  = (c) Copyright 03Jul2007 Georg Kresse                                
   COPYR  = This file is part of the software VASP. Any use, copying, and all ot
   COPYR  = If you do not have a valid VASP license, you may not use, copy or di
   VRHFIN =Ge: 3d4s4p                                                           
   LEXCH  = PE                                                                  
   EATOM  =  2596.2402 eV,  190.8183 Ry                                         
                                                                                
   TITEL  = PAW_PBE Ge_d 03Jul2007                                              
   LULTRA =        F    use ultrasoft PP ?                                      
   IUNSCR =        1    unscreen: 0-lin 1-nonlin 2-no                           
   RPACOR =    2.000    partial core radius                                     
   POMASS =   72.610; ZVAL   =   14.000    mass and valenz                      
   RCORE  =    2.300    outmost cutoff radius                                   
   RWIGS  =    2.300; RWIGS  =    1.217    wigner-seitz radius (au A)           
   ENMAX  =  310.294; ENMIN  =  232.720 eV                                      
   ICORE  =        3    local potential                                         
   LCOR   =        T    correct aug charges                                     
   LPAW   =        T    paw PP                                                  
   EAUG   =  531.356                                                            
   DEXC   =    0.000                                                            
   RMAX   =    2.342    core radius for proj-oper                               
   RAUG   =    1.300    factor for augmentation sphere                          
   RDEP   =    2.318    radius for radial grids                                 
   RDEPT  =    1.783    core radius for aug-charge                              
                                                                                
   Atomic configuration                                                         
    9 entries                                                                   
     n  l   j            E        occ.                                          
     1  0  0.50    -10959.8463   2.0000                                         
     2  0  0.50     -1371.6056   2.0000                                         
     2  1  1.50     -1198.4791   6.0000                                         
     3  0  0.50      -168.4733   2.0000                                         
     3  1  1.50      -115.6019   6.0000                                         
     3  2  2.50       -29.3106  10.0000                                         
     4  0  0.50       -11.7309   2.0000                                         
     4  1  0.50        -3.8952   2.0000                                         
     4  3  2.50        -4.0817   0.0000                                         
   Description                                                                  
     l       E           TYP  RCUT    TYP  RCUT                                 
     2    -29.3105938     23  2.200                                             
     2    -13.6058260     23  2.200                                             
     0    -11.7309493     23  2.300                                             
     0     -7.4578696     23  2.300                                             
     1     -3.8952261     23  2.300                                             
     1      6.1178114     23  2.300                                             
     3     -1.3605826     23  2.300                                             
  local pseudopotential read in
  partial core-charges read in
  partial kinetic energy density read in
  atomic valenz-charges read in
  non local Contribution for L=           2  read in
    real space projection operators read in
  non local Contribution for L=           2  read in
    real space projection operators read in
  non local Contribution for L=           0  read in
    real space projection operators read in
  non local Contribution for L=           0  read in
    real space projection operators read in
  non local Contribution for L=           1  read in
    real space projection operators read in
  non local Contribution for L=           1  read in
    real space projection operators read in
    PAW grid and wavefunctions read in

   number of l-projection  operators is LMAX  =           6
   number of lm-projection operators is LMMAX =          18

 POTCAR:    PAW_PBE C 08Apr2002                   
   SHA256 =  253f7b50bb8d59471dbedb8285d89021f4a42ed1a2c5d38a03a736e69125dd95 C/
   COPYR  = (c) Copyright 08Apr2002 Georg Kresse                                
   COPYR  = This file is part of the software VASP. Any use, copying, and all ot
   COPYR  = If you do not have a valid VASP license, you may not use, copy or di
   VRHFIN =C: s2p2                                                              
   LEXCH  = PE                                                                  
   EATOM  =   147.1560 eV,   10.8157 Ry                                         
                                                                                
   TITEL  = PAW_PBE C 08Apr2002                                                 
   LULTRA =        F    use ultrasoft PP ?                                      
   IUNSCR =        1    unscreen: 0-lin 1-nonlin 2-no                           
   RPACOR =    1.200    partial core radius                                     
   POMASS =   12.011; ZVAL   =    4.000    mass and valenz                      
   RCORE  =    1.500    outmost cutoff radius                                   
   RWIGS  =    1.630; RWIGS  =    0.863    wigner-seitz radius (au A)           
   ENMAX  =  400.000; ENMIN  =  300.000 eV                                      
   ICORE  =        2    local potential                                         
   LCOR   =        T    correct aug charges                                     
   LPAW   =        T    paw PP                                                  
   EAUG   =  644.873                                                            
   DEXC   =    0.000                                                            
   RMAX   =    1.529    core radius for proj-oper                               
   RAUG   =    1.300    factor for augmentation sphere                          
   RDEP   =    1.501    radius for radial grids                                 
   RDEPT  =    1.300    core radius for aug-charge                              
                                                                                
   Atomic configuration                                                         
    4 entries                                                                   
     n  l   j            E        occ.                                          
     1  0  0.50      -273.3789   2.0000                                         
     2  0  0.50       -13.7508   2.0000                                         
     2  1  0.50        -5.2854   2.0000                                         
     3  2  1.50        -5.4423   0.0000                                         
   Description                                                                  
     l       E           TYP  RCUT    TYP  RCUT                                 
     0    -13.7508458     23  1.200                                             
     0     -8.2022199     23  1.200                                             
     1     -5.2854383     23  1.500                                             
     1     34.0145650     23  1.500                                             
     2     -5.4423304      7  1.500                                             
  local pseudopotential read in
  partial core-charges read in
  partial kinetic energy density read in
  atomic valenz-charges read in
  non local Contribution for L=           0  read in
    real space projection operators read in
  non local Contribution for L=           0  read in
    real space projection operators read in
  non local Contribution for L=           1  read in
    real space projection operators read in
  non local Contribution for L=           1  read in
    real space projection operators read in
    PAW grid and wavefunctions read in

   number of l-projection  operators is LMAX  =           4
   number of lm-projection operators is LMMAX =           8

 POTCAR:    PAW_PBE O 08Apr2002                   
   SHA256 =  818f92134a0a090dccd8ba1447fa70422a3b330e708bb4f08108d8ae51209ddf O/
   COPYR  = (c) Copyright 08Apr2002 Georg Kresse                                
   COPYR  = This file is part of the software VASP. Any use, copying, and all ot
   COPYR  = If you do not have a valid VASP license, you may not use, copy or di
   VRHFIN =O: s2p4                                                              
   LEXCH  = PE                                                                  
   EATOM  =   432.3788 eV,   31.7789 Ry                                         
                                                                                
   TITEL  = PAW_PBE O 08Apr2002                                                 
   LULTRA =        F    use ultrasoft PP ?                                      
   IUNSCR =        1    unscreen: 0-lin 1-nonlin 2-no                           
   RPACOR =    1.200    partial core radius                                     
   POMASS =   16.000; ZVAL   =    6.000    mass and valenz                      
   RCORE  =    1.520    outmost cutoff radius                                   
   RWIGS  =    1.550; RWIGS  =    0.820    wigner-seitz radius (au A)           
   ENMAX  =  400.000; ENMIN  =  300.000 eV                                      
   ICORE  =        2    local potential                                         
   LCOR   =        T    correct aug charges                                     
   LPAW   =        T    paw PP                                                  
   EAUG   =  605.392                                                            
   DEXC   =    0.000                                                            
   RMAX   =    1.553    core radius for proj-oper                               
   RAUG   =    1.300    factor for augmentation sphere                          
   RDEP   =    1.550    radius for radial grids                                 
   RDEPT  =    1.329    core radius for aug-charge                              
                                                                                
   Atomic configuration                                                         
    4 entries                                                                   
     n  l   j            E        occ.                                          
     1  0  0.50      -514.6923   2.0000                                         
     2  0  0.50       -23.9615   2.0000                                         
     2  1  0.50        -9.0305   4.0000                                         
     3  2  1.50        -9.5241   0.0000                                         
   Description                                                                  
     l       E           TYP  RCUT    TYP  RCUT                                 
     0    -23.9615318     23  1.200                                             
     0     -9.5240782     23  1.200                                             
     1     -9.0304911     23  1.520                                             
     1      8.1634956     23  1.520                                             
     2     -9.5240782      7  1.500                                             
  local pseudopotential read in
  partial core-charges read in
  partial kinetic energy density read in
  kinetic energy density of atom read in
  atomic valenz-charges read in
  non local Contribution for L=           0  read in
    real space projection operators read in
  non local Contribution for L=           0  read in
    real space projection operators read in
  non local Contribution for L=           1  read in
    real space projection operators read in
  non local Contribution for L=           1  read in
    real space projection operators read in
    PAW grid and wavefunctions read in

   number of l-projection  operators is LMAX  =           4
   number of lm-projection operators is LMMAX =           8


 ----------------------------------------------------------------------------- 
|                                                                             |
|  ADVICE TO THIS USER RUNNING 'VASP/VAMP'   (HEAR YOUR MASTER'S VOICE ...):  |
|                                                                             |
|      You have a (more or less) 'large supercell' and for larger cells       |
|      it might be more efficient to use real space projection opertators     |
|      So try LREAL= Auto  in the INCAR   file.                               |
|      Mind:          For very  accurate calculation you might also keep the  |
|      reciprocal projection scheme          (i.e. LREAL=.FALSE.)             |
|                                                                             |
 ----------------------------------------------------------------------------- 

  PAW_PBE C 08Apr2002                   :
 energy of atom  1       EATOM= -147.1560
 kinetic energy error for atom=    0.0132 (will be added to EATOM!!)
  PAW_PBE N 08Apr2002                   :
 energy of atom  2       EATOM= -264.5486
 kinetic energy error for atom=    0.0298 (will be added to EATOM!!)
  PAW_PBE Ge_d 03Jul2007                :
 energy of atom  3       EATOM=-2596.2402
 kinetic energy error for atom=    0.0090 (will be added to EATOM!!)
  PAW_PBE C 08Apr2002                   :
 energy of atom  4       EATOM= -147.1560
 kinetic energy error for atom=    0.0132 (will be added to EATOM!!)
  PAW_PBE O 08Apr2002                   :
 energy of atom  5       EATOM= -432.3788
 kinetic energy error for atom=    0.0458 (will be added to EATOM!!)


 POSCAR: POSCAR-c3n4                             
  positions in direct lattice
  velocities in cartesian coordinates
 exchange correlation table for  LEXCH =        8
   RHO(1)=    0.500       N(1)  =     2000
   RHO(2)=  100.500       N(2)  =     4000



--------------------------------------------------------------------------------------------------------


 ion  position               nearest neighbor table
   1  0.070  0.134  0.453-  26 1.35  46 1.36  25 1.37
   2  0.351  0.442  0.558-  29 1.30  35 1.31
   3  0.124  0.473  0.456-  44 1.27  39 1.35
   4  0.517  0.064  0.477-  30 1.30  27 1.37  48 1.42
   5  0.458  0.438  0.482-  28 1.34  29 1.34  56 1.42
   6  0.058  0.994  0.498-  31 1.32  26 1.35  32 1.42
   7  0.038  0.696  0.526-  33 1.31  54 1.35  34 1.45
   8  0.373  0.926  0.461-  27 1.28  37 1.33
   9  0.031  0.843  0.530-  52 1.36  33 1.36  31 1.37
  10  0.480  0.590  0.535-  38 1.33  35 1.35  56 1.41
  11  0.495  0.900  0.485-  36 1.31  37 1.38  48 1.40
  12  0.082  0.582  0.492-  34 1.32  40 1.35  39 1.36
  13  0.667  0.197  0.503-  41 1.33  42 1.37  30 1.38
  14  0.807  0.363  0.500-  41 1.32  51 1.38  45 1.40
  15  0.572  0.455  0.404-  55 1.30  28 1.31
  16  0.917  0.006  0.468-  46 1.33  43 1.34  32 1.41
  17  0.962  0.412  0.468-  45 1.29  44 1.39  40 1.42
  18  0.649  0.045  0.516-  42 1.32  47 1.35  48 1.43
  19  0.614  0.733  0.502-  38 1.34  50 1.34  49 1.42
  20  0.773  0.879  0.504-  43 1.33  53 1.33  49 1.44
  21  0.628  0.893  0.510-  47 1.32  36 1.36  49 1.41
  22  0.918  0.530  0.515-  51 1.31  54 1.34  40 1.45
  23  0.899  0.859  0.527-  52 1.33  53 1.35  32 1.41
  24  0.598  0.597  0.447-  50 1.33  55 1.35  56 1.41
  25  0.129  0.230  0.434-   1 1.37
  26  0.115  0.089  0.478-   6 1.35   1 1.35
  27  0.422  0.019  0.459-   8 1.28   4 1.37
  28  0.491  0.395  0.438-  15 1.31   5 1.34
  29  0.375  0.388  0.521-   2 1.30   5 1.34
  30  0.573  0.159  0.480-   4 1.30  13 1.38
  31  0.094  0.940  0.516-   6 1.32   9 1.37
  32  0.958  0.953  0.497-  23 1.41  16 1.41   6 1.42
  33  0.076  0.791  0.530-   7 1.31   9 1.36
  34  0.111  0.672  0.514-  12 1.32   7 1.45  57 2.14
  35  0.393  0.537  0.569-   2 1.31  10 1.35
  36  0.534  0.846  0.489-  11 1.31  21 1.36
  37  0.398  0.859  0.473-   8 1.33  11 1.38
  38  0.535  0.686  0.545-  10 1.33  19 1.34
  39  0.155  0.566  0.475-   3 1.35  12 1.36  57 2.24
  40  0.990  0.509  0.490-  12 1.35  17 1.42  22 1.45
  41  0.716  0.295  0.508-  14 1.32  13 1.33
  42  0.704  0.141  0.524-  18 1.32  13 1.37
  43  0.822  0.962  0.465-  20 1.33  16 1.34
  44  0.038  0.401  0.448-   3 1.27  17 1.39
  45  0.873  0.343  0.470-  17 1.29  14 1.40
  46  0.975  0.097  0.444-  16 1.33   1 1.36
  47  0.683  0.986  0.530-  21 1.32  18 1.35
  48  0.552  0.001  0.492-  11 1.40   4 1.42  18 1.43
  49  0.671  0.836  0.509-  21 1.41  19 1.42  20 1.44
  50  0.646  0.694  0.452-  24 1.33  19 1.34
  51  0.829  0.456  0.521-  22 1.31  14 1.38
  52  0.936  0.804  0.543-  23 1.33   9 1.36
  53  0.805  0.827  0.538-  20 1.33  23 1.35
  54  0.946  0.623  0.529-  22 1.34   7 1.35
  55  0.627  0.550  0.403-  15 1.30  24 1.35
  56  0.512  0.541  0.489-  10 1.41  24 1.41   5 1.42
  57  0.256  0.708  0.531-  34 2.14  39 2.24
  58  0.233  0.584  0.663-  59 1.14
  59  0.257  0.567  0.718-  58 1.14


IMPORTANT INFORMATION: All symmetrisations will be switched off!
NOSYMM: (Re-)initialisation of all symmetry stuff for point group C_1.



 KPOINTS: K-Points                                

Automatic generation of k-mesh.
Space group operators:
 irot       det(A)        alpha          n_x          n_y          n_z        tau_x        tau_y        tau_z
    1     1.000000     0.000000     1.000000     0.000000     0.000000     0.000000     0.000000     0.000000
 
 Subroutine IBZKPT returns following result:
 ===========================================
 
 Found      5 irreducible k-points:
 
 Following reciprocal coordinates:
            Coordinates               Weight
  0.000000  0.000000  0.000000      1.000000
  0.333333  0.000000  0.000000      2.000000
  0.000000  0.333333  0.000000      2.000000
  0.333333  0.333333  0.000000      2.000000
 -0.333333  0.333333  0.000000      2.000000
 
 Following cartesian coordinates:
            Coordinates               Weight
  0.000000  0.000000  0.000000      1.000000
  0.024277  0.014368  0.000000      2.000000
  0.000396  0.028736  0.000000      2.000000
  0.024673  0.043104  0.000000      2.000000
 -0.023881  0.014368  0.000000      2.000000
 
 TETIRR: Found     24 inequivalent tetrahedra from       54


--------------------------------------------------------------------------------------------------------




 Dimension of arrays:
   k-points           NKPTS =      5   k-points in BZ     NKDIM =      5   number of bands    NBANDS=    172
   number of dos      NEDOS =   4000   number of ions     NIONS =     59
   non local maximal  LDIM  =      6   non local SUM 2l+1 LMDIM =     18
   total plane-waves  NPLWV = 677376
   max r-space proj   IRMAX =      1   max aug-charges    IRDMAX=   5955
   dimension x,y,z NGX =    84 NGY =   84 NGZ =   96
   dimension x,y,z NGXF=   168 NGYF=  168 NGZF=  192
   support grid    NGXF=   168 NGYF=  168 NGZF=  192
   ions per type =              24  32   1   1   1
   NGX,Y,Z   is equivalent  to a cutoff of   8.55,  8.71,  9.02 a.u.
   NGXF,Y,Z  is equivalent  to a cutoff of  17.10, 17.42, 18.03 a.u.

 SYSTEM =  unknown system                          
 POSCAR =  POSCAR-c3n4                             

 Startparameter for this run:
   NWRITE =      2    write-flag & timer
   PREC   = normal    normal or accurate (medium, high low for compatibility)
   ISTART =      0    job   : 0-new  1-cont  2-samecut
   ICHARG =      2    charge: 1-file 2-atom 10-const
   ISPIN  =      2    spin polarized calculation?
   LNONCOLLINEAR =      F non collinear calculations
   LSORBIT =      F    spin-orbit coupling
   INIWAV =      1    electr: 0-lowe 1-rand  2-diag
   LASPH  =      F    aspherical Exc in radial PAW
   METAGGA=      F    non-selfconsistent MetaGGA calc.

 Electronic Relaxation 1
   ENCUT  =  440.0 eV  32.34 Ry    5.69 a.u.  27.94 27.43 30.27*2*pi/ulx,y,z
   ENINI  =  440.0     initial cutoff
   ENAUG  =  644.9 eV  augmentation charge cutoff
   NELM   =    100;   NELMIN=  2; NELMDL= -5     # of ELM steps 
   EDIFF  = 0.1E-03   stopping-criterion for ELM
   LREAL  =      F    real-space projection
   NLSPLINE    = F    spline interpolate recip. space projectors
   LCOMPAT=      F    compatible to vasp.4.4
   GGA_COMPAT  = T    GGA compatible to vasp.4.4-vasp.4.6
   LMAXPAW     = -100 max onsite density
   LMAXMIX     =    2 max onsite mixed and CHGCAR
   VOSKOWN=      0    Vosko Wilk Nusair interpolation
   ROPT   =    0.00000   0.00000   0.00000   0.00000
   ROPT   =    0.00000
 Ionic relaxation
   EDIFFG = -.1E-01   stopping-criterion for IOM
   NSW    =      0    number of steps for IOM
   NBLOCK =      1;   KBLOCK =      1    inner block; outer block 
   IBRION =     -1    ionic relax: 0-MD 1-quasi-New 2-CG
   NFREE  =      0    steps in history (QN), initial steepest desc. (CG)
   ISIF   =      2    stress and relaxation
   IWAVPR =     10    prediction:  0-non 1-charg 2-wave 3-comb
   ISYM   =      0    0-nonsym 1-usesym 2-fastsym
   LCORR  =      T    Harris-Foulkes like correction to forces

   POTIM  = 0.5000    time-step for ionic-motion
   TEIN   =    0.0    initial temperature
   TEBEG  =    0.0;   TEEND  =   0.0 temperature during run
   SMASS  =  -3.00    Nose mass-parameter (am)
   estimated Nose-frequenzy (Omega)   =  0.10E-29 period in steps =****** mass=  -0.610E-26a.u.
   SCALEE = 1.0000    scale energy and forces
   NPACO  =    256;   APACO  = 16.0  distance and # of slots for P.C.
   PSTRESS=    0.0 pullay stress

  Mass of Ions in am
   POMASS =  12.01 14.00 72.61 12.01 16.00
  Ionic Valenz
   ZVAL   =   4.00  5.00 14.00  4.00  6.00
  Atomic Wigner-Seitz radii
   RWIGS  =  -1.00 -1.00 -1.00 -1.00 -1.00
  virtual crystal weights 
   VCA    =   1.00  1.00  1.00  1.00  1.00
   NELECT =     280.0000    total number of electrons
   NUPDOWN=      -1.0000    fix difference up-down

 DOS related values:
   EMIN   = -14.00;   EMAX   =  6.00  energy-range for DOS
   EFERMI =   0.00
   ISMEAR =    -5;   SIGMA  =   0.20  broadening in eV -4-tet -1-fermi 0-gaus

 Electronic relaxation 2 (details)
   IALGO  =     38    algorithm
   LDIAG  =      T    sub-space diagonalisation (order eigenvalues)
   LSUBROT=      F    optimize rotation matrix (better conditioning)
   TURBO    =      0    0=normal 1=particle mesh
   IRESTART =      0    0=no restart 2=restart with 2 vectors
   NREBOOT  =      0    no. of reboots
   NMIN     =      0    reboot dimension
   EREF     =   0.00    reference energy to select bands
   IMIX   =      4    mixing-type and parameters
     AMIX     =   0.25;   BMIX     =  0.00
     AMIX_MAG =   1.00;   BMIX_MAG =  0.00
     AMIN     =   0.10
     WC   =   100.;   INIMIX=   1;  MIXPRE=   1;  MAXMIX= -45

 Intra band minimization:
   WEIMIN = 0.0000     energy-eigenvalue tresh-hold
   EBREAK =  0.15E-06  absolut break condition
   DEPER  =   0.30     relativ break condition  

   TIME   =   0.40     timestep for ELM

  volume/ion in A,a.u.               =      67.08       452.66
  Fermi-wavevector in a.u.,A,eV,Ry     =   0.677096  1.279526  6.237710  0.458459
  Thomas-Fermi vector in A             =   1.754603

 Write flags
   LWAVE        =      F    write WAVECAR
   LDOWNSAMPLE  =      F    k-point downsampling of WAVECAR
   LCHARG       =      F    write CHGCAR
   LVTOT        =      F    write LOCPOT, total local potential
   LVHAR        =      F    write LOCPOT, Hartree potential only
   LELF         =      F    write electronic localiz. function (ELF)
   LORBIT       =     11    0 simple, 1 ext, 2 COOP (PROOUT), +10 PAW based schemes


 Dipole corrections
   LMONO  =      F    monopole corrections only (constant potential shift)
   LDIPOL =      F    correct potential (dipole corrections)
   IDIPOL =      0    1-x, 2-y, 3-z, 4-all directions 
   EPSILON=  1.0000000 bulk dielectric constant

 Exchange correlation treatment:
   GGA     =    --    GGA type
   LEXCH   =     8    internal setting for exchange type
   VOSKOWN=      0    Vosko Wilk Nusair interpolation
   LHFCALC =     F    Hartree Fock is set to
   LHFONE  =     F    Hartree Fock one center treatment
   AEXX    =    0.0000 exact exchange contribution

 Linear response parameters
   LEPSILON=     F    determine dielectric tensor
   LRPA    =     F    only Hartree local field effects (RPA)
   LNABLA  =     F    use nabla operator in PAW spheres
   LVEL    =     F    velocity operator in full k-point grid
   LINTERFAST=   F  fast interpolation
   KINTER  =     0    interpolate to denser k-point grid
   CSHIFT  =0.1000    complex shift for real part using Kramers Kronig
   OMEGAMAX=  -1.0    maximum frequency
   DEG_THRESHOLD= 0.2000000E-02 threshold for treating states as degnerate
   RTIME   =   -0.100 relaxation time in fs
  (WPLASMAI=    0.000 imaginary part of plasma frequency in eV, 0.658/RTIME)
   DFIELD  = 0.0000000 0.0000000 0.0000000 field for delta impulse in time

 Orbital magnetization related:
   ORBITALMAG=     F  switch on orbital magnetization
   LCHIMAG   =     F  perturbation theory with respect to B field
   DQ        =  0.001000  dq finite difference perturbation B field
   LLRAUG    =     F  two centre corrections for induced B field



--------------------------------------------------------------------------------------------------------


 Static calculation
 charge density and potential will be updated during run
 spin polarized calculation
 Variant of blocked Davidson
 Davidson routine will perform the subspace rotation
 perform sub-space diagonalisation
    after iterative eigenvector-optimisation
 modified Broyden-mixing scheme, WC =      100.0
 initial mixing is a Kerker type mixing with AMIX =  0.2500 and BMIX =      0.0001
 Hartree-type preconditioning will be used
 using additional bands           32
 reciprocal scheme for non local part
 use partial core corrections
 calculate Harris-corrections to forces   (improved forces if not selfconsistent)
 use gradient corrections 
 use of overlap-Matrix (Vanderbilt PP)
 Fermi weights with tetrahedron method with Bloechl corrections


--------------------------------------------------------------------------------------------------------


  energy-cutoff  :      440.00
  volume of cell :     3957.60
      direct lattice vectors                 reciprocal lattice vectors
    16.335240597 -0.225073759  0.000000000     0.061720652  0.036528910 -0.000000000
    -8.167620299 13.800325373  0.000000000     0.001006621  0.073057821 -0.000000000
     0.000000000  0.000000000 17.700000000    -0.000000000 -0.000000000  0.056497175

  length of vectors
    16.336791103 16.036177903 17.700000000     0.071720291  0.073064755  0.056497175



 k-points in units of 2pi/SCALE and weight: K-Points                                
   0.00000000  0.00000000  0.00000000       0.111
   0.02427679  0.01436804  0.00000000       0.222
   0.00039594  0.02873608  0.00000000       0.222
   0.02467273  0.04310411  0.00000000       0.222
  -0.02388085  0.01436804  0.00000000       0.222

 k-points in reciprocal lattice and weights: K-Points                                
   0.00000000  0.00000000  0.00000000       0.111
   0.33333333  0.00000000  0.00000000       0.222
   0.00000000  0.33333333  0.00000000       0.222
   0.33333333  0.33333333  0.00000000       0.222
  -0.33333333  0.33333333  0.00000000       0.222

 position of ions in fractional coordinates (direct lattice) 
   0.07024317  0.13371024  0.45281867
   0.35096610  0.44241831  0.55791811
   0.12364358  0.47313921  0.45552957
   0.51717785  0.06431072  0.47662977
   0.45791237  0.43772646  0.48217931
   0.05823783  0.99399625  0.49750947
   0.03811570  0.69647312  0.52586875
   0.37331354  0.92578194  0.46114974
   0.03083071  0.84289044  0.53033848
   0.48022959  0.59034358  0.53507772
   0.49503283  0.89965391  0.48523176
   0.08245301  0.58192969  0.49237257
   0.66715496  0.19736245  0.50259872
   0.80657325  0.36327888  0.50046552
   0.57245764  0.45452114  0.40378729
   0.91744680  0.00557951  0.46785138
   0.96207549  0.41242479  0.46834288
   0.64920940  0.04534789  0.51641099
   0.61369714  0.73299293  0.50205162
   0.77319998  0.87862680  0.50353164
   0.62821278  0.89319790  0.51002961
   0.91776152  0.52978834  0.51472783
   0.89870346  0.85858805  0.52724032
   0.59790155  0.59715801  0.44734095
   0.12892910  0.22979219  0.43376216
   0.11528558  0.08855369  0.47785417
   0.42154954  0.01893277  0.45872105
   0.49130623  0.39463402  0.43785169
   0.37512008  0.38846108  0.52081381
   0.57330472  0.15853341  0.47971553
   0.09403609  0.93960789  0.51603054
   0.95769983  0.95283821  0.49690248
   0.07566851  0.79127929  0.53019894
   0.11143868  0.67236065  0.51365358
   0.39347256  0.53703116  0.56873745
   0.53404820  0.84587363  0.48948140
   0.39795010  0.85949465  0.47264239
   0.53495141  0.68641234  0.54490220
   0.15480146  0.56626183  0.47511071
   0.98969562  0.50894582  0.49013465
   0.71565948  0.29454323  0.50752199
   0.70372050  0.14124681  0.52366437
   0.82150417  0.96154534  0.46495608
   0.03791158  0.40137620  0.44846045
   0.87325823  0.34272355  0.46988951
   0.97458529  0.09652736  0.44391489
   0.68323961  0.98608369  0.52972928
   0.55177787  0.00128953  0.49247252
   0.67071481  0.83608751  0.50863387
   0.64577776  0.69390423  0.45223027
   0.82938443  0.45577210  0.52138785
   0.93551252  0.80367358  0.54334887
   0.80500740  0.82686681  0.53782763
   0.94573174  0.62308136  0.52862995
   0.62749495  0.54954584  0.40310060
   0.51192481  0.54113213  0.48861196
   0.25592740  0.70847002  0.53144543
   0.23250422  0.58405537  0.66267509
   0.25667656  0.56714468  0.71798397

 position of ions in cartesian coordinates  (Angst):
   0.05534464  1.82943485  8.01489052
   2.11961097  6.02652339  9.87515061
  -1.84467381  6.50164610  8.06287334
   7.92295903  0.77110574  8.43634696
   3.90492518  5.93770347  8.53457370
  -7.16725495 13.70436384  8.80591763
  -5.06589884  9.60297686  9.30787680
  -1.46326892 12.69206888  8.16235042
  -6.38078194 11.62522309  9.38699108
   3.02296375  8.03884636  9.47087567
   0.73844893 12.30409777  8.58860211
  -3.40609107  8.01226109  8.71499447
   9.28615518  2.57350699  8.89599730
  10.20844421  4.83182824  8.85823974
   5.63887723  6.14369443  7.14703510
  14.94114285 -0.12949415  8.28096940
  12.34720549  5.47505837  8.28966897
  10.23460738  0.47969558  9.14047448
   4.03808254  9.97741380  8.88631359
   5.45411763 11.95130871  8.91251008
   2.96670568 12.18502738  9.02752405
  10.66474522  7.10468748  9.11068264
   7.66791606 11.64651992  9.33215369
   4.88950570  8.10640292  7.91793481
   0.22923246  3.14218846  7.67759021
   1.15994466  1.19612203  8.45801877
   6.73147749  0.16639870  8.11936253
   4.80238463  5.33549774  7.74997498
   2.95487412  5.27645958  9.21840442
   8.07022989  2.05877682  8.49096480
  -6.13825829 12.94572949  9.13374060
   7.86183654 12.93392417  8.79517389
  -5.22680551 10.90288065  9.38452123
  -3.67120880  9.25371381  9.09166839
   2.04120231  7.32264440 10.06665282
   1.81503112 11.55313110  8.66382081
  -0.51941524 11.77173766  8.36577032
   3.13220452  9.35231016  9.64476887
  -2.09629251  7.77975569  8.40945958
  12.01003986  6.80086338  8.67538329
   9.28475248  3.90371626  8.98313921
  10.34179338  1.79086298  9.26885933
   5.56593098 13.08473950  8.22972270
  -2.65899354  5.53058922  7.93774996
  11.46564749  4.53314893  8.31704440
  15.13168629  1.11275544  7.85729364
   3.10692620 13.45449645  9.37620829
   9.00289183 -0.10639480  8.71676368
   4.12744248 11.38731932  9.00281958
   4.88138886  9.43075653  8.00447577
   9.82562065  6.10313066  9.22856501
   8.71772145 10.88039758  9.61727495
   6.39645543 11.22984491  9.51954910
  10.35966360  8.38586613  9.35675007
   5.76179917  7.44267877  7.13488053
   3.94265324  7.35257856  8.64843161
  -1.60587840  9.71951426  9.40658420
  -0.97233015  8.00782359 11.72934902
  -0.43934893  7.76900990 12.70831628



--------------------------------------------------------------------------------------------------------


 k-point  1 :   0.0000 0.0000 0.0000  plane waves:   82967
 k-point  2 :   0.3333 0.0000 0.0000  plane waves:   82995
 k-point  3 :   0.0000 0.3333 0.0000  plane waves:   82939
 k-point  4 :   0.3333 0.3333 0.0000  plane waves:   82990
 k-point  5 :  -0.3333 0.3333 0.0000  plane waves:   82938

 maximum and minimum number of plane-waves per node :      6944     6890

 maximum number of plane-waves:     82995
 maximum index in each direction: 
   IXMAX=   28   IYMAX=   27   IZMAX=   30
   IXMIN=  -28   IYMIN=  -27   IZMIN=  -30


 parallel 3D FFT for wavefunctions:
    minimum data exchange during FFTs selected (reduces bandwidth)
 parallel 3D FFT for charge:
    minimum data exchange during FFTs selected (reduces bandwidth)


 total amount of memory used by VASP MPI-rank0   133645. kBytes
=======================================================================

   base      :      30000. kBytes
   nonl-proj :      31462. kBytes
   fftplans  :       5963. kBytes
   grid      :      18071. kBytes
   one-center:        155. kBytes
   wavefun   :      47994. kBytes

     INWAV:  cpu time    0.0001: real time    0.0001
 Broyden mixing: mesh for mixing (old mesh)
   NGX = 55   NGY = 55   NGZ = 61
  (NGX  =168   NGY  =168   NGZ  =192)
  gives a total of 184525 points

 initial charge density was supplied:
 charge density of overlapping atoms calculated
 number of electron     280.0000000 magnetization       2.0000000
 keeping initial charge density in first step


--------------------------------------------------------------------------------------------------------


 Maximum index for augmentation-charges          288 (set IRDMAX)


--------------------------------------------------------------------------------------------------------


 First call to EWALD:  gamma=   0.112
 Maximum number of real-space cells 3x 3x 3
 Maximum number of reciprocal cells 3x 3x 3

    FEWALD:  cpu time    0.0199: real time    0.0199


--------------------------------------- Iteration      1(   1)  ---------------------------------------


    POTLOK:  cpu time    0.2858: real time    0.2942
    SETDIJ:  cpu time    0.0120: real time    0.0122
     EDDAV:  cpu time   22.5080: real time   22.5185
 BZINTS: Fermi energy:  7.044912;280.000000 electrons
         Band energy:***********;  BLOECHL correction: -0.017486
       DOS:  cpu time    0.0721: real time    0.0721
    --------------------------------------------
      LOOP:  cpu time   22.8779: real time   22.8970

 eigenvalue-minimisations  :  4272
 total energy-change (2. order) : 0.2652772E+04  (-0.9544672E+04)
 number of electron     280.0000000 magnetization       2.0000000
 augmentation part      280.0000000 magnetization       2.0000000

 Free energy of the ion-electron system (eV)
  ---------------------------------------------------
  alpha Z        PSCENC =        94.15302032
  Ewald energy   TEWEN  =     29298.91997591
  -Hartree energ DENC   =    -40960.54527105
  -exchange      EXHF   =         0.00000000
  -V(xc)+E(xc)   XCENC  =      1058.51208807
  PAW double counting   =     11453.83848114   -11942.90478952
  entropy T*S    EENTRO =         0.00000000
  eigenvalues    EBANDS =     -1520.93746013
  atomic energy  EATOM  =     15171.73615219
  Solvation  Ediel_sol  =         0.00000000
  ---------------------------------------------------
  free energy    TOTEN  =      2652.77219693 eV

  energy without entropy =     2652.77219693  energy(sigma->0) =     2652.77219693


--------------------------------------------------------------------------------------------------------




--------------------------------------- Iteration      1(   2)  ---------------------------------------


     EDDAV:  cpu time   25.8096: real time   25.8194
 BZINTS: Fermi energy: -0.616576;280.000000 electrons
         Band energy:***********;  BLOECHL correction:  0.000000
       DOS:  cpu time    0.0170: real time    0.0170
    --------------------------------------------
      LOOP:  cpu time   25.8266: real time   25.8364

 eigenvalue-minimisations  :  5084
 total energy-change (2. order) :-0.2430388E+04  (-0.2310689E+04)
 number of electron     280.0000000 magnetization       2.0000000
 augmentation part      280.0000000 magnetization       2.0000000

 Free energy of the ion-electron system (eV)
  ---------------------------------------------------
  alpha Z        PSCENC =        94.15302032
  Ewald energy   TEWEN  =     29298.91997591
  -Hartree energ DENC   =    -40960.54527105
  -exchange      EXHF   =         0.00000000
  -V(xc)+E(xc)   XCENC  =      1058.51208807
  PAW double counting   =     11453.83848114   -11942.90478952
  entropy T*S    EENTRO =         0.00000000
  eigenvalues    EBANDS =     -3951.32502659
  atomic energy  EATOM  =     15171.73615219
  Solvation  Ediel_sol  =         0.00000000
  ---------------------------------------------------
  free energy    TOTEN  =       222.38463046 eV

  energy without entropy =      222.38463046  energy(sigma->0) =      222.38463046


--------------------------------------------------------------------------------------------------------




--------------------------------------- Iteration      1(   3)  ---------------------------------------


     EDDAV:  cpu time   22.2124: real time   22.2148
 BZINTS: Fermi energy: -5.701675;280.000000 electrons
         Band energy:***********;  BLOECHL correction:  0.000000
       DOS:  cpu time    0.0174: real time    0.0174
    --------------------------------------------
      LOOP:  cpu time   22.2297: real time   22.2321

 eigenvalue-minimisations  :  4144
 total energy-change (2. order) :-0.7001819E+03  (-0.6930088E+03)
 number of electron     280.0000000 magnetization       2.0000000
 augmentation part      280.0000000 magnetization       2.0000000

 Free energy of the ion-electron system (eV)
  ---------------------------------------------------
  alpha Z        PSCENC =        94.15302032
  Ewald energy   TEWEN  =     29298.91997591
  -Hartree energ DENC   =    -40960.54527105
  -exchange      EXHF   =         0.00000000
  -V(xc)+E(xc)   XCENC  =      1058.51208807
  PAW double counting   =     11453.83848114   -11942.90478952
  entropy T*S    EENTRO =         0.00000000
  eigenvalues    EBANDS =     -4651.50693162
  atomic energy  EATOM  =     15171.73615219
  Solvation  Ediel_sol  =         0.00000000
  ---------------------------------------------------
  free energy    TOTEN  =      -477.79727456 eV

  energy without entropy =     -477.79727456  energy(sigma->0) =     -477.79727456


--------------------------------------------------------------------------------------------------------




--------------------------------------- Iteration      1(   4)  ---------------------------------------


     EDDAV:  cpu time   22.8887: real time   22.8937
 BZINTS: Fermi energy: -6.111778;280.000000 electrons
         Band energy:***********;  BLOECHL correction:  0.000000
       DOS:  cpu time    0.0177: real time    0.0177
    --------------------------------------------
      LOOP:  cpu time   22.9064: real time   22.9115

 eigenvalue-minimisations  :  4192
 total energy-change (2. order) :-0.3771461E+02  (-0.3671516E+02)
 number of electron     280.0000000 magnetization       2.0000000
 augmentation part      280.0000000 magnetization       2.0000000

 Free energy of the ion-electron system (eV)
  ---------------------------------------------------
  alpha Z        PSCENC =        94.15302032
  Ewald energy   TEWEN  =     29298.91997591
  -Hartree energ DENC   =    -40960.54527105
  -exchange      EXHF   =         0.00000000
  -V(xc)+E(xc)   XCENC  =      1058.51208807
  PAW double counting   =     11453.83848114   -11942.90478952
  entropy T*S    EENTRO =         0.00000000
  eigenvalues    EBANDS =     -4689.22154136
  atomic energy  EATOM  =     15171.73615219
  Solvation  Ediel_sol  =         0.00000000
  ---------------------------------------------------
  free energy    TOTEN  =      -515.51188430 eV

  energy without entropy =     -515.51188430  energy(sigma->0) =     -515.51188430


--------------------------------------------------------------------------------------------------------




--------------------------------------- Iteration      1(   5)  ---------------------------------------


     EDDAV:  cpu time   24.7955: real time   24.8082
 BZINTS: Fermi energy: -6.135534;280.000000 electrons
         Band energy:***********;  BLOECHL correction:  0.000000
       DOS:  cpu time    0.0175: real time    0.0175
    CHARGE:  cpu time    0.6814: real time    0.6815
    MIXING:  cpu time    0.0062: real time    0.0063
    --------------------------------------------
      LOOP:  cpu time   25.5007: real time   25.5136

 eigenvalue-minimisations  :  4864
 total energy-change (2. order) :-0.1508886E+01  (-0.1488873E+01)
 number of electron     279.9999929 magnetization       0.0000000
 augmentation part       20.1250806 magnetization       0.0293154

 Broyden mixing:
  rms(total) = 0.42410E+01    rms(broyden)= 0.42379E+01
  rms(prec ) = 0.46453E+01
  weight for this iteration     100.00

 Free energy of the ion-electron system (eV)
  ---------------------------------------------------
  alpha Z        PSCENC =        94.15302032
  Ewald energy   TEWEN  =     29298.91997591
  -Hartree energ DENC   =    -40960.54527105
  -exchange      EXHF   =         0.00000000
  -V(xc)+E(xc)   XCENC  =      1058.51208807
  PAW double counting   =     11453.83848114   -11942.90478952
  entropy T*S    EENTRO =         0.00000000
  eigenvalues    EBANDS =     -4690.73042715
  atomic energy  EATOM  =     15171.73615219
  Solvation  Ediel_sol  =         0.00000000
  ---------------------------------------------------
  free energy    TOTEN  =      -517.02077010 eV

  energy without entropy =     -517.02077010  energy(sigma->0) =     -517.02077010


--------------------------------------------------------------------------------------------------------




--------------------------------------- Iteration      1(   6)  ---------------------------------------


    POTLOK:  cpu time    0.2422: real time    0.2428
    SETDIJ:  cpu time    0.0122: real time    0.0122
     EDDAV:  cpu time   23.2080: real time   23.2099
 BZINTS: Fermi energy: -5.110278;280.000000 electrons
         Band energy:***********;  BLOECHL correction:  0.000000
       DOS:  cpu time    0.0173: real time    0.0173
    CHARGE:  cpu time    0.6608: real time    0.6609
    MIXING:  cpu time    0.0066: real time    0.0103
    --------------------------------------------
      LOOP:  cpu time   24.1472: real time   24.1534

 eigenvalue-minimisations  :  4464
 total energy-change (2. order) : 0.1561629E+02  (-0.2827283E+02)
 number of electron     279.9999927 magnetization      -0.0000000
 augmentation part       18.6300955 magnetization       0.0087212

 Broyden mixing:
  rms(total) = 0.34792E+01    rms(broyden)= 0.34778E+01
  rms(prec ) = 0.41281E+01
  weight for this iteration     100.00

 eigenvalues of (default mixing * dielectric matrix)
  average eigenvalue GAMMA=   0.7254
  0.7254

 Free energy of the ion-electron system (eV)
  ---------------------------------------------------
  alpha Z        PSCENC =        94.15302032
  Ewald energy   TEWEN  =     29298.91997591
  -Hartree energ DENC   =    -41244.75270789
  -exchange      EXHF   =         0.00000000
  -V(xc)+E(xc)   XCENC  =      1074.11405697
  PAW double counting   =     14875.12332056   -15365.89722909
  entropy T*S    EENTRO =         0.00000000
  eigenvalues    EBANDS =     -4404.80106460
  atomic energy  EATOM  =     15171.73615219
  Solvation  Ediel_sol  =         0.00000000
  ---------------------------------------------------
  free energy    TOTEN  =      -501.40447563 eV

  energy without entropy =     -501.40447563  energy(sigma->0) =     -501.40447563


--------------------------------------------------------------------------------------------------------




--------------------------------------- Iteration      1(   7)  ---------------------------------------


    POTLOK:  cpu time    0.2338: real time    0.2350
    SETDIJ:  cpu time    0.0116: real time    0.0116
     EDDAV:  cpu time   22.8127: real time   22.8158
 BZINTS: Fermi energy: -5.115279;280.000000 electrons
         Band energy:***********;  BLOECHL correction:  0.000000
       DOS:  cpu time    0.0177: real time    0.0177
    CHARGE:  cpu time    0.6880: real time    0.6880
    MIXING:  cpu time    0.0062: real time    0.0066
    --------------------------------------------
      LOOP:  cpu time   23.7699: real time   23.7748

 eigenvalue-minimisations  :  4368
 total energy-change (2. order) : 0.9537080E+01  (-0.1736645E+02)
 number of electron     279.9999934 magnetization      -0.0000001
 augmentation part       18.9046903 magnetization       0.0056330

 Broyden mixing:
  rms(total) = 0.25767E+01    rms(broyden)= 0.25752E+01
  rms(prec ) = 0.29133E+01
  weight for this iteration     100.00

 eigenvalues of (default mixing * dielectric matrix)
  average eigenvalue GAMMA=   0.8842
  1.3902  0.3782

 Free energy of the ion-electron system (eV)
  ---------------------------------------------------
  alpha Z        PSCENC =        94.15302032
  Ewald energy   TEWEN  =     29298.91997591
  -Hartree energ DENC   =    -41363.83652701
  -exchange      EXHF   =         0.00000000
  -V(xc)+E(xc)   XCENC  =      1078.44018473
  PAW double counting   =     16590.42595755   -17082.17135383
  entropy T*S    EENTRO =         0.00000000
  eigenvalues    EBANDS =     -4279.53480522
  atomic energy  EATOM  =     15171.73615219
  Solvation  Ediel_sol  =         0.00000000
  ---------------------------------------------------
  free energy    TOTEN  =      -491.86739536 eV

  energy without entropy =     -491.86739536  energy(sigma->0) =     -491.86739536


--------------------------------------------------------------------------------------------------------




--------------------------------------- Iteration      1(   8)  ---------------------------------------


    POTLOK:  cpu time    0.2447: real time    0.2451
    SETDIJ:  cpu time    0.0121: real time    0.0121
     EDDAV:  cpu time   21.9247: real time   21.9301
 BZINTS: Fermi energy: -5.116529;280.000000 electrons
         Band energy:***********;  BLOECHL correction:  0.000000
       DOS:  cpu time    0.0176: real time    0.0176
    CHARGE:  cpu time    0.6540: real time    0.6541
    MIXING:  cpu time    0.0062: real time    0.0062
    --------------------------------------------
      LOOP:  cpu time   22.8594: real time   22.8652

 eigenvalue-minimisations  :  4152
 total energy-change (2. order) : 0.2634526E+01  (-0.1067149E+02)
 number of electron     279.9999947 magnetization      -0.0000000
 augmentation part       18.3127695 magnetization       0.0004445

 Broyden mixing:
  rms(total) = 0.24963E+01    rms(broyden)= 0.24948E+01
  rms(prec ) = 0.32187E+01
  weight for this iteration     100.00

 eigenvalues of (default mixing * dielectric matrix)
  average eigenvalue GAMMA=   0.7748
  1.5641  0.3801  0.3801

 Free energy of the ion-electron system (eV)
  ---------------------------------------------------
  alpha Z        PSCENC =        94.15302032
  Ewald energy   TEWEN  =     29298.91997591
  -Hartree energ DENC   =    -41533.33360109
  -exchange      EXHF   =         0.00000000
  -V(xc)+E(xc)   XCENC  =      1085.84031130
  PAW double counting   =     19926.32962260   -20420.31390373
  entropy T*S    EENTRO =         0.00000000
  eigenvalues    EBANDS =     -4112.56444665
  atomic energy  EATOM  =     15171.73615219
  Solvation  Ediel_sol  =         0.00000000
  ---------------------------------------------------
  free energy    TOTEN  =      -489.23286915 eV

  energy without entropy =     -489.23286915  energy(sigma->0) =     -489.23286915


--------------------------------------------------------------------------------------------------------




--------------------------------------- Iteration      1(   9)  ---------------------------------------


    POTLOK:  cpu time    0.2438: real time    0.2442
    SETDIJ:  cpu time    0.0118: real time    0.0118
     EDDAV:  cpu time   21.7528: real time   21.7571
 BZINTS: Fermi energy: -4.291323;280.000000 electrons
         Band energy:***********;  BLOECHL correction:  0.000000
       DOS:  cpu time    0.0176: real time    0.0176
    CHARGE:  cpu time    0.6707: real time    0.6707
    MIXING:  cpu time    0.0069: real time    0.0069
    --------------------------------------------
      LOOP:  cpu time   22.7036: real time   22.7084

 eigenvalue-minimisations  :  4096
 total energy-change (2. order) : 0.7933224E+01  (-0.1188877E+02)
 number of electron     279.9999933 magnetization      -0.0000000
 augmentation part       18.5041961 magnetization      -0.0002112

 Broyden mixing:
  rms(total) = 0.17328E+01    rms(broyden)= 0.17317E+01
  rms(prec ) = 0.20179E+01
  weight for this iteration     100.00

 eigenvalues of (default mixing * dielectric matrix)
  average eigenvalue GAMMA=   0.8450
  2.0002  0.5388  0.5388  0.3024

 Free energy of the ion-electron system (eV)
  ---------------------------------------------------
  alpha Z        PSCENC =        94.15302032
  Ewald energy   TEWEN  =     29298.91997591
  -Hartree energ DENC   =    -41560.75920583
  -exchange      EXHF   =         0.00000000
  -V(xc)+E(xc)   XCENC  =      1087.86014038
  PAW double counting   =     21263.20753857   -21757.94305585
  entropy T*S    EENTRO =         0.00000000
  eigenvalues    EBANDS =     -4078.47421057
  atomic energy  EATOM  =     15171.73615219
  Solvation  Ediel_sol  =         0.00000000
  ---------------------------------------------------
  free energy    TOTEN  =      -481.29964487 eV

  energy without entropy =     -481.29964487  energy(sigma->0) =     -481.29964487


--------------------------------------------------------------------------------------------------------




--------------------------------------- Iteration      1(  10)  ---------------------------------------


    POTLOK:  cpu time    0.2387: real time    0.2392
    SETDIJ:  cpu time    0.0120: real time    0.0120
     EDDAV:  cpu time   23.0269: real time   23.0326
 BZINTS: Fermi energy: -4.530133;280.000000 electrons
         Band energy:***********;  BLOECHL correction:  0.000000
       DOS:  cpu time    0.0174: real time    0.0174
    CHARGE:  cpu time    0.6438: real time    0.6438
    MIXING:  cpu time    0.0072: real time    0.0072
    --------------------------------------------
      LOOP:  cpu time   23.9460: real time   23.9522

 eigenvalue-minimisations  :  4368
 total energy-change (2. order) :-0.4165054E+01  (-0.1093620E+02)
 number of electron     279.9999932 magnetization       0.0000000
 augmentation part       18.0498443 magnetization      -0.0001875

 Broyden mixing:
  rms(total) = 0.18524E+01    rms(broyden)= 0.18490E+01
  rms(prec ) = 0.22696E+01
  weight for this iteration     100.00

 eigenvalues of (default mixing * dielectric matrix)
  average eigenvalue GAMMA=   0.9205
  2.5544  1.0325  0.3725  0.3725  0.2707

 Free energy of the ion-electron system (eV)
  ---------------------------------------------------
  alpha Z        PSCENC =        94.15302032
  Ewald energy   TEWEN  =     29298.91997591
  -Hartree energ DENC   =    -41632.43247826
  -exchange      EXHF   =         0.00000000
  -V(xc)+E(xc)   XCENC  =      1090.50378348
  PAW double counting   =     23342.52750024   -23838.69144054
  entropy T*S    EENTRO =         0.00000000
  eigenvalues    EBANDS =     -4012.18121217
  atomic energy  EATOM  =     15171.73615219
  Solvation  Ediel_sol  =         0.00000000
  ---------------------------------------------------
  free energy    TOTEN  =      -485.46469883 eV

  energy without entropy =     -485.46469883  energy(sigma->0) =     -485.46469883


--------------------------------------------------------------------------------------------------------




--------------------------------------- Iteration      1(  11)  ---------------------------------------


    POTLOK:  cpu time    0.2332: real time    0.2338
    SETDIJ:  cpu time    0.0111: real time    0.0111
     EDDAV:  cpu time   21.0212: real time   21.0231
 BZINTS: Fermi energy: -4.191298;280.000000 electrons
         Band energy:***********;  BLOECHL correction:  0.000000
       DOS:  cpu time    0.0164: real time    0.0164
    CHARGE:  cpu time    0.6929: real time    0.6946
    MIXING:  cpu time    0.0076: real time    0.0076
    --------------------------------------------
      LOOP:  cpu time   21.9824: real time   21.9867

 eigenvalue-minimisations  :  3856
 total energy-change (2. order) : 0.4514193E+01  (-0.9960083E+00)
 number of electron     279.9999932 magnetization       0.0000000
 augmentation part       18.1725840 magnetization      -0.0002485

 Broyden mixing:
  rms(total) = 0.11515E+01    rms(broyden)= 0.11499E+01
  rms(prec ) = 0.13474E+01
  weight for this iteration     100.00

 eigenvalues of (default mixing * dielectric matrix)
  average eigenvalue GAMMA=   0.9702
  2.9713  1.1662  0.6210  0.3969  0.3969  0.2687

 Free energy of the ion-electron system (eV)
  ---------------------------------------------------
  alpha Z        PSCENC =        94.15302032
  Ewald energy   TEWEN  =     29298.91997591
  -Hartree energ DENC   =    -41660.13540199
  -exchange      EXHF   =         0.00000000
  -V(xc)+E(xc)   XCENC  =      1091.96325476
  PAW double counting   =     25504.08948551   -26001.77019142
  entropy T*S    EENTRO =         0.00000000
  eigenvalues    EBANDS =     -3979.90680116
  atomic energy  EATOM  =     15171.73615219
  Solvation  Ediel_sol  =         0.00000000
  ---------------------------------------------------
  free energy    TOTEN  =      -480.95050588 eV

  energy without entropy =     -480.95050588  energy(sigma->0) =     -480.95050588


--------------------------------------------------------------------------------------------------------




--------------------------------------- Iteration      1(  12)  ---------------------------------------


    POTLOK:  cpu time    0.2420: real time    0.2425
    SETDIJ:  cpu time    0.0121: real time    0.0121
     EDDAV:  cpu time   23.9499: real time   23.9545
 BZINTS: Fermi energy: -4.196299;280.000000 electrons
         Band energy:***********;  BLOECHL correction:  0.000000
       DOS:  cpu time    0.0180: real time    0.0180
    CHARGE:  cpu time    0.6489: real time    0.6490
    MIXING:  cpu time    0.0083: real time    0.0083
    --------------------------------------------
      LOOP:  cpu time   24.8795: real time   24.8846

 eigenvalue-minimisations  :  4600
 total energy-change (2. order) :-0.1215250E+01  (-0.2317957E+01)
 number of electron     279.9999931 magnetization       0.0000000
 augmentation part       18.0457065 magnetization      -0.0003864

 Broyden mixing:
  rms(total) = 0.13427E+01    rms(broyden)= 0.13413E+01
  rms(prec ) = 0.17370E+01
  weight for this iteration     100.00

 eigenvalues of (default mixing * dielectric matrix)
  average eigenvalue GAMMA=   0.9356
  3.2230  1.2921  0.4878  0.4878  0.3963  0.3963  0.2657

 Free energy of the ion-electron system (eV)
  ---------------------------------------------------
  alpha Z        PSCENC =        94.15302032
  Ewald energy   TEWEN  =     29298.91997591
  -Hartree energ DENC   =    -41671.00830471
  -exchange      EXHF   =         0.00000000
  -V(xc)+E(xc)   XCENC  =      1092.52926496
  PAW double counting   =     27162.53834370   -27660.99584939
  entropy T*S    EENTRO =         0.00000000
  eigenvalues    EBANDS =     -3970.03835886
  atomic energy  EATOM  =     15171.73615219
  Solvation  Ediel_sol  =         0.00000000
  ---------------------------------------------------
  free energy    TOTEN  =      -482.16575589 eV

  energy without entropy =     -482.16575589  energy(sigma->0) =     -482.16575589


--------------------------------------------------------------------------------------------------------




--------------------------------------- Iteration      1(  13)  ---------------------------------------


    POTLOK:  cpu time    0.2377: real time    0.2384
    SETDIJ:  cpu time    0.0113: real time    0.0113
     EDDAV:  cpu time   22.5445: real time   22.5462
 BZINTS: Fermi energy: -4.186297;280.000000 electrons
         Band energy:***********;  BLOECHL correction:  0.000000
       DOS:  cpu time    0.0168: real time    0.0168
    CHARGE:  cpu time    0.6495: real time    0.6495
    MIXING:  cpu time    0.0090: real time    0.0090
    --------------------------------------------
      LOOP:  cpu time   23.4686: real time   23.4710

 eigenvalue-minimisations  :  4256
 total energy-change (2. order) : 0.1871666E+01  (-0.1573986E+01)
 number of electron     279.9999932 magnetization       0.0000000
 augmentation part       18.2341591 magnetization      -0.0002203

 Broyden mixing:
  rms(total) = 0.10232E+01    rms(broyden)= 0.10210E+01
  rms(prec ) = 0.12664E+01
  weight for this iteration     100.00

 eigenvalues of (default mixing * dielectric matrix)
  average eigenvalue GAMMA=   0.9354
  3.3445  1.3540  0.8194  0.7480  0.3797  0.3797  0.2656  0.1921

 Free energy of the ion-electron system (eV)
  ---------------------------------------------------
  alpha Z        PSCENC =        94.15302032
  Ewald energy   TEWEN  =     29298.91997591
  -Hartree energ DENC   =    -41669.07365490
  -exchange      EXHF   =         0.00000000
  -V(xc)+E(xc)   XCENC  =      1092.54780800
  PAW double counting   =     27931.41937569   -28430.18469704
  entropy T*S    EENTRO =         0.00000000
  eigenvalues    EBANDS =     -3969.81207039
  atomic energy  EATOM  =     15171.73615219
  Solvation  Ediel_sol  =         0.00000000
  ---------------------------------------------------
  free energy    TOTEN  =      -480.29409022 eV

  energy without entropy =     -480.29409022  energy(sigma->0) =     -480.29409022


--------------------------------------------------------------------------------------------------------




--------------------------------------- Iteration      1(  14)  ---------------------------------------


    POTLOK:  cpu time    0.2389: real time    0.2396
    SETDIJ:  cpu time    0.0116: real time    0.0116
     EDDAV:  cpu time   23.1368: real time   23.1431
 BZINTS: Fermi energy: -4.291323;280.000000 electrons
         Band energy:***********;  BLOECHL correction:  0.000000
       DOS:  cpu time    0.0163: real time    0.0163
    CHARGE:  cpu time    0.6762: real time    0.6763
    MIXING:  cpu time    0.0094: real time    0.0094
    --------------------------------------------
      LOOP:  cpu time   24.0892: real time   24.0962

 eigenvalue-minimisations  :  4392
 total energy-change (2. order) :-0.1440357E+01  (-0.3122742E+01)
 number of electron     279.9999936 magnetization      -0.0000000
 augmentation part       18.3810551 magnetization      -0.0000871

 Broyden mixing:
  rms(total) = 0.11678E+01    rms(broyden)= 0.11629E+01
  rms(prec ) = 0.14773E+01
  weight for this iteration     100.00

 eigenvalues of (default mixing * dielectric matrix)
  average eigenvalue GAMMA=   0.9260
  3.6735  1.3112  1.3112  0.3918  0.3918  0.3989  0.3989  0.2646  0.1920

 Free energy of the ion-electron system (eV)
  ---------------------------------------------------
  alpha Z        PSCENC =        94.15302032
  Ewald energy   TEWEN  =     29298.91997591
  -Hartree energ DENC   =    -41666.57140511
  -exchange      EXHF   =         0.00000000
  -V(xc)+E(xc)   XCENC  =      1092.33156797
  PAW double counting   =     28446.54785384   -28945.38675051
  entropy T*S    EENTRO =         0.00000000
  eigenvalues    EBANDS =     -3973.46486159
  atomic energy  EATOM  =     15171.73615219
  Solvation  Ediel_sol  =         0.00000000
  ---------------------------------------------------
  free energy    TOTEN  =      -481.73444697 eV

  energy without entropy =     -481.73444697  energy(sigma->0) =     -481.73444697


--------------------------------------------------------------------------------------------------------




--------------------------------------- Iteration      1(  15)  ---------------------------------------


    POTLOK:  cpu time    0.2672: real time    0.2676
    SETDIJ:  cpu time    0.0164: real time    0.0164
     EDDAV:  cpu time   21.6153: real time   21.6169
 BZINTS: Fermi energy: -4.281320;280.000000 electrons
         Band energy:***********;  BLOECHL correction:  0.000000
       DOS:  cpu time    0.0172: real time    0.0172
    CHARGE:  cpu time    0.6509: real time    0.6510
    MIXING:  cpu time    0.0097: real time    0.0097
    --------------------------------------------
      LOOP:  cpu time   22.5767: real time   22.5787

 eigenvalue-minimisations  :  3976
 total energy-change (2. order) : 0.1546107E+01  (-0.4051206E+00)
 number of electron     279.9999935 magnetization       0.0000000
 augmentation part       18.3763657 magnetization      -0.0007494

 Broyden mixing:
  rms(total) = 0.10804E+01    rms(broyden)= 0.10799E+01
  rms(prec ) = 0.13901E+01
  weight for this iteration     100.00

 eigenvalues of (default mixing * dielectric matrix)
  average eigenvalue GAMMA=   0.8825
  3.7479  1.4207  0.9261  0.5238  0.5238  0.5186  0.3554  0.3554  0.2730  0.1806

 Free energy of the ion-electron system (eV)
  ---------------------------------------------------
  alpha Z        PSCENC =        94.15302032
  Ewald energy   TEWEN  =     29298.91997591
  -Hartree energ DENC   =    -41663.60843236
  -exchange      EXHF   =         0.00000000
  -V(xc)+E(xc)   XCENC  =      1092.53114244
  PAW double counting   =     29110.76248378   -29609.68536364
  entropy T*S    EENTRO =         0.00000000
  eigenvalues    EBANDS =     -3974.99731911
  atomic energy  EATOM  =     15171.73615219
  Solvation  Ediel_sol  =         0.00000000
  ---------------------------------------------------
  free energy    TOTEN  =      -480.18834047 eV

  energy without entropy =     -480.18834047  energy(sigma->0) =     -480.18834047


--------------------------------------------------------------------------------------------------------




--------------------------------------- Iteration      1(  16)  ---------------------------------------


    POTLOK:  cpu time    0.2380: real time    0.2387
    SETDIJ:  cpu time    0.0113: real time    0.0113
     EDDAV:  cpu time   22.0569: real time   22.0614
 BZINTS: Fermi energy: -4.266317;280.000000 electrons
         Band energy:***********;  BLOECHL correction:  0.000000
       DOS:  cpu time    0.0161: real time    0.0161
    CHARGE:  cpu time    0.6792: real time    0.6793
    MIXING:  cpu time    0.0105: real time    0.0105
    --------------------------------------------
      LOOP:  cpu time   23.0121: real time   23.0173

 eigenvalue-minimisations  :  4152
 total energy-change (2. order) : 0.7459158E+00  (-0.9205945E+00)
 number of electron     279.9999933 magnetization       0.0000000
 augmentation part       18.1805813 magnetization       0.0001957

 Broyden mixing:
  rms(total) = 0.71706E+00    rms(broyden)= 0.70890E+00
  rms(prec ) = 0.89416E+00
  weight for this iteration     100.00

 eigenvalues of (default mixing * dielectric matrix)
  average eigenvalue GAMMA=   0.8847
  3.7536  1.4901  1.1722  0.9139  0.4493  0.4493  0.3692  0.3692  0.3032  0.2788
  0.1831

 Free energy of the ion-electron system (eV)
  ---------------------------------------------------
  alpha Z        PSCENC =        94.15302032
  Ewald energy   TEWEN  =     29298.91997591
  -Hartree energ DENC   =    -41663.06068190
  -exchange      EXHF   =         0.00000000
  -V(xc)+E(xc)   XCENC  =      1092.48991948
  PAW double counting   =     29224.16428128   -29723.14329042
  entropy T*S    EENTRO =         0.00000000
  eigenvalues    EBANDS =     -3974.70180158
  atomic energy  EATOM  =     15171.73615219
  Solvation  Ediel_sol  =         0.00000000
  ---------------------------------------------------
  free energy    TOTEN  =      -479.44242471 eV

  energy without entropy =     -479.44242471  energy(sigma->0) =     -479.44242471


--------------------------------------------------------------------------------------------------------




--------------------------------------- Iteration      1(  17)  ---------------------------------------


    POTLOK:  cpu time    0.2640: real time    0.2644
    SETDIJ:  cpu time    0.0118: real time    0.0118
     EDDAV:  cpu time   21.3955: real time   21.4019
 BZINTS: Fermi energy: -4.240060;280.000000 electrons
         Band energy:***********;  BLOECHL correction:  0.000000
       DOS:  cpu time    0.0166: real time    0.0166
    CHARGE:  cpu time    0.6528: real time    0.6529
    MIXING:  cpu time    0.0111: real time    0.0111
    --------------------------------------------
      LOOP:  cpu time   22.3518: real time   22.3588

 eigenvalue-minimisations  :  4000
 total energy-change (2. order) :-0.1590463E-01  (-0.4876265E+00)
 number of electron     279.9999934 magnetization      -0.0000000
 augmentation part       18.2047461 magnetization       0.0010790

 Broyden mixing:
  rms(total) = 0.65662E+00    rms(broyden)= 0.65533E+00
  rms(prec ) = 0.81319E+00
  weight for this iteration     100.00

 eigenvalues of (default mixing * dielectric matrix)
  average eigenvalue GAMMA=   0.8511
  3.7213  1.7186  1.2631  0.8642  0.4233  0.4233  0.3855  0.3855  0.2686  0.2896
  0.2896  0.1806

 Free energy of the ion-electron system (eV)
  ---------------------------------------------------
  alpha Z        PSCENC =        94.15302032
  Ewald energy   TEWEN  =     29298.91997591
  -Hartree energ DENC   =    -41653.91677888
  -exchange      EXHF   =         0.00000000
  -V(xc)+E(xc)   XCENC  =      1092.16298796
  PAW double counting   =     29327.45378655   -29826.22189746
  entropy T*S    EENTRO =         0.00000000
  eigenvalues    EBANDS =     -3983.74557593
  atomic energy  EATOM  =     15171.73615219
  Solvation  Ediel_sol  =         0.00000000
  ---------------------------------------------------
  free energy    TOTEN  =      -479.45832934 eV

  energy without entropy =     -479.45832934  energy(sigma->0) =     -479.45832934


--------------------------------------------------------------------------------------------------------




--------------------------------------- Iteration      1(  18)  ---------------------------------------


    POTLOK:  cpu time    0.2357: real time    0.2437
    SETDIJ:  cpu time    0.0122: real time    0.0122
     EDDAV:  cpu time   22.2765: real time   22.2819
 BZINTS: Fermi energy: -4.390098;280.000000 electrons
         Band energy:***********;  BLOECHL correction:  0.000000
       DOS:  cpu time    0.0160: real time    0.0160
    CHARGE:  cpu time    0.6752: real time    0.6752
    MIXING:  cpu time    0.0113: real time    0.0113
    --------------------------------------------
      LOOP:  cpu time   23.2267: real time   23.2401

 eigenvalue-minimisations  :  4192
 total energy-change (2. order) :-0.1966551E+00  (-0.6197931E+00)
 number of electron     279.9999936 magnetization      -0.0000000
 augmentation part       18.3340797 magnetization       0.0020433

 Broyden mixing:
  rms(total) = 0.99439E+00    rms(broyden)= 0.98945E+00
  rms(prec ) = 0.12662E+01
  weight for this iteration     100.00

 eigenvalues of (default mixing * dielectric matrix)
  average eigenvalue GAMMA=   0.7867
  3.7212  1.7148  1.2570  0.8631  0.4259  0.4259  0.3909  0.3909  0.2680  0.2801
  0.2801  0.1802  0.0289

 Free energy of the ion-electron system (eV)
  ---------------------------------------------------
  alpha Z        PSCENC =        94.15302032
  Ewald energy   TEWEN  =     29298.91997591
  -Hartree energ DENC   =    -41649.78405213
  -exchange      EXHF   =         0.00000000
  -V(xc)+E(xc)   XCENC  =      1091.95933331
  PAW double counting   =     29358.00651725   -29856.68873559
  entropy T*S    EENTRO =         0.00000000
  eigenvalues    EBANDS =     -3987.95719571
  atomic energy  EATOM  =     15171.73615219
  Solvation  Ediel_sol  =         0.00000000
  ---------------------------------------------------
  free energy    TOTEN  =      -479.65498445 eV

  energy without entropy =     -479.65498445  energy(sigma->0) =     -479.65498445


--------------------------------------------------------------------------------------------------------




--------------------------------------- Iteration      1(  19)  ---------------------------------------


    POTLOK:  cpu time    0.2376: real time    0.2381
    SETDIJ:  cpu time    0.0119: real time    0.0119
     EDDAV:  cpu time   21.4553: real time   21.4571
 BZINTS: Fermi energy: -4.245061;280.000000 electrons
         Band energy:***********;  BLOECHL correction:  0.000000
       DOS:  cpu time    0.0161: real time    0.0161
    CHARGE:  cpu time    0.6791: real time    0.6791
    MIXING:  cpu time    0.0122: real time    0.0122
    --------------------------------------------
      LOOP:  cpu time   22.4122: real time   22.4145

 eigenvalue-minimisations  :  4000
 total energy-change (2. order) : 0.3971524E+00  (-0.2024672E+00)
 number of electron     279.9999933 magnetization       0.0000000
 augmentation part       18.1938706 magnetization       0.0007712

 Broyden mixing:
  rms(total) = 0.57365E+00    rms(broyden)= 0.56704E+00
  rms(prec ) = 0.67404E+00
  weight for this iteration     100.00

 eigenvalues of (default mixing * dielectric matrix)
  average eigenvalue GAMMA=   0.7628
  3.7102  1.7979  1.2539  0.8362  0.4881  0.4881  0.3856  0.3856  0.2540  0.2540
  0.2607  0.2120  0.1856  0.1666

 Free energy of the ion-electron system (eV)
  ---------------------------------------------------
  alpha Z        PSCENC =        94.15302032
  Ewald energy   TEWEN  =     29298.91997591
  -Hartree energ DENC   =    -41647.48980660
  -exchange      EXHF   =         0.00000000
  -V(xc)+E(xc)   XCENC  =      1091.90142941
  PAW double counting   =     29368.10276100   -29866.73782520
  entropy T*S    EENTRO =         0.00000000
  eigenvalues    EBANDS =     -3989.84353911
  atomic energy  EATOM  =     15171.73615219
  Solvation  Ediel_sol  =         0.00000000
  ---------------------------------------------------
  free energy    TOTEN  =      -479.25783207 eV

  energy without entropy =     -479.25783207  energy(sigma->0) =     -479.25783207


--------------------------------------------------------------------------------------------------------




--------------------------------------- Iteration      1(  20)  ---------------------------------------


    POTLOK:  cpu time    0.2346: real time    0.2429
    SETDIJ:  cpu time    0.0121: real time    0.0121
[...]
   -.936E+01 0.154E+03 0.247E+02   0.948E+01 -.158E+03 -.245E+02   -.424E-02 0.517E+01 0.214E+00   -.237E+00 -.262E+00 -.256E+00
   -.112E+03 -.859E+02 -.487E+01   0.115E+03 0.866E+02 0.533E+01   -.282E+01 -.211E+00 -.472E+00   -.494E+00 0.919E+00 -.260E+00
   0.362E+02 -.467E+02 -.580E+02   -.394E+02 0.486E+02 0.583E+02   0.339E+01 -.862E+00 -.290E+00   -.240E+00 -.414E+00 0.489E-01
   0.241E+03 0.143E+02 0.131E+03   -.253E+03 -.192E+02 -.133E+03   0.985E+01 0.403E+01 0.124E+01   0.133E+01 0.368E+00 0.192E+00
   -.610E+02 -.120E+02 -.765E+02   0.600E+02 0.127E+02 0.754E+02   0.124E+01 0.979E-01 0.893E+00   -.378E+00 -.155E-01 0.488E-01
   0.431E+02 0.409E+02 -.115E+03   -.449E+02 -.387E+02 0.117E+03   0.191E+01 -.115E+01 -.136E+01   0.354E-01 -.352E+00 -.117E+00
   0.534E+02 0.322E+02 0.525E+02   -.545E+02 -.349E+02 -.525E+02   -.230E+00 0.279E+01 -.180E+00   0.147E+01 -.116E+00 0.206E+00
   0.362E+01 0.210E+02 0.647E+02   -.295E+01 -.187E+02 -.649E+02   -.821E+00 -.138E+01 0.306E+00   0.836E-01 -.635E+00 -.696E-01
   0.410E+02 -.630E+02 -.181E+02   -.400E+02 0.621E+02 0.167E+02   -.131E+01 0.557E+00 0.145E+01   0.407E+00 0.491E+00 0.307E-01
   0.565E+02 0.265E+02 -.129E+02   -.556E+02 -.264E+02 0.141E+02   -.109E+01 -.734E-01 -.108E+01   0.217E+00 0.629E-01 -.645E-01
   -.167E+03 0.161E+03 0.278E+03   0.171E+03 -.165E+03 -.282E+03   -.492E+01 0.474E+01 0.430E+01   -.954E-01 -.102E+00 -.136E+00
   0.214E+02 -.854E+02 0.940E+02   -.236E+02 0.868E+02 -.945E+02   0.209E+01 -.144E+01 0.568E+00   0.171E+00 0.112E+01 -.365E+00
   -.461E+02 0.995E+02 0.101E+03   0.445E+02 -.103E+03 -.102E+03   0.819E+00 0.322E+01 0.729E+00   0.459E+00 -.302E+00 -.114E+00
   -.383E+02 -.694E+02 -.748E+02   0.399E+02 0.711E+02 0.756E+02   -.220E+01 -.195E+01 -.893E+00   0.688E+00 0.301E+00 0.916E-01
   -.690E+01 0.797E+01 -.120E+02   0.665E+01 -.985E+01 0.118E+02   0.965E-01 0.254E+01 0.169E+00   0.175E+00 -.200E+00 -.520E-01
   0.292E+01 -.175E+02 -.226E+02   0.112E+01 0.195E+02 0.224E+02   -.396E+01 -.169E+01 0.158E+00   0.157E+00 0.199E+00 -.106E+00
   -.564E+01 -.883E+01 -.389E+02   0.307E+01 0.110E+02 0.386E+02   0.217E+01 -.220E+01 0.329E+00   0.570E+00 -.412E-01 0.216E-01
   0.106E+03 0.274E+01 -.458E+02   -.109E+03 -.201E+01 0.471E+02   0.314E+01 -.139E+00 -.109E+01   0.331E-01 -.225E+00 -.489E-01
   -.223E+02 0.515E+02 -.995E+02   0.228E+02 -.542E+02 0.101E+03   -.178E+00 0.266E+01 -.119E+01   -.234E+00 0.198E+00 -.796E-01
   -.769E+02 0.299E+02 0.146E+03   0.787E+02 -.273E+02 -.146E+03   -.188E+01 -.129E+01 0.110E+01   0.186E-01 -.298E+00 -.136E+00
   -.643E+02 -.216E+03 0.185E+03   0.683E+02 0.244E+03 -.192E+03   -.386E+01 -.296E+02 0.778E+01   -.277E+00 0.115E+00 -.909E-01
   -.273E+03 -.186E+03 0.257E+02   0.303E+03 0.196E+03 -.229E+02   -.298E+02 -.139E+02 -.177E+01   -.893E+00 0.340E+01 -.102E+01
   0.304E+03 -.172E+03 0.157E+03   -.329E+03 0.190E+03 -.164E+03   0.249E+02 -.209E+02 0.756E+01   0.975E+00 0.251E+01 0.105E-01
   -.574E+02 0.328E+03 0.177E+03   0.576E+02 -.364E+03 -.179E+03   0.922E+00 0.354E+02 0.233E+01   -.240E+00 0.859E-01 -.276E+00
   0.383E+02 0.339E+03 -.854E+02   -.382E+02 -.374E+03 0.845E+02   0.352E-01 0.353E+02 0.183E+01   -.645E+00 -.530E+00 -.546E+00
   0.244E+03 -.196E+03 0.908E+02   -.270E+03 0.220E+03 -.980E+02   0.249E+02 -.254E+02 0.708E+01   0.545E+00 0.120E+01 0.110E+00
   -.276E+03 -.153E+03 -.573E+02   0.310E+03 0.163E+03 0.585E+02   -.340E+02 -.111E+02 -.106E+01   -.606E+00 0.704E+00 0.247E-02
   -.492E+02 -.508E+02 0.474E+01   0.498E+02 0.501E+02 -.467E+01   -.204E+00 -.668E+00 0.409E+00   -.294E+00 0.939E+00 -.348E+00
   -.113E+03 -.153E+03 -.848E+02   0.138E+03 0.172E+03 0.843E+02   -.243E+02 -.195E+02 0.407E+00   -.556E+00 -.296E+00 0.189E+00
   0.325E+02 -.166E+03 -.255E+02   -.248E+02 0.188E+03 0.277E+02   -.733E+01 -.205E+02 -.228E+01   -.247E+00 -.850E+00 0.845E-01
   0.175E+03 0.294E+02 -.287E+03   -.198E+03 -.135E+02 0.305E+03   0.231E+02 -.163E+02 -.176E+02   -.333E-01 -.520E+00 -.214E+00
   0.499E+02 0.176E+03 0.964E+02   -.502E+02 -.211E+03 -.103E+03   -.921E+00 0.345E+02 0.688E+01   0.108E+01 -.407E+00 0.445E-01
   0.908E+02 0.116E+03 0.140E+03   -.966E+02 -.141E+03 -.142E+03   0.324E+01 0.274E+02 0.157E+01   0.251E+01 -.178E+01 0.429E+00
   0.115E+03 -.340E+02 -.290E+03   -.136E+03 0.525E+02 0.313E+03   0.205E+02 -.185E+02 -.237E+02   0.207E+00 -.366E+00 -.208E-01
   -.208E+03 0.332E+02 0.178E+03   0.225E+03 -.165E+02 -.181E+03   -.168E+02 -.156E+02 0.273E+01   0.217E+00 -.111E+01 -.152E+00
   0.420E+02 0.542E+02 0.535E+02   -.476E+02 -.569E+02 -.538E+02   0.534E+01 0.300E+01 0.421E+00   0.225E+00 -.464E+00 -.104E+00
   0.197E+03 -.651E+02 -.703E+02   -.222E+03 0.746E+02 0.749E+02   0.252E+02 -.100E+02 -.458E+01   0.242E+00 0.380E+00 -.255E-01
   -.170E+03 -.134E+03 -.165E+03   0.199E+03 0.151E+03 0.176E+03   -.298E+02 -.167E+02 -.113E+02   0.652E+00 0.417E+00 0.315E-01
   0.111E+03 -.159E+03 0.233E+03   -.139E+03 0.174E+03 -.251E+03   0.270E+02 -.160E+02 0.179E+02   0.439E+00 0.663E+00 -.248E+00
   -.141E+03 0.259E+03 0.213E+03   0.146E+03 -.286E+03 -.223E+03   -.580E+01 0.287E+02 0.980E+01   0.953E+00 -.800E+00 -.161E+00
   -.381E+02 0.226E+03 0.154E+03   0.409E+02 -.260E+03 -.164E+03   -.334E+01 0.343E+02 0.993E+01   0.560E+00 -.611E-01 -.119E+00
   0.132E+03 -.214E+03 0.222E+03   -.158E+03 0.229E+03 -.235E+03   0.244E+02 -.183E+02 0.136E+02   0.107E+01 0.297E+01 -.525E+00
   -.154E+03 -.158E+03 -.210E+03   0.185E+03 0.171E+03 0.223E+03   -.311E+02 -.141E+02 -.137E+02   0.706E+00 0.188E+00 0.210E-01
   0.527E+02 -.550E+02 0.143E+02   -.538E+02 0.562E+02 -.144E+02   -.565E+00 -.169E+01 -.275E+00   0.152E+01 0.508E+00 0.310E+00
   -.832E+01 -.211E+02 -.560E+02   0.988E+01 0.224E+02 0.586E+02   -.218E+01 -.155E+01 -.259E+01   0.382E+00 -.498E-01 -.465E-01
   -.154E+03 -.437E+02 0.287E+03   0.176E+03 0.646E+02 -.307E+03   -.220E+02 -.211E+02 0.200E+02   0.805E-01 -.255E+00 -.111E+00
   0.273E+03 -.136E+00 -.143E+03   -.307E+03 0.265E+01 0.154E+03   0.336E+02 -.270E+01 -.115E+02   0.573E-01 -.548E-01 -.602E-01
   0.663E+01 0.197E+03 -.203E+03   -.914E+01 -.230E+03 0.215E+03   0.269E+01 0.330E+02 -.122E+02   -.279E+00 -.148E-01 0.226E-01
   -.302E+02 0.167E+03 -.267E+03   0.239E+02 -.196E+03 0.286E+03   0.655E+01 0.290E+02 -.187E+02   -.954E-01 0.131E+00 -.700E-01
   0.250E+03 -.252E+02 -.117E+03   -.283E+03 0.339E+02 0.125E+03   0.325E+02 -.881E+01 -.814E+01   -.164E+00 -.304E+00 -.138E-01
   -.227E+03 -.156E+02 0.361E+03   0.249E+03 0.333E+02 -.378E+03   -.221E+02 -.185E+02 0.173E+02   -.104E+00 -.463E+00 -.106E+00
   -.177E+02 0.925E+02 0.190E+02   0.181E+02 -.931E+02 -.187E+02   -.356E+00 0.512E+00 -.161E+00   -.515E-01 -.402E+00 -.215E+00
   -.193E+03 -.203E+03 -.284E+03   0.206E+03 0.213E+03 0.298E+03   -.136E+02 -.668E+01 -.151E+02   0.188E+00 -.387E+01 0.114E+01
   0.940E+02 0.706E+01 -.932E+02   -.106E+03 -.131E+01 0.708E+02   0.124E+02 -.538E+01 0.224E+02   0.673E-01 -.371E+00 0.914E-02
   -.913E+02 0.891E+02 -.546E+03   0.120E+03 -.102E+03 0.599E+03   -.290E+02 0.130E+02 -.527E+02   0.734E-01 -.371E+00 -.717E-02
 -----------------------------------------------------------------------------------------------
   -.698E+01 0.346E+02 0.485E+02   0.142E-12 -.426E-12 -.227E-12   -.705E+01 -.406E+02 -.438E+02   0.138E+02 0.585E+01 -.475E+01


 POSITION                                       TOTAL-FORCE (eV/Angst)
 -----------------------------------------------------------------------------------
      0.05534      1.82943      8.01489         0.118007      0.868826     -0.158423
      2.11961      6.02652      9.87515         0.209391      0.907916     -0.123701
     -1.84467      6.50165      8.06287         0.287658     -0.232524     -0.006700
      7.92296      0.77111      8.43635         0.227539      0.310011      0.022820
      3.90493      5.93770      8.53457        -0.120474      0.970161      0.122973
     -7.16725     13.70436      8.80592         0.183924      1.385854     -0.266108
     -5.06590      9.60298      9.30788        -0.022489      0.627894      0.037040
     -1.46327     12.69207      8.16235        -0.589790     -0.528638     -0.042583
     -6.38078     11.62522      9.38699        -0.105264      0.712596     -0.070173
      3.02296      8.03885      9.47088         0.063043      0.768087      0.129509
      0.73845     12.30410      8.58860         0.155364     -0.055173      0.004323
     -3.40609      8.01226      8.71499        -0.119703      0.212553      0.063854
      9.28616      2.57351      8.89600         0.082337      0.229663      0.087661
     10.20844      4.83183      8.85824         0.030054      0.103596      0.075816
      5.63888      6.14369      7.14704        -0.613500      1.145077      0.442525
     14.94114     -0.12949      8.28097         0.089604      1.082021     -0.283729
     12.34721      5.47506      8.28967        -0.292217     -0.142978      0.060379
     10.23461      0.47970      9.14047         0.126741      0.125347      0.032464
      4.03808      9.97741      8.88631         0.021566      0.517874     -0.000732
      5.45412     11.95131      8.91251         0.175929      0.472003     -0.193292
      2.96671     12.18503      9.02752         0.218268     -0.060495      0.062998
     10.66475      7.10469      9.11068        -0.110744      0.376898      0.096415
      7.66792     11.64652      9.33215         0.157143      0.060637     -0.073242
      4.88951      8.10640      7.91793        -0.011755      0.993138      0.173952
      0.22923      3.14219      7.67759        -0.167353     -1.081097      0.334126
      1.15994      1.19612      8.45802        -0.307753     -0.755041      0.021827
      6.73148      0.16640      8.11936         0.263256     -0.310506     -0.004076
      4.80238      5.33550      7.74997         0.796754     -0.703171     -0.552081
      2.95487      5.27646      9.21840        -0.494747     -0.676448      0.292592
      8.07023      2.05878      8.49096        -0.072044     -0.235219     -0.023903
     -6.13826     12.94573      9.13374         0.006016     -0.799572      0.131359
      7.86184     12.93392      8.79517         0.026573     -0.434442      0.138165
     -5.22681     10.90288      9.38452         0.302796     -0.588141      0.043313
     -3.67121      9.25371      9.09167         0.023240     -0.182849      0.008077
      2.04120      7.32264     10.06665        -0.014927     -0.982013     -0.079240
      1.81503     11.55313      8.66382        -0.115020      0.054271     -0.002392
     -0.51942     11.77174      8.36577         0.043076      0.489746     -0.013421
      3.13220      9.35231      9.64477         0.027679     -0.388694     -0.116246
     -2.09629      7.77976      8.40946         0.032558     -0.011926     -0.000656
     12.01004      6.80086      8.67538         0.047389     -0.152507     -0.047255
      9.28475      3.90372      8.98314        -0.062061     -0.091594     -0.067036
     10.34179      1.79086      9.26886        -0.039080     -0.103894     -0.030473
      5.56593     13.08474      8.22972        -0.283279     -0.498548      0.230881
     -2.65899      5.53059      7.93775         0.250878      0.476028      0.039075
     11.46565      4.53315      8.31704        -0.005307      0.073818      0.009090
     15.13169      1.11276      7.85729         0.037474     -0.489728      0.080457
      3.10693     13.45450      9.37621        -0.134477     -0.052972     -0.036864
      9.00289     -0.10639      8.71676        -0.131480      0.017562     -0.049317
      4.12744     11.38732      9.00282        -0.239610     -0.215197     -0.029957
      4.88139      9.43076      8.00448        -0.014089     -0.438431      0.010768
      9.82562      6.10313      9.22857         0.007412     -0.236003     -0.059272
      8.71772     10.88040      9.61727        -0.092565     -0.094330     -0.020796
      6.39646     11.22984      9.51955         0.062997     -0.212566      0.026943
     10.35966      8.38587      9.35675         0.106908     -0.400478     -0.070017
      5.76180      7.44268      7.13488         0.131395     -1.324503     -0.182908
      3.94265      7.35258      8.64843        -0.032052     -0.481810     -0.068318
     -1.60588      9.71951      9.40658        -0.106222     -0.011898     -0.058244
     -0.97233      8.00782     11.72935        -0.022337     -0.003359     -0.035563
     -0.43935      7.76901     12.70832         0.007376     -0.004834     -0.012684
 -----------------------------------------------------------------------------------
    total drift:                               -0.216870     -0.147896     -0.036157


--------------------------------------------------------------------------------------------------------



  FREE ENERGIE OF THE ION-ELECTRON SYSTEM (eV)
  ---------------------------------------------------
  free  energy   TOTEN  =      -482.52149872 eV

  energy  without entropy=     -482.52149872  energy(sigma->0) =     -482.52149872



--------------------------------------------------------------------------------------------------------


    POTLOK:  cpu time    0.3149: real time    0.3149


--------------------------------------------------------------------------------------------------------


     LOOP+:  cpu time 1100.0184: real time 1100.3256
    4ORBIT:  cpu time    0.0000: real time    0.0000



 total charge     

# of ion       s       p       d       tot
------------------------------------------
    1        0.867   1.744   0.000   2.610
    2        0.887   1.645   0.000   2.531
    3        0.877   1.648   0.000   2.525
    4        0.862   1.728   0.000   2.590
    5        0.879   1.673   0.000   2.553
    6        0.857   1.727   0.000   2.585
    7        0.851   1.697   0.000   2.548
    8        0.893   1.714   0.000   2.606
    9        0.853   1.704   0.000   2.557
   10        0.863   1.707   0.000   2.570
   11        0.857   1.720   0.000   2.577
   12        0.872   1.769   0.000   2.641
   13        0.853   1.705   0.000   2.558
   14        0.851   1.698   0.000   2.549
   15        0.883   1.633   0.000   2.516
   16        0.857   1.726   0.000   2.583
   17        0.858   1.717   0.000   2.575
   18        0.860   1.713   0.000   2.573
   19        0.856   1.714   0.000   2.570
   20        0.853   1.723   0.000   2.575
   21        0.852   1.715   0.000   2.567
   22        0.862   1.715   0.000   2.577
   23        0.859   1.719   0.000   2.578
   24        0.863   1.709   0.000   2.572
   25        1.343   2.037   0.000   3.381
   26        1.255   2.632   0.000   3.887
   27        1.272   2.658   0.000   3.930
   28        1.274   2.622   0.000   3.896
   29        1.276   2.625   0.000   3.900
   30        1.277   2.632   0.000   3.910
   31        1.277   2.629   0.000   3.906
   32        1.225   2.735   0.000   3.960
   33        1.259   2.671   0.000   3.929
   34        1.249   2.629   0.000   3.878
   35        1.266   2.628   0.000   3.894
   36        1.267   2.652   0.000   3.919
   37        1.255   2.623   0.000   3.878
   38        1.274   2.643   0.000   3.918
   39        1.242   2.646   0.000   3.888
   40        1.226   2.749   0.000   3.975
   41        1.254   2.689   0.000   3.943
   42        1.272   2.623   0.000   3.895
   43        1.271   2.646   0.000   3.917
   44        1.263   2.631   0.000   3.894
   45        1.273   2.622   0.000   3.895
   46        1.255   2.628   0.000   3.883
   47        1.273   2.640   0.000   3.913
   48        1.224   2.720   0.000   3.944
   49        1.215   2.726   0.000   3.941
   50        1.275   2.644   0.000   3.919
   51        1.271   2.626   0.000   3.897
   52        1.267   2.631   0.000   3.898
   53        1.267   2.645   0.000   3.911
   54        1.265   2.632   0.000   3.897
   55        1.264   2.632   0.000   3.896
   56        1.228   2.707   0.000   3.935
   57        1.380   0.566  10.021  11.967
   58        1.029   1.462   0.000   2.490
   59        1.643   3.527   0.000   5.170
--------------------------------------------------
tot         65.150 130.771  10.021 205.943



 magnetization (x)

# of ion       s       p       d       tot
------------------------------------------
    1       -0.000  -0.001   0.000  -0.001
    2        0.005   0.013   0.000   0.018
    3        0.033   0.101   0.000   0.134
    4       -0.011  -0.021   0.000  -0.032
    5        0.004   0.002   0.000   0.006
    6        0.001   0.001   0.000   0.001
    7        0.000   0.001   0.000   0.001
    8       -0.048  -0.162   0.000  -0.209
    9        0.000   0.000   0.000   0.000
   10        0.001   0.001   0.000   0.002
   11       -0.007  -0.015   0.000  -0.022
   12        0.003   0.009   0.000   0.011
   13       -0.000  -0.002   0.000  -0.002
   14        0.000   0.001   0.000   0.001
   15        0.008   0.023   0.000   0.031
   16        0.001   0.001   0.000   0.001
   17        0.006   0.013   0.000   0.019
   18       -0.000  -0.003   0.000  -0.003
   19        0.000  -0.000   0.000   0.000
   20        0.000  -0.000   0.000  -0.000
   21       -0.000  -0.002   0.000  -0.002
   22        0.000   0.002   0.000   0.002
   23        0.000   0.000   0.000   0.000
   24        0.001   0.002   0.000   0.003
   25        0.000   0.074   0.000   0.074
   26        0.003   0.008   0.000   0.011
   27       -0.029  -0.054   0.000  -0.084
   28        0.005   0.005   0.000   0.010
   29        0.003   0.003   0.000   0.005
   30       -0.001  -0.006   0.000  -0.008
   31        0.000   0.002   0.000   0.002
   32        0.000   0.002   0.000   0.002
   33       -0.000  -0.003   0.000  -0.003
   34       -0.000   0.001   0.000   0.000
   35        0.001   0.001   0.000   0.002
   36       -0.002  -0.004   0.000  -0.006
   37       -0.018  -0.027   0.000  -0.045
   38       -0.000  -0.000   0.000  -0.000
   39        0.008   0.017   0.000   0.025
   40        0.000   0.006   0.000   0.006
   41       -0.000   0.000   0.000   0.000
   42       -0.000  -0.005   0.000  -0.005
   43       -0.000  -0.000   0.000  -0.000
   44        0.017   0.035   0.000   0.052
   45        0.001   0.005   0.000   0.006
   46        0.003   0.005   0.000   0.007
   47       -0.000  -0.006   0.000  -0.006
   48       -0.001  -0.007   0.000  -0.008
   49       -0.000  -0.000   0.000  -0.001
   50        0.000   0.000   0.000   0.000
   51        0.000   0.004   0.000   0.004
   52        0.000   0.002   0.000   0.002
   53       -0.000  -0.000   0.000  -0.000
   54        0.000   0.005   0.000   0.005
   55        0.003   0.003   0.000   0.006
   56        0.001   0.000   0.000   0.001
   57       -0.000  -0.002  -0.001  -0.003
   58        0.000   0.000   0.000   0.000
   59        0.000   0.000   0.000   0.000
--------------------------------------------------
tot         -0.010   0.023  -0.001   0.012

 BZINTS: Fermi energy: -4.312266;280.000000 electrons
         Band energy:***********;  BLOECHL correction:  0.000000

 total amount of memory used by VASP MPI-rank0   133645. kBytes
=======================================================================

   base      :      30000. kBytes
   nonl-proj :      31462. kBytes
   fftplans  :       5963. kBytes
   grid      :      18071. kBytes
   one-center:        155. kBytes
   wavefun   :      47994. kBytes

  
  
 General timing and accounting informations for this job:
 ========================================================
  
                  Total CPU time used (sec):     1118.715
                            User time (sec):     1117.363
                          System time (sec):        1.352
                         Elapsed time (sec):     1119.329
  
                   Maximum memory used (kb):      207504.
                   Average memory used (kb):           0.
  
                          Minor page faults:       197796
                          Major page faults:            0
                 Voluntary context switches:          967
