       N       E                     dE             d eps       ncg     rms          rms(c)
DAV:   1     0.253977678376E+04    0.25398E+04   -0.11181E+05  4352   0.107E+03
DAV:   2    -0.237416024028E+03   -0.27772E+04   -0.26506E+04  5504   0.279E+02
DAV:   3    -0.702175958370E+03   -0.46476E+03   -0.46117E+03  4584   0.121E+02
DAV:   4    -0.718958107296E+03   -0.16782E+02   -0.16638E+02  4640   0.282E+01
DAV:   5    -0.719503546227E+03   -0.54544E+00   -0.54392E+00  5240   0.429E+00    0.476E+01
DAV:   6    -0.721754127221E+03   -0.22506E+01   -0.87520E+01  4888   0.284E+01    0.745E+01
DAV:   7    -0.674652793706E+03    0.47101E+02   -0.58677E+01  4992   0.537E+01    0.273E+01
DAV:   8    -0.672443741236E+03    0.22091E+01   -0.47967E+01  5024   0.159E+01    0.272E+01
DAV:   9    -0.663380596829E+03    0.90631E+01   -0.25036E+01  4584   0.131E+01    0.159E+01
DAV:  10    -0.663136504333E+03    0.24409E+00   -0.13995E+01  5128   0.102E+01    0.120E+01
DAV:  11    -0.662512583592E+03    0.62392E+00   -0.37994E+00  4944   0.460E+00    0.846E+00
DAV:  12    -0.662331898593E+03    0.18068E+00   -0.84956E-01  5056   0.186E+00    0.560E+00
DAV:  13    -0.662086284423E+03    0.24561E+00   -0.12091E-01  4824   0.111E+00    0.620E+00
DAV:  14    -0.662355826340E+03   -0.26954E+00   -0.10789E-01  4784   0.802E-01    0.522E+00
DAV:  15    -0.662506448562E+03   -0.15062E+00   -0.81426E-02  4832   0.910E-01    0.392E+00
DAV:  16    -0.662633375290E+03   -0.12693E+00   -0.15887E-01  4864   0.103E+00    0.204E+00
DAV:  17    -0.662655711305E+03   -0.22336E-01   -0.65205E-02  4832   0.644E-01    0.132E+00
DAV:  18    -0.662657172250E+03   -0.14609E-02   -0.18394E-02  4400   0.372E-01    0.136E+00
DAV:  19    -0.662657958354E+03   -0.78610E-03   -0.70886E-03  4728   0.183E-01    0.111E+00
DAV:  20    -0.662658060051E+03   -0.10170E-03   -0.15102E-03  4200   0.891E-02    0.102E+00
DAV:  21    -0.662654534513E+03    0.35255E-02   -0.15131E-03  4536   0.115E-01    0.844E-01
DAV:  22    -0.662652876369E+03    0.16581E-02   -0.14154E-03  4152   0.134E-01    0.662E-01
DAV:  23    -0.662651867013E+03    0.10094E-02   -0.20037E-03  4144   0.114E-01    0.438E-01
DAV:  24    -0.662651639853E+03    0.22716E-03   -0.20880E-04  3096   0.370E-02    0.406E-01
DAV:  25    -0.662651353461E+03    0.28639E-03   -0.10666E-04  3208   0.383E-02    0.329E-01
DAV:  26    -0.662650783390E+03    0.57007E-03   -0.77313E-04  3536   0.736E-02    0.172E-01
DAV:  27    -0.662650656782E+03    0.12661E-03   -0.13657E-04  3088   0.373E-02    0.116E-01
DAV:  28    -0.662650618928E+03    0.37855E-04   -0.10587E-04  3152   0.340E-02
   1 F= -.66907866E+03 E0= -.66907866E+03  d E =0.000000E+00  mag=    -1.0030
