 vasp.5.4.4.18Apr17-6-g9f103f2a35 (build Jan 14 2022 15:04:31) complex          
  
 executed on             LinuxIFC date 2023.01.27  22:54:36
 running on   48 total cores
 distrk:  each k-point on   48 cores,    1 groups
 distr:  one band on NCORES_PER_BAND=  12 cores,    4 groups


--------------------------------------------------------------------------------------------------------


 INCAR:
 POTCAR:    PAW_PBE C 08Apr2002                   
 POTCAR:    PAW_PBE N 08Apr2002                   
 POTCAR:    PAW_PBE C 08Apr2002                   
 POTCAR:    PAW_PBE Cr_pv 02Aug2007               
 POTCAR:    PAW_PBE C 08Apr2002                   
 POTCAR:    PAW_PBE O 08Apr2002                   
 POTCAR:    PAW_PBE C 08Apr2002                   
   SHA256 =  253f7b50bb8d59471dbedb8285d89021f4a42ed1a2c5d38a03a736e69125dd95 C/
   COPYR  = (c) Copyright 08Apr2002 Georg Kresse                                
   COPYR  = This file is part of the software VASP. Any use, copying, and all ot
   COPYR  = If you do not have a valid VASP license, you may not use, copy or di
   VRHFIN =C: s2p2                                                              
   LEXCH  = PE                                                                  
   EATOM  =   147.1560 eV,   10.8157 Ry                                         
                                                                                
   TITEL  = PAW_PBE C 08Apr2002                                                 
   LULTRA =        F    use ultrasoft PP ?                                      
   IUNSCR =        1    unscreen: 0-lin 1-nonlin 2-no                           
   RPACOR =    1.200    partial core radius                                     
   POMASS =   12.011; ZVAL   =    4.000    mass and valenz                      
   RCORE  =    1.500    outmost cutoff radius                                   
   RWIGS  =    1.630; RWIGS  =    0.863    wigner-seitz radius (au A)           
   ENMAX  =  400.000; ENMIN  =  300.000 eV                                      
   ICORE  =        2    local potential                                         
   LCOR   =        T    correct aug charges                                     
   LPAW   =        T    paw PP                                                  
   EAUG   =  644.873                                                            
   DEXC   =    0.000                                                            
   RMAX   =    1.529    core radius for proj-oper                               
   RAUG   =    1.300    factor for augmentation sphere                          
   RDEP   =    1.501    radius for radial grids                                 
   RDEPT  =    1.300    core radius for aug-charge                              
                                                                                
   Atomic configuration                                                         
    4 entries                                                                   
     n  l   j            E        occ.                                          
     1  0  0.50      -273.3789   2.0000                                         
     2  0  0.50       -13.7508   2.0000                                         
     2  1  0.50        -5.2854   2.0000                                         
     3  2  1.50        -5.4423   0.0000                                         
   Description                                                                  
     l       E           TYP  RCUT    TYP  RCUT                                 
     0    -13.7508458     23  1.200                                             
     0     -8.2022199     23  1.200                                             
     1     -5.2854383     23  1.500                                             
     1     34.0145650     23  1.500                                             
     2     -5.4423304      7  1.500                                             
  local pseudopotential read in
  partial core-charges read in
  partial kinetic energy density read in
  atomic valenz-charges read in
  non local Contribution for L=           0  read in
    real space projection operators read in
  non local Contribution for L=           0  read in
    real space projection operators read in
  non local Contribution for L=           1  read in
    real space projection operators read in
  non local Contribution for L=           1  read in
    real space projection operators read in
    PAW grid and wavefunctions read in
 
   number of l-projection  operators is LMAX  =           4
   number of lm-projection operators is LMMAX =           8
 
 POTCAR:    PAW_PBE N 08Apr2002                   
   SHA256 =  e053789ff3a61a86a1b75d8a110fcc91f86041011e7b0817c7c99e4e8a6349d7 N/
   COPYR  = (c) Copyright 08Apr2002 Georg Kresse                                
   COPYR  = This file is part of the software VASP. Any use, copying, and all ot
   COPYR  = If you do not have a valid VASP license, you may not use, copy or di
   VRHFIN =N: s2p3                                                              
   LEXCH  = PE                                                                  
   EATOM  =   264.5486 eV,   19.4438 Ry                                         
                                                                                
   TITEL  = PAW_PBE N 08Apr2002                                                 
   LULTRA =        F    use ultrasoft PP ?                                      
   IUNSCR =        1    unscreen: 0-lin 1-nonlin 2-no                           
   RPACOR =    1.200    partial core radius                                     
   POMASS =   14.001; ZVAL   =    5.000    mass and valenz                      
   RCORE  =    1.500    outmost cutoff radius                                   
   RWIGS  =    1.400; RWIGS  =    0.741    wigner-seitz radius (au A)           
   ENMAX  =  400.000; ENMIN  =  300.000 eV                                      
   ICORE  =        2    local potential                                         
   LCOR   =        T    correct aug charges                                     
   LPAW   =        T    paw PP                                                  
   EAUG   =  627.112                                                            
   DEXC   =    0.000                                                            
   RMAX   =    1.529    core radius for proj-oper                               
   RAUG   =    1.300    factor for augmentation sphere                          
   RDEP   =    1.514    radius for radial grids                                 
   RDEPT  =    1.338    core radius for aug-charge                              
                                                                                
   Atomic configuration                                                         
    4 entries                                                                   
     n  l   j            E        occ.                                          
     1  0  0.50      -384.7179   2.0000                                         
     2  0  0.50       -18.5828   2.0000                                         
     2  1  0.50        -7.0898   3.0000                                         
     3  2  1.50        -6.8029   0.0000                                         
   Description                                                                  
     l       E           TYP  RCUT    TYP  RCUT                                 
     0    -18.5828119     23  1.200                                             
     0    -13.5018863     23  1.200                                             
     1     -7.0897853     23  1.500                                             
     1      9.5240782     23  1.500                                             
     2     -6.8029130      7  1.500                                             
  local pseudopotential read in
  partial core-charges read in
  partial kinetic energy density read in
  atomic valenz-charges read in
  non local Contribution for L=           0  read in
    real space projection operators read in
  non local Contribution for L=           0  read in
    real space projection operators read in
  non local Contribution for L=           1  read in
    real space projection operators read in
  non local Contribution for L=           1  read in
    real space projection operators read in
    PAW grid and wavefunctions read in
 
   number of l-projection  operators is LMAX  =           4
   number of lm-projection operators is LMMAX =           8
 
 POTCAR:    PAW_PBE C 08Apr2002                   
   SHA256 =  253f7b50bb8d59471dbedb8285d89021f4a42ed1a2c5d38a03a736e69125dd95 C/
   COPYR  = (c) Copyright 08Apr2002 Georg Kresse                                
   COPYR  = This file is part of the software VASP. Any use, copying, and all ot
   COPYR  = If you do not have a valid VASP license, you may not use, copy or di
   VRHFIN =C: s2p2                                                              
   LEXCH  = PE                                                                  
   EATOM  =   147.1560 eV,   10.8157 Ry                                         
                                                                                
   TITEL  = PAW_PBE C 08Apr2002                                                 
   LULTRA =        F    use ultrasoft PP ?                                      
   IUNSCR =        1    unscreen: 0-lin 1-nonlin 2-no                           
   RPACOR =    1.200    partial core radius                                     
   POMASS =   12.011; ZVAL   =    4.000    mass and valenz                      
   RCORE  =    1.500    outmost cutoff radius                                   
   RWIGS  =    1.630; RWIGS  =    0.863    wigner-seitz radius (au A)           
   ENMAX  =  400.000; ENMIN  =  300.000 eV                                      
   ICORE  =        2    local potential                                         
   LCOR   =        T    correct aug charges                                     
   LPAW   =        T    paw PP                                                  
   EAUG   =  644.873                                                            
   DEXC   =    0.000                                                            
   RMAX   =    1.529    core radius for proj-oper                               
   RAUG   =    1.300    factor for augmentation sphere                          
   RDEP   =    1.501    radius for radial grids                                 
   RDEPT  =    1.300    core radius for aug-charge                              
                                                                                
   Atomic configuration                                                         
    4 entries                                                                   
     n  l   j            E        occ.                                          
     1  0  0.50      -273.3789   2.0000                                         
     2  0  0.50       -13.7508   2.0000                                         
     2  1  0.50        -5.2854   2.0000                                         
     3  2  1.50        -5.4423   0.0000                                         
   Description                                                                  
     l       E           TYP  RCUT    TYP  RCUT                                 
     0    -13.7508458     23  1.200                                             
     0     -8.2022199     23  1.200                                             
     1     -5.2854383     23  1.500                                             
     1     34.0145650     23  1.500                                             
     2     -5.4423304      7  1.500                                             
  local pseudopotential read in
  partial core-charges read in
  partial kinetic energy density read in
  atomic valenz-charges read in
  non local Contribution for L=           0  read in
    real space projection operators read in
  non local Contribution for L=           0  read in
    real space projection operators read in
  non local Contribution for L=           1  read in
    real space projection operators read in
  non local Contribution for L=           1  read in
    real space projection operators read in
    PAW grid and wavefunctions read in
 
   number of l-projection  operators is LMAX  =           4
   number of lm-projection operators is LMMAX =           8
 
 POTCAR:    PAW_PBE Cr_pv 02Aug2007               
   SHA256 =  c9a7df34d3cdbacf1090e328ef39c0b420964e11c23f63548d1ac9dd218cdba0 Cr
   COPYR  = (c) Copyright 02Aug2007 Georg Kresse                                
   COPYR  = This file is part of the software VASP. Any use, copying, and all ot
   COPYR  = If you do not have a valid VASP license, you may not use, copy or di
   VRHFIN =Cr : p6d5s1                                                          
   LEXCH  = PE                                                                  
   EATOM  =  1647.9177 eV,  121.1185 Ry                                         
                                                                                
   TITEL  = PAW_PBE Cr_pv 02Aug2007                                             
   LULTRA =        F    use ultrasoft PP ?                                      
   IUNSCR =        1    unscreen: 0-lin 1-nonlin 2-no                           
   RPACOR =    2.080    partial core radius                                     
   POMASS =   51.996; ZVAL   =   12.000    mass and valenz                      
   RCORE  =    2.300    outmost cutoff radius                                   
   RWIGS  =    2.500; RWIGS  =    1.323    wigner-seitz radius (au A)           
   ENMAX  =  265.681; ENMIN  =  199.261 eV                                      
   ICORE  =        3    local potential                                         
   LCOR   =        T    correct aug charges                                     
   LPAW   =        T    paw PP                                                  
   EAUG   =  519.424                                                            
   DEXC   =    0.000                                                            
   RMAX   =    2.356    core radius for proj-oper                               
   RAUG   =    1.300    factor for augmentation sphere                          
   RDEP   =    2.447    radius for radial grids                                 
   RDEPT  =    1.882    core radius for aug-charge                              
                                                                                
   Atomic configuration                                                         
    8 entries                                                                   
     n  l   j            E        occ.                                          
     1  0  0.50     -5880.4963   2.0000                                         
     2  0  0.50      -667.0865   2.0000                                         
     2  1  1.50      -560.6250   6.0000                                         
     3  0  0.50       -73.9860   2.0000                                         
     3  1  1.50       -45.4378   6.0000                                         
     3  2  2.50        -2.9137   5.0000                                         
     4  0  0.50        -4.0071   1.0000                                         
     4  3  2.50        -1.3606   0.0000                                         
   Description                                                                  
     l       E           TYP  RCUT    TYP  RCUT                                 
     1    -45.4377911     23  2.000                                             
     1      1.3605826     23  2.000                                             
     2     -2.9136672     23  2.300                                             
     2     -4.2742498     23  2.300                                             
     0     -4.0071320     23  2.300                                             
     0      9.4498803     23  2.300                                             
     3      2.7211652     23  2.300                                             
  local pseudopotential read in
  partial core-charges read in
  partial kinetic energy density read in
  atomic valenz-charges read in
  non local Contribution for L=           1  read in
    real space projection operators read in
  non local Contribution for L=           1  read in
    real space projection operators read in
  non local Contribution for L=           2  read in
    real space projection operators read in
  non local Contribution for L=           2  read in
    real space projection operators read in
  non local Contribution for L=           0  read in
    real space projection operators read in
  non local Contribution for L=           0  read in
    real space projection operators read in
    PAW grid and wavefunctions read in
 
   number of l-projection  operators is LMAX  =           6
   number of lm-projection operators is LMMAX =          18
 
 POTCAR:    PAW_PBE C 08Apr2002                   
   SHA256 =  253f7b50bb8d59471dbedb8285d89021f4a42ed1a2c5d38a03a736e69125dd95 C/
   COPYR  = (c) Copyright 08Apr2002 Georg Kresse                                
   COPYR  = This file is part of the software VASP. Any use, copying, and all ot
   COPYR  = If you do not have a valid VASP license, you may not use, copy or di
   VRHFIN =C: s2p2                                                              
   LEXCH  = PE                                                                  
   EATOM  =   147.1560 eV,   10.8157 Ry                                         
                                                                                
   TITEL  = PAW_PBE C 08Apr2002                                                 
   LULTRA =        F    use ultrasoft PP ?                                      
   IUNSCR =        1    unscreen: 0-lin 1-nonlin 2-no                           
   RPACOR =    1.200    partial core radius                                     
   POMASS =   12.011; ZVAL   =    4.000    mass and valenz                      
   RCORE  =    1.500    outmost cutoff radius                                   
   RWIGS  =    1.630; RWIGS  =    0.863    wigner-seitz radius (au A)           
   ENMAX  =  400.000; ENMIN  =  300.000 eV                                      
   ICORE  =        2    local potential                                         
   LCOR   =        T    correct aug charges                                     
   LPAW   =        T    paw PP                                                  
   EAUG   =  644.873                                                            
   DEXC   =    0.000                                                            
   RMAX   =    1.529    core radius for proj-oper                               
   RAUG   =    1.300    factor for augmentation sphere                          
   RDEP   =    1.501    radius for radial grids                                 
   RDEPT  =    1.300    core radius for aug-charge                              
                                                                                
   Atomic configuration                                                         
    4 entries                                                                   
     n  l   j            E        occ.                                          
     1  0  0.50      -273.3789   2.0000                                         
     2  0  0.50       -13.7508   2.0000                                         
     2  1  0.50        -5.2854   2.0000                                         
     3  2  1.50        -5.4423   0.0000                                         
   Description                                                                  
     l       E           TYP  RCUT    TYP  RCUT                                 
     0    -13.7508458     23  1.200                                             
     0     -8.2022199     23  1.200                                             
     1     -5.2854383     23  1.500                                             
     1     34.0145650     23  1.500                                             
     2     -5.4423304      7  1.500                                             
  local pseudopotential read in
  partial core-charges read in
  partial kinetic energy density read in
  atomic valenz-charges read in
  non local Contribution for L=           0  read in
    real space projection operators read in
  non local Contribution for L=           0  read in
    real space projection operators read in
  non local Contribution for L=           1  read in
    real space projection operators read in
  non local Contribution for L=           1  read in
    real space projection operators read in
    PAW grid and wavefunctions read in
 
   number of l-projection  operators is LMAX  =           4
   number of lm-projection operators is LMMAX =           8
 
 POTCAR:    PAW_PBE O 08Apr2002                   
   SHA256 =  818f92134a0a090dccd8ba1447fa70422a3b330e708bb4f08108d8ae51209ddf O/
   COPYR  = (c) Copyright 08Apr2002 Georg Kresse                                
   COPYR  = This file is part of the software VASP. Any use, copying, and all ot
   COPYR  = If you do not have a valid VASP license, you may not use, copy or di
   VRHFIN =O: s2p4                                                              
   LEXCH  = PE                                                                  
   EATOM  =   432.3788 eV,   31.7789 Ry                                         
                                                                                
   TITEL  = PAW_PBE O 08Apr2002                                                 
   LULTRA =        F    use ultrasoft PP ?                                      
   IUNSCR =        1    unscreen: 0-lin 1-nonlin 2-no                           
   RPACOR =    1.200    partial core radius                                     
   POMASS =   16.000; ZVAL   =    6.000    mass and valenz                      
   RCORE  =    1.520    outmost cutoff radius                                   
   RWIGS  =    1.550; RWIGS  =    0.820    wigner-seitz radius (au A)           
   ENMAX  =  400.000; ENMIN  =  300.000 eV                                      
   ICORE  =        2    local potential                                         
   LCOR   =        T    correct aug charges                                     
   LPAW   =        T    paw PP                                                  
   EAUG   =  605.392                                                            
   DEXC   =    0.000                                                            
   RMAX   =    1.553    core radius for proj-oper                               
   RAUG   =    1.300    factor for augmentation sphere                          
   RDEP   =    1.550    radius for radial grids                                 
   RDEPT  =    1.329    core radius for aug-charge                              
                                                                                
   Atomic configuration                                                         
    4 entries                                                                   
     n  l   j            E        occ.                                          
     1  0  0.50      -514.6923   2.0000                                         
     2  0  0.50       -23.9615   2.0000                                         
     2  1  0.50        -9.0305   4.0000                                         
     3  2  1.50        -9.5241   0.0000                                         
   Description                                                                  
     l       E           TYP  RCUT    TYP  RCUT                                 
     0    -23.9615318     23  1.200                                             
     0     -9.5240782     23  1.200                                             
     1     -9.0304911     23  1.520                                             
     1      8.1634956     23  1.520                                             
     2     -9.5240782      7  1.500                                             
  local pseudopotential read in
  partial core-charges read in
  partial kinetic energy density read in
  kinetic energy density of atom read in
  atomic valenz-charges read in
  non local Contribution for L=           0  read in
    real space projection operators read in
  non local Contribution for L=           0  read in
    real space projection operators read in
  non local Contribution for L=           1  read in
    real space projection operators read in
  non local Contribution for L=           1  read in
    real space projection operators read in
    PAW grid and wavefunctions read in
 
   number of l-projection  operators is LMAX  =           4
   number of lm-projection operators is LMMAX =           8
 

 ----------------------------------------------------------------------------- 
|                                                                             |
|  ADVICE TO THIS USER RUNNING 'VASP/VAMP'   (HEAR YOUR MASTER'S VOICE ...):  |
|                                                                             |
|      You have a (more or less) 'large supercell' and for larger cells       |
|      it might be more efficient to use real space projection opertators     |
|      So try LREAL= Auto  in the INCAR   file.                               |
|      Mind:          For very  accurate calculation you might also keep the  |
|      reciprocal projection scheme          (i.e. LREAL=.FALSE.)             |
|                                                                             |
 ----------------------------------------------------------------------------- 

  PAW_PBE C 08Apr2002                   :
 energy of atom  1       EATOM= -147.1560
 kinetic energy error for atom=    0.0132 (will be added to EATOM!!)
  PAW_PBE N 08Apr2002                   :
 energy of atom  2       EATOM= -264.5486
 kinetic energy error for atom=    0.0298 (will be added to EATOM!!)
  PAW_PBE C 08Apr2002                   :
 energy of atom  3       EATOM= -147.1560
 kinetic energy error for atom=    0.0132 (will be added to EATOM!!)
  PAW_PBE Cr_pv 02Aug2007               :
 energy of atom  4       EATOM=-1647.9177
 kinetic energy error for atom=    0.0134 (will be added to EATOM!!)
  PAW_PBE C 08Apr2002                   :
 energy of atom  5       EATOM= -147.1560
 kinetic energy error for atom=    0.0132 (will be added to EATOM!!)
  PAW_PBE O 08Apr2002                   :
 energy of atom  6       EATOM= -432.3788
 kinetic energy error for atom=    0.0458 (will be added to EATOM!!)
 
 
 POSCAR: POSCAR-clean                            
  positions in cartesian coordinates
  No initial velocities read in
 exchange correlation table for  LEXCH =        8
   RHO(1)=    0.500       N(1)  =     2000
   RHO(2)=  100.500       N(2)  =     4000

 VTST: version 3.2, (02/03/18)

 CHAIN: initializing optimizer
 
 OPT: Using VASP Dynamics algorithm
 CHAIN: Read ICHAIN            0
 
 POSCAR: POSCAR-clean                            
  positions in cartesian coordinates
  No initial velocities read in
 


--------------------------------------------------------------------------------------------------------


 ion  position               nearest neighbor table
   1  1.000  0.999  0.484-  60 1.42   2 1.43  70 1.43
   2  0.056  0.111  0.484-   1 1.43  13 1.43  15 1.43
   3  0.167  0.001  0.483-  60 1.43  62 1.43   4 1.43
   4  0.223  0.113  0.484-  15 1.42   3 1.43  17 1.44
   5  0.334  0.002  0.484-  62 1.42   6 1.42  64 1.43
   6  0.390  0.113  0.484-  19 1.42   5 1.42  17 1.43
   7  0.500  1.000  0.484-   8 1.42  64 1.42  66 1.43
   8  0.556  0.111  0.484-   7 1.42  21 1.42  19 1.44
   9  0.666  0.998  0.484-  10 1.42  66 1.42  68 1.44
  10  0.722  0.109  0.483-   9 1.42  23 1.43  21 1.43
  11  0.832  0.998  0.484-  70 1.42  12 1.42  68 1.44
  12  0.888  0.109  0.484-  11 1.42  23 1.43  13 1.43
  13  0.999  0.165  0.484-  14 1.42  12 1.43   2 1.43
  14  0.054  0.277  0.484-  13 1.42  25 1.43  27 1.43
  15  0.167  0.168  0.484-   4 1.42  16 1.43   2 1.43
  16  0.223  0.280  0.486-  27 1.42  15 1.43  29 1.44
  17  0.335  0.170  0.485-  18 1.42   6 1.43   4 1.44
  18  0.391  0.281  0.488-  17 1.42  29 1.44  31 1.44
  19  0.501  0.168  0.484-   6 1.42  20 1.43   8 1.44
  20  0.557  0.280  0.486-  33 1.42  19 1.43  31 1.44
  21  0.667  0.165  0.483-  22 1.42   8 1.42  10 1.43
  22  0.723  0.277  0.484-  21 1.42  35 1.42  33 1.43
  23  0.833  0.165  0.484-  24 1.42  12 1.43  10 1.43
  24  0.888  0.276  0.484-  25 1.42  23 1.42  35 1.43
  25  0.999  0.332  0.484-  24 1.42  14 1.43  26 1.43
  26  0.055  0.444  0.485-  39 1.41  37 1.42  25 1.43
  27  0.165  0.333  0.486-  28 1.42  16 1.42  14 1.43
  28  0.219  0.444  0.488-  41 1.41  27 1.42  39 1.42
  29  0.335  0.338  0.489-  30 1.42  18 1.44  16 1.44
  30  0.388  0.449  0.495-  41 1.41  29 1.42  71 1.99
  31  0.503  0.338  0.489-  32 1.42  18 1.44  20 1.44
  32  0.562  0.449  0.496-  43 1.41  31 1.42  71 2.00
  33  0.668  0.333  0.486-  34 1.42  20 1.42  22 1.43
  34  0.725  0.444  0.487-  43 1.41  33 1.42  45 1.42
  35  0.833  0.332  0.484-  36 1.42  22 1.42  24 1.43
  36  0.890  0.444  0.484-  45 1.42  37 1.42  35 1.42
  37  0.000  0.500  0.484-  36 1.42  26 1.42  38 1.43
  38  0.056  0.612  0.484-  49 1.41  37 1.43  47 1.43
  39  0.165  0.500  0.486-  26 1.41  40 1.42  28 1.42
  40  0.220  0.611  0.486-  49 1.42  51 1.42  39 1.42
  41  0.329  0.499  0.491-  30 1.41  28 1.41  42 1.43
  42  0.385  0.612  0.491-  53 1.41  51 1.41  41 1.43
  43  0.671  0.500  0.491-  32 1.41  34 1.41  44 1.44
  44  0.728  0.613  0.491-  55 1.40  57 1.41  43 1.44
  45  0.836  0.500  0.485-  36 1.42  46 1.42  34 1.42
  46  0.891  0.611  0.485-  47 1.41  45 1.42  57 1.42
  47  0.001  0.668  0.484-  46 1.41  48 1.42  38 1.43
  48  0.056  0.779  0.484-  59 1.41  47 1.42  61 1.42
  49  0.166  0.667  0.485-  38 1.41  40 1.42  50 1.42
  50  0.222  0.779  0.484-  49 1.42  63 1.43  61 1.43
  51  0.331  0.667  0.488-  42 1.41  52 1.42  40 1.42
  52  0.388  0.778  0.486-  51 1.42  65 1.43  63 1.43
  53  0.495  0.663  0.495-  42 1.41  54 1.42  71 1.99
  54  0.553  0.773  0.489-  53 1.42  67 1.44  65 1.45
  55  0.668  0.663  0.496-  44 1.40  56 1.41  71 2.00
  56  0.721  0.773  0.490-  55 1.41  67 1.44  69 1.45
  57  0.838  0.668  0.487-  58 1.41  44 1.41  46 1.42
  58  0.892  0.779  0.486-  59 1.41  57 1.41  69 1.42
  59  0.001  0.834  0.484-  60 1.41  48 1.41  58 1.41
  60  0.056  0.945  0.484-  59 1.41   1 1.42   3 1.43
  61  0.167  0.835  0.484-  62 1.42  48 1.42  50 1.43
  62  0.223  0.946  0.484-  61 1.42   5 1.42   3 1.43
  63  0.333  0.834  0.484-  64 1.42  50 1.43  52 1.43
  64  0.389  0.945  0.484-  63 1.42   7 1.42   5 1.43
  65  0.499  0.831  0.486-  66 1.42  52 1.43  54 1.45
  66  0.555  0.943  0.484-  65 1.42   9 1.42   7 1.43
  67  0.665  0.830  0.488-  68 1.42  54 1.44  56 1.44
  68  0.721  0.941  0.485-  67 1.42  11 1.44   9 1.44
  69  0.834  0.832  0.486-  58 1.42  70 1.42  56 1.45
  70  0.888  0.943  0.484-  11 1.42  69 1.42   1 1.43
  71  0.527  0.555  0.541-  30 1.99  53 1.99  32 2.00  55 2.00
  72  0.527  0.555  0.940-  73 1.16
  73  0.477  0.499  0.996-  72 1.16
 

IMPORTANT INFORMATION: All symmetrisations will be switched off!
NOSYMM: (Re-)initialisation of all symmetry stuff for point group C_1.

 
 
 KPOINTS: K-Points                                

Automatic generation of k-mesh.
Space group operators:
 irot       det(A)        alpha          n_x          n_y          n_z        tau_x        tau_y        tau_z
    1     1.000000     0.000000     1.000000     0.000000     0.000000     0.000000     0.000000     0.000000
 
 Subroutine IBZKPT returns following result:
 ===========================================
 
 Found      5 irreducible k-points:
 
 Following reciprocal coordinates:
            Coordinates               Weight
  0.000000  0.000000  0.000000      1.000000
  0.333333  0.000000  0.000000      2.000000
  0.000000  0.333333  0.000000      2.000000
  0.333333  0.333333  0.000000      2.000000
 -0.333333  0.333333  0.000000      2.000000
 
 Following cartesian coordinates:
            Coordinates               Weight
  0.000000  0.000000  0.000000      1.000000
  0.022433  0.013066  0.000000      2.000000
  0.000007  0.026132  0.000000      2.000000
  0.022440  0.039198  0.000000      2.000000
 -0.022426  0.013066  0.000000      2.000000
 
 TETIRR: Found     24 inequivalent tetrahedra from       54


--------------------------------------------------------------------------------------------------------




 Dimension of arrays:
   k-points           NKPTS =      5   k-points in BZ     NKDIM =      5   number of bands    NBANDS=    192
   number of dos      NEDOS =   4000   number of ions     NIONS =     73
   non local maximal  LDIM  =      6   non local SUM 2l+1 LMDIM =     18
   total plane-waves  NPLWV = 512000
   max r-space proj   IRMAX =      1   max aug-charges    IRDMAX=   6464
   dimension x,y,z NGX =    80 NGY =   80 NGZ =   80
   dimension x,y,z NGXF=   160 NGYF=  160 NGZF=  160
   support grid    NGXF=   160 NGYF=  160 NGZF=  160
   ions per type =              58   1  11   1   1   1
   NGX,Y,Z   is equivalent  to a cutoff of   8.95,  9.01,  8.87 a.u.
   NGXF,Y,Z  is equivalent  to a cutoff of  17.90, 18.02, 17.73 a.u.

 SYSTEM =  unknown system                          
 POSCAR =  POSCAR-clean                            

 Startparameter for this run:
   NWRITE =      2    write-flag & timer
   PREC   = normal    normal or accurate (medium, high low for compatibility)
   ISTART =      0    job   : 0-new  1-cont  2-samecut
   ICHARG =      2    charge: 1-file 2-atom 10-const
   ISPIN  =      2    spin polarized calculation?
   LNONCOLLINEAR =      F non collinear calculations
   LSORBIT =      F    spin-orbit coupling
   INIWAV =      1    electr: 0-lowe 1-rand  2-diag
   LASPH  =      F    aspherical Exc in radial PAW
   METAGGA=      F    non-selfconsistent MetaGGA calc.

 Electronic Relaxation 1
   ENCUT  =  440.0 eV  32.34 Ry    5.69 a.u.  25.42 25.25 25.66*2*pi/ulx,y,z
   ENINI  =  440.0     initial cutoff
   ENAUG  =  644.9 eV  augmentation charge cutoff
   NELM   =    100;   NELMIN=  2; NELMDL= -5     # of ELM steps 
   EDIFF  = 0.1E-03   stopping-criterion for ELM
   LREAL  =      F    real-space projection
   NLSPLINE    = F    spline interpolate recip. space projectors
   LCOMPAT=      F    compatible to vasp.4.4
   GGA_COMPAT  = T    GGA compatible to vasp.4.4-vasp.4.6
   LMAXPAW     = -100 max onsite density
   LMAXMIX     =    2 max onsite mixed and CHGCAR
   VOSKOWN=      0    Vosko Wilk Nusair interpolation
   ROPT   =    0.00000   0.00000   0.00000   0.00000
   ROPT   =    0.00000   0.00000
 Ionic relaxation
   EDIFFG = -.1E-01   stopping-criterion for IOM
   NSW    =      0    number of steps for IOM
   NBLOCK =      1;   KBLOCK =      1    inner block; outer block 
   IBRION =     -1    ionic relax: 0-MD 1-quasi-New 2-CG
   NFREE  =      0    steps in history (QN), initial steepest desc. (CG)
   ISIF   =      2    stress and relaxation
   IWAVPR =     10    prediction:  0-non 1-charg 2-wave 3-comb
   ISYM   =      0    0-nonsym 1-usesym 2-fastsym
   LCORR  =      T    Harris-Foulkes like correction to forces

   POTIM  = 0.5000    time-step for ionic-motion
   TEIN   =    0.0    initial temperature
   TEBEG  =    0.0;   TEEND  =   0.0 temperature during run
   SMASS  =  -3.00    Nose mass-parameter (am)
   estimated Nose-frequenzy (Omega)   =  0.10E-29 period in steps =****** mass=  -0.505E-26a.u.
   SCALEE = 1.0000    scale energy and forces
   NPACO  =    256;   APACO  = 16.0  distance and # of slots for P.C.
   PSTRESS=    0.0 pullay stress

  Mass of Ions in am
   POMASS =  12.01 14.00 12.01 52.00 12.01 16.00
  Ionic Valenz
   ZVAL   =   4.00  5.00  4.00 12.00  4.00  6.00
  Atomic Wigner-Seitz radii
   RWIGS  =  -1.00 -1.00 -1.00 -1.00 -1.00 -1.00
  virtual crystal weights 
   VCA    =   1.00  1.00  1.00  1.00  1.00  1.00
   NELECT =     303.0000    total number of electrons
   NUPDOWN=      -1.0000    fix difference up-down

 DOS related values:
   EMIN   = -14.00;   EMAX   =  6.00  energy-range for DOS
   EFERMI =   0.00
   ISMEAR =    -5;   SIGMA  =   0.20  broadening in eV -4-tet -1-fermi 0-gaus

 Electronic relaxation 2 (details)
   IALGO  =     38    algorithm
   LDIAG  =      T    sub-space diagonalisation (order eigenvalues)
   LSUBROT=      F    optimize rotation matrix (better conditioning)
   TURBO    =      0    0=normal 1=particle mesh
   IRESTART =      0    0=no restart 2=restart with 2 vectors
   NREBOOT  =      0    no. of reboots
   NMIN     =      0    reboot dimension
   EREF     =   0.00    reference energy to select bands
   IMIX   =      4    mixing-type and parameters
     AMIX     =   0.25;   BMIX     =  0.00
     AMIX_MAG =   1.00;   BMIX_MAG =  0.00
     AMIN     =   0.10
     WC   =   100.;   INIMIX=   1;  MIXPRE=   1;  MAXMIX= -45

 Intra band minimization:
   WEIMIN = 0.0000     energy-eigenvalue tresh-hold
   EBREAK =  0.13E-06  absolut break condition
   DEPER  =   0.30     relativ break condition  

   TIME   =   0.40     timestep for ELM

  volume/ion in A,a.u.               =      38.95       262.86
  Fermi-wavevector in a.u.,A,eV,Ry     =   0.776136  1.466685  8.195983  0.602388
  Thomas-Fermi vector in A             =   1.878551
 
 Write flags
   LWAVE        =      F    write WAVECAR
   LDOWNSAMPLE  =      F    k-point downsampling of WAVECAR
   LCHARG       =      F    write CHGCAR
   LVTOT        =      F    write LOCPOT, total local potential
   LVHAR        =      F    write LOCPOT, Hartree potential only
   LELF         =      F    write electronic localiz. function (ELF)
   LORBIT       =     11    0 simple, 1 ext, 2 COOP (PROOUT), +10 PAW based schemes


 Dipole corrections
   LMONO  =      F    monopole corrections only (constant potential shift)
   LDIPOL =      F    correct potential (dipole corrections)
   IDIPOL =      0    1-x, 2-y, 3-z, 4-all directions 
   EPSILON=  1.0000000 bulk dielectric constant

 Exchange correlation treatment:
   GGA     =    --    GGA type
   LEXCH   =     8    internal setting for exchange type
   VOSKOWN=      0    Vosko Wilk Nusair interpolation
   LHFCALC =     F    Hartree Fock is set to
   LHFONE  =     F    Hartree Fock one center treatment
   AEXX    =    0.0000 exact exchange contribution

 Linear response parameters
   LEPSILON=     F    determine dielectric tensor
   LRPA    =     F    only Hartree local field effects (RPA)
   LNABLA  =     F    use nabla operator in PAW spheres
   LVEL    =     F    velocity operator in full k-point grid
   LINTERFAST=   F  fast interpolation
   KINTER  =     0    interpolate to denser k-point grid
   CSHIFT  =0.1000    complex shift for real part using Kramers Kronig
   OMEGAMAX=  -1.0    maximum frequency
   DEG_THRESHOLD= 0.2000000E-02 threshold for treating states as degnerate
   RTIME   =   -0.100 relaxation time in fs
  (WPLASMAI=    0.000 imaginary part of plasma frequency in eV, 0.658/RTIME)
   DFIELD  = 0.0000000 0.0000000 0.0000000 field for delta impulse in time
 
 Orbital magnetization related:
   ORBITALMAG=     F  switch on orbital magnetization
   LCHIMAG   =     F  perturbation theory with respect to B field
   DQ        =  0.001000  dq finite difference perturbation B field
   LLRAUG    =     F  two centre corrections for induced B field



--------------------------------------------------------------------------------------------------------


 Static calculation
 charge density and potential will be updated during run
 spin polarized calculation
 Variant of blocked Davidson
 Davidson routine will perform the subspace rotation
 perform sub-space diagonalisation
    after iterative eigenvector-optimisation
 modified Broyden-mixing scheme, WC =      100.0
 initial mixing is a Kerker type mixing with AMIX =  0.2500 and BMIX =      0.0001
 Hartree-type preconditioning will be used
 using additional bands           40
 reciprocal scheme for non local part
 use partial core corrections
 calculate Harris-corrections to forces 
   (improved forces if not selfconsistent)
 use gradient corrections 
 use of overlap-Matrix (Vanderbilt PP)
 Fermi weights with tetrahedron method with Bloechl corrections


--------------------------------------------------------------------------------------------------------


  energy-cutoff  :      440.00
  volume of cell :     2843.50
      direct lattice vectors                 reciprocal lattice vectors
    14.861160630 -0.003892508  0.000000000     0.067299762  0.039197741  0.000000000
    -7.430580315 12.757783281  0.000000000     0.000020534  0.078395483  0.000000000
     0.000000000  0.000000000 15.000000000     0.000000000  0.000000000  0.066666667

  length of vectors
    14.861161140 14.763961463 15.000000000     0.077882738  0.078395485  0.066666667


 
 k-points in units of 2pi/SCALE and weight: K-Points                                
   0.00000000  0.00000000  0.00000000       0.111
   0.02243325  0.01306591  0.00000000       0.222
   0.00000684  0.02613183  0.00000000       0.222
   0.02244010  0.03919774  0.00000000       0.222
  -0.02242641  0.01306591  0.00000000       0.222
 
 k-points in reciprocal lattice and weights: K-Points                                
   0.00000000  0.00000000  0.00000000       0.111
   0.33333333  0.00000000  0.00000000       0.222
   0.00000000  0.33333333  0.00000000       0.222
   0.33333333  0.33333333  0.00000000       0.222
  -0.33333333  0.33333333  0.00000000       0.222
 
 position of ions in fractional coordinates (direct lattice) 
   0.99982280  0.99890127  0.48358800
   0.05598960  0.11084636  0.48365962
   0.16718247  0.00103521  0.48349578
   0.22284402  0.11279158  0.48419359
   0.33404198  0.00182848  0.48367491
   0.38999183  0.11344353  0.48432395
   0.49993310  0.99973174  0.48366376
   0.55575784  0.11127057  0.48359221
   0.66574485  0.99769714  0.48418616
   0.72157806  0.10911547  0.48347960
   0.83237672  0.99766007  0.48430685
   0.88807752  0.10928117  0.48367692
   0.99914611  0.16520403  0.48375625
   0.05441709  0.27657568  0.48442776
   0.16727962  0.16788652  0.48429962
   0.22307007  0.27969240  0.48600390
   0.33487780  0.16987065  0.48533699
   0.39074102  0.28127955  0.48840790
   0.50078829  0.16808049  0.48435184
   0.55683876  0.27978107  0.48598918
   0.66661894  0.16546842  0.48346129
   0.72262032  0.27684930  0.48396030
   0.83270647  0.16491318  0.48355596
   0.88841735  0.27637034  0.48369912
   0.99910472  0.33222800  0.48426159
   0.05453071  0.44406408  0.48471379
   0.16542078  0.33286368  0.48595229
   0.21927612  0.44393365  0.48768047
   0.33534346  0.33786152  0.48933079
   0.38767098  0.44859262  0.49540021
   0.50275639  0.33792379  0.48948475
   0.56151775  0.44908484  0.49568699
   0.66773058  0.33298263  0.48557790
   0.72489102  0.44408554  0.48715455
   0.83345002  0.33238862  0.48384887
   0.88969671  0.44392938  0.48418211
   0.00011328  0.50028295  0.48422290
   0.05593852  0.61200447  0.48421462
   0.16457636  0.49992818  0.48624953
   0.22027592  0.61135190  0.48624685
   0.32897078  0.49935339  0.49120651
   0.38524394  0.61182453  0.49119184
   0.67091266  0.49974810  0.49120304
   0.72751246  0.61261992  0.49121626
   0.83555333  0.50005595  0.48544583
   0.89118915  0.61115888  0.48542309
   0.00107147  0.66813435  0.48417337
   0.05618852  0.77943196  0.48386868
   0.16609232  0.66742142  0.48471730
   0.22179170  0.77884236  0.48425942
   0.33085369  0.66727318  0.48765262
   0.38794130  0.77826899  0.48593230
   0.49464470  0.66250875  0.49531038
   0.55327033  0.77323370  0.48935260
   0.66847487  0.66257846  0.49578464
   0.72108780  0.77314083  0.48952534
   0.83758284  0.66797920  0.48712486
   0.89150458  0.77879963  0.48559993
   0.00142868  0.83445683  0.48400788
   0.05619660  0.94465687  0.48351212
   0.16685328  0.83513044  0.48370112
   0.22346290  0.94633925  0.48355628
   0.33283868  0.83440374  0.48442176
   0.38904788  0.94549694  0.48376283
   0.49889280  0.83141958  0.48600034
   0.55486676  0.94298748  0.48430287
   0.66534281  0.82967409  0.48843915
   0.72059404  0.94075576  0.48532837
   0.83382202  0.83174926  0.48590715
   0.88841790  0.94324410  0.48429833
   0.52741340  0.55545186  0.54092831
   0.52741340  0.55545186  0.93959498
   0.47735780  0.49854240  0.99595079
 
 position of ions in cartesian coordinates  (Angst):
   7.43611115 12.73987415  7.25382003
   0.00841765  1.41393589  7.25489426
   2.47683335  0.01255621  7.25243670
   2.47361393  1.43810314  7.26290390
   4.95066487  0.02202713  7.25512369
   4.95278006  1.44576987  7.26485929
   0.00099908 12.75241493  7.25495647
   7.43240166  1.41740247  7.25388311
   2.48027238 12.72581247  7.26279233
   9.91269616  1.38926274  7.25219401
   4.95689082 12.72469099  7.26460269
  12.38584019  1.39072864  7.25515378
  13.62090904  2.10374809  7.25634382
  -1.24641667  3.52828077  7.26641645
   1.23847505  2.14120865  7.26449430
   1.23680333  3.56738666  7.29005845
   3.71443524  2.16586948  7.28005486
   3.71679480  3.58698262  7.32611856
   6.19335960  2.14238511  7.26527765
   6.19633458  3.56721878  7.28983775
   8.67720477  2.10841542  7.25191935
   8.68182577  3.52917054  7.25940444
  11.14958393  2.10068532  7.25333943
  11.14932088  3.52241475  7.25548680
  12.37920891  4.23460377  7.26392379
  -2.48926414  5.66506108  7.27070687
  -0.01502549  4.24595883  7.28928428
  -0.03998709  5.66275581  7.31520704
   2.47308591  4.30905877  7.33996187
   2.42793722  5.72153841  7.43100312
   4.96057363  4.30920153  7.34227126
   5.00784448  5.72714132  7.43530479
   7.44899717  4.24552115  7.28366854
   7.47290857  5.66272549  7.30731826
   9.91619435  4.23729776  7.25773299
   9.92327276  5.66009168  7.26273167
  -3.71570908  6.38250099  7.26334349
  -3.71623712  7.80760271  7.26321935
  -1.26896073  6.37733480  7.29374302
  -1.26914357  7.79863767  7.29370279
   1.17840222  6.36936175  7.36809767
   1.17896080  7.80402520  7.36787764
   6.25712235  6.37306646  7.36804558
   6.25955807  7.81284031  7.36824397
   8.70158637  6.37635306  7.28168745
   8.70283990  7.79356361  7.28134642
  -4.94870264  8.52390907  7.26260049
  -4.95660519  9.94360534  7.25803014
  -2.49100388  8.51417135  7.27075950
  -2.49116852  9.93543865  7.26389126
  -0.04135709  8.51163875  7.31478936
  -0.01773225  9.92747707  7.28898444
   2.42816989  8.45021762  7.42965567
   2.47666420  9.86259432  7.34028894
   5.01096995  8.45043032  7.43676961
   4.97131655  9.86075628  7.34288017
   7.48398004  8.51867352  7.30687287
   7.46185954  9.93228675  7.28399895
  -6.17926671 10.64581385  7.26011818
  -6.18420213 12.05150894  7.25268183
  -3.72587038 10.65376374  7.25551687
  -3.71093179 12.07232122  7.25334427
  -1.25373490 10.64384649  7.26632640
  -1.24388788 12.06093069  7.25644249
   1.23619602 10.60512887  7.29000516
   1.23901990 12.02827004  7.26454310
   3.72280646 10.58221238  7.32658728
   3.71850244 11.99915325  7.27992552
   6.21118328 10.60803112  7.28860727
   6.19407005 12.03024560  7.26447499
   3.71064554  7.08428148  8.11392468
   3.71064554  7.08428148 14.09392468
   3.38963159  6.35843778 14.93926187
 


--------------------------------------------------------------------------------------------------------


 k-point  1 :   0.0000 0.0000 0.0000  plane waves:   59585
 k-point  2 :   0.3333 0.0000 0.0000  plane waves:   59568
 k-point  3 :   0.0000 0.3333 0.0000  plane waves:   59622
 k-point  4 :   0.3333 0.3333 0.0000  plane waves:   59642
 k-point  5 :  -0.3333 0.3333 0.0000  plane waves:   59568

 maximum and minimum number of plane-waves per node :      4991     4927

 maximum number of plane-waves:     59642
 maximum index in each direction: 
   IXMAX=   25   IYMAX=   25   IZMAX=   25
   IXMIN=  -25   IYMIN=  -25   IZMIN=  -25


 parallel 3D FFT for wavefunctions:
    minimum data exchange during FFTs selected (reduces bandwidth)
 parallel 3D FFT for charge:
    minimum data exchange during FFTs selected (reduces bandwidth)


 total amount of memory used by VASP MPI-rank0   116147. kBytes
=======================================================================

   base      :      30000. kBytes
   nonl-proj :      27330. kBytes
   fftplans  :       4700. kBytes
   grid      :      15193. kBytes
   one-center:        217. kBytes
   wavefun   :      38707. kBytes
 
     INWAV:  cpu time    0.0000: real time    0.0001
 Broyden mixing: mesh for mixing (old mesh)
   NGX = 51   NGY = 51   NGZ = 51
  (NGX  =160   NGY  =160   NGZ  =160)
  gives a total of 132651 points

 initial charge density was supplied:
 charge density of overlapping atoms calculated
 number of electron     303.0000000 magnetization       2.0000000
 keeping initial charge density in first step


--------------------------------------------------------------------------------------------------------


 Maximum index for augmentation-charges          180 (set IRDMAX)


--------------------------------------------------------------------------------------------------------


 First call to EWALD:  gamma=   0.125
 Maximum number of real-space cells 3x 3x 3
 Maximum number of reciprocal cells 3x 3x 3

    FEWALD:  cpu time    0.0060: real time    0.0063


--------------------------------------- Iteration      1(   1)  ---------------------------------------


    POTLOK:  cpu time    0.2190: real time    0.2481
    SETDIJ:  cpu time    0.0090: real time    0.0097
     EDDAV:  cpu time   11.4426: real time   11.5547
 BZINTS: Fermi energy:  7.956339;303.000000 electrons
         Band energy:***********;  BLOECHL correction: -0.026285
       DOS:  cpu time    0.1088: real time    0.1092
    --------------------------------------------
      LOOP:  cpu time   11.7794: real time   11.9217

 eigenvalue-minimisations  :  4360
 total energy-change (2. order) : 0.2531339E+04  (-0.1118407E+05)
 number of electron     303.0000000 magnetization       2.0000000
 augmentation part      303.0000000 magnetization       2.0000000

 Free energy of the ion-electron system (eV)
  ---------------------------------------------------
  alpha Z        PSCENC =       167.23218672
  Ewald energy   TEWEN  =     28883.98222963
  -Hartree energ DENC   =    -38562.82574189
  -exchange      EXHF   =         0.00000000
  -V(xc)+E(xc)   XCENC  =      1022.13687062
  PAW double counting   =      9455.23336183    -9546.47664214
  entropy T*S    EENTRO =         0.00000000
  eigenvalues    EBANDS =     -1532.69643576
  atomic energy  EATOM  =     12644.75315347
  Solvation  Ediel_sol  =         0.00000000
  ---------------------------------------------------
  free energy    TOTEN  =      2531.33898248 eV

  energy without entropy =     2531.33898248  energy(sigma->0) =     2531.33898248


--------------------------------------------------------------------------------------------------------




--------------------------------------- Iteration      1(   2)  ---------------------------------------


     EDDAV:  cpu time   15.2562: real time   15.5958
 BZINTS: Fermi energy: -1.412921;303.000000 electrons
         Band energy:***********;  BLOECHL correction: -0.057985
       DOS:  cpu time    0.0114: real time    0.0115
    --------------------------------------------
      LOOP:  cpu time   15.2676: real time   15.6072

 eigenvalue-minimisations  :  5480
 total energy-change (2. order) :-0.2769337E+04  (-0.2642401E+04)
 number of electron     303.0000000 magnetization       2.0000000
 augmentation part      303.0000000 magnetization       2.0000000

 Free energy of the ion-electron system (eV)
  ---------------------------------------------------
  alpha Z        PSCENC =       167.23218672
  Ewald energy   TEWEN  =     28883.98222963
  -Hartree energ DENC   =    -38562.82574189
  -exchange      EXHF   =         0.00000000
  -V(xc)+E(xc)   XCENC  =      1022.13687062
  PAW double counting   =      9455.23336183    -9546.47664214
  entropy T*S    EENTRO =         0.00000000
  eigenvalues    EBANDS =     -4302.03298837
  atomic energy  EATOM  =     12644.75315347
  Solvation  Ediel_sol  =         0.00000000
  ---------------------------------------------------
  free energy    TOTEN  =      -237.99757012 eV

  energy without entropy =     -237.99757012  energy(sigma->0) =     -237.99757012


--------------------------------------------------------------------------------------------------------




--------------------------------------- Iteration      1(   3)  ---------------------------------------


     EDDAV:  cpu time   13.0525: real time   13.2806
 BZINTS: Fermi energy: -4.536728;303.000000 electrons
         Band energy:***********;  BLOECHL correction: -0.046663
       DOS:  cpu time    0.0115: real time    0.0115
    --------------------------------------------
      LOOP:  cpu time   13.0640: real time   13.2921

 eigenvalue-minimisations  :  4592
 total energy-change (2. order) :-0.4643679E+03  (-0.4608858E+03)
 number of electron     303.0000000 magnetization       2.0000000
 augmentation part      303.0000000 magnetization       2.0000000

 Free energy of the ion-electron system (eV)
  ---------------------------------------------------
  alpha Z        PSCENC =       167.23218672
  Ewald energy   TEWEN  =     28883.98222963
  -Hartree energ DENC   =    -38562.82574189
  -exchange      EXHF   =         0.00000000
  -V(xc)+E(xc)   XCENC  =      1022.13687062
  PAW double counting   =      9455.23336183    -9546.47664214
  entropy T*S    EENTRO =         0.00000000
  eigenvalues    EBANDS =     -4766.40088836
  atomic energy  EATOM  =     12644.75315347
  Solvation  Ediel_sol  =         0.00000000
  ---------------------------------------------------
  free energy    TOTEN  =      -702.36547011 eV

  energy without entropy =     -702.36547011  energy(sigma->0) =     -702.36547011


--------------------------------------------------------------------------------------------------------




--------------------------------------- Iteration      1(   4)  ---------------------------------------


     EDDAV:  cpu time   12.6626: real time   12.7874
 BZINTS: Fermi energy: -4.706204;303.000000 electrons
         Band energy:***********;  BLOECHL correction: -0.043082
       DOS:  cpu time    0.0115: real time    0.0115
    --------------------------------------------
      LOOP:  cpu time   12.6741: real time   12.7989

 eigenvalue-minimisations  :  4616
 total energy-change (2. order) :-0.1681962E+02  (-0.1667743E+02)
 number of electron     303.0000000 magnetization       2.0000000
 augmentation part      303.0000000 magnetization       2.0000000

 Free energy of the ion-electron system (eV)
  ---------------------------------------------------
  alpha Z        PSCENC =       167.23218672
  Ewald energy   TEWEN  =     28883.98222963
  -Hartree energ DENC   =    -38562.82574189
  -exchange      EXHF   =         0.00000000
  -V(xc)+E(xc)   XCENC  =      1022.13687062
  PAW double counting   =      9455.23336183    -9546.47664214
  entropy T*S    EENTRO =         0.00000000
  eigenvalues    EBANDS =     -4783.22051177
  atomic energy  EATOM  =     12644.75315347
  Solvation  Ediel_sol  =         0.00000000
  ---------------------------------------------------
  free energy    TOTEN  =      -719.18509353 eV

  energy without entropy =     -719.18509353  energy(sigma->0) =     -719.18509353


--------------------------------------------------------------------------------------------------------




--------------------------------------- Iteration      1(   5)  ---------------------------------------


     EDDAV:  cpu time   14.4918: real time   14.7131
 BZINTS: Fermi energy: -4.716529;303.000000 electrons
         Band energy:***********;  BLOECHL correction: -0.042941
       DOS:  cpu time    0.0112: real time    0.0113
    CHARGE:  cpu time    0.1651: real time    0.1686
    MIXING:  cpu time    0.0048: real time    0.0049
    --------------------------------------------
      LOOP:  cpu time   14.6729: real time   14.8980

 eigenvalue-minimisations  :  5280
 total energy-change (2. order) :-0.5495431E+00  (-0.5478447E+00)
 number of electron     302.9999963 magnetization       0.0162848
 augmentation part       12.3744968 magnetization       0.0678125

 Broyden mixing:
  rms(total) = 0.47652E+01    rms(broyden)= 0.47646E+01
  rms(prec ) = 0.55226E+01
  weight for this iteration     100.00

 Free energy of the ion-electron system (eV)
  ---------------------------------------------------
  alpha Z        PSCENC =       167.23218672
  Ewald energy   TEWEN  =     28883.98222963
  -Hartree energ DENC   =    -38562.82574189
  -exchange      EXHF   =         0.00000000
  -V(xc)+E(xc)   XCENC  =      1022.13687062
  PAW double counting   =      9455.23336183    -9546.47664214
  entropy T*S    EENTRO =         0.00000000
  eigenvalues    EBANDS =     -4783.77005484
  atomic energy  EATOM  =     12644.75315347
  Solvation  Ediel_sol  =         0.00000000
  ---------------------------------------------------
  free energy    TOTEN  =      -719.73463659 eV

  energy without entropy =     -719.73463659  energy(sigma->0) =     -719.73463659


--------------------------------------------------------------------------------------------------------




--------------------------------------- Iteration      1(   6)  ---------------------------------------


    POTLOK:  cpu time    0.1501: real time    0.1522
    SETDIJ:  cpu time    0.0102: real time    0.0106
     EDDAV:  cpu time   12.6608: real time   12.7652
 BZINTS: Fermi energy: -5.523899;303.000000 electrons
         Band energy:***********;  BLOECHL correction: -0.018502
       DOS:  cpu time    0.0120: real time    0.0121
    CHARGE:  cpu time    0.1624: real time    0.1684
    MIXING:  cpu time    0.0033: real time    0.0036
    --------------------------------------------
      LOOP:  cpu time   12.9988: real time   13.1122

 eigenvalue-minimisations  :  4856
 total energy-change (2. order) :-0.2839654E+00  (-0.9146271E+01)
 number of electron     303.0000009 magnetization       0.0143023
 augmentation part       18.0113487 magnetization       0.0245528

 Broyden mixing:
  rms(total) = 0.74415E+01    rms(broyden)= 0.74412E+01
  rms(prec ) = 0.85182E+01
  weight for this iteration     100.00

 eigenvalues of (default mixing * dielectric matrix)
  average eigenvalue GAMMA=   0.2846
  0.2846

 Free energy of the ion-electron system (eV)
  ---------------------------------------------------
  alpha Z        PSCENC =       167.23218672
  Ewald energy   TEWEN  =     28883.98222963
  -Hartree energ DENC   =    -38938.30347145
  -exchange      EXHF   =         0.00000000
  -V(xc)+E(xc)   XCENC  =      1034.92335423
  PAW double counting   =     13240.37518312   -13331.58443879
  entropy T*S    EENTRO =         0.00000000
  eigenvalues    EBANDS =     -4421.39679896
  atomic energy  EATOM  =     12644.75315347
  Solvation  Ediel_sol  =         0.00000000
  ---------------------------------------------------
  free energy    TOTEN  =      -720.01860203 eV

  energy without entropy =     -720.01860203  energy(sigma->0) =     -720.01860203


--------------------------------------------------------------------------------------------------------




--------------------------------------- Iteration      1(   7)  ---------------------------------------


    POTLOK:  cpu time    0.1364: real time    0.1444
    SETDIJ:  cpu time    0.0087: real time    0.0088
     EDDAV:  cpu time   12.9873: real time   13.0703
 BZINTS: Fermi energy: -4.119172;303.000000 electrons
         Band energy:***********;  BLOECHL correction: -0.012568
       DOS:  cpu time    0.0126: real time    0.0126
    CHARGE:  cpu time    0.1642: real time    0.1682
    MIXING:  cpu time    0.0034: real time    0.0034
    --------------------------------------------
      LOOP:  cpu time   13.3127: real time   13.4076

 eigenvalue-minimisations  :  5040
 total energy-change (2. order) : 0.4648305E+02  (-0.6271046E+01)
 number of electron     302.9999999 magnetization       0.5633851
 augmentation part       14.4764182 magnetization       0.3730860

 Broyden mixing:
  rms(total) = 0.26564E+01    rms(broyden)= 0.26558E+01
  rms(prec ) = 0.29250E+01
  weight for this iteration     100.00

 eigenvalues of (default mixing * dielectric matrix)
  average eigenvalue GAMMA=   0.6352
  0.9529  0.3176

 Free energy of the ion-electron system (eV)
  ---------------------------------------------------
  alpha Z        PSCENC =       167.23218672
  Ewald energy   TEWEN  =     28883.98222963
  -Hartree energ DENC   =    -39080.02679469
  -exchange      EXHF   =         0.00000000
  -V(xc)+E(xc)   XCENC  =      1039.41638774
  PAW double counting   =     14476.44937963   -14572.21667341
  entropy T*S    EENTRO =         0.00000000
  eigenvalues    EBANDS =     -4233.12541916
  atomic energy  EATOM  =     12644.75315347
  Solvation  Ediel_sol  =         0.00000000
  ---------------------------------------------------
  free energy    TOTEN  =      -673.53555006 eV

  energy without entropy =     -673.53555006  energy(sigma->0) =     -673.53555006


--------------------------------------------------------------------------------------------------------




--------------------------------------- Iteration      1(   8)  ---------------------------------------


    POTLOK:  cpu time    0.1403: real time    0.1427
    SETDIJ:  cpu time    0.0087: real time    0.0087
     EDDAV:  cpu time   12.6883: real time   12.8321
 BZINTS: Fermi energy: -2.437725;303.000000 electrons
         Band energy:***********;  BLOECHL correction: -0.031009
       DOS:  cpu time    0.0103: real time    0.0103
    CHARGE:  cpu time    0.1626: real time    0.1647
    MIXING:  cpu time    0.0032: real time    0.0032
    --------------------------------------------
      LOOP:  cpu time   13.0134: real time   13.1619

 eigenvalue-minimisations  :  4816
 total energy-change (2. order) : 0.3772200E+01  (-0.3381509E+01)
 number of electron     302.9999973 magnetization       0.1754528
 augmentation part       12.2425124 magnetization       0.1534413

 Broyden mixing:
  rms(total) = 0.26191E+01    rms(broyden)= 0.26183E+01
  rms(prec ) = 0.30933E+01
  weight for this iteration     100.00

 eigenvalues of (default mixing * dielectric matrix)
  average eigenvalue GAMMA=   1.1255
  2.5836  0.3965  0.3965

 Free energy of the ion-electron system (eV)
  ---------------------------------------------------
  alpha Z        PSCENC =       167.23218672
  Ewald energy   TEWEN  =     28883.98222963
  -Hartree energ DENC   =    -39370.32301178
  -exchange      EXHF   =         0.00000000
  -V(xc)+E(xc)   XCENC  =      1049.25823460
  PAW double counting   =     18187.97598065   -18286.97130363
  entropy T*S    EENTRO =         0.00000000
  eigenvalues    EBANDS =     -3945.67081971
  atomic energy  EATOM  =     12644.75315347
  Solvation  Ediel_sol  =         0.00000000
  ---------------------------------------------------
  free energy    TOTEN  =      -669.76335005 eV

  energy without entropy =     -669.76335005  energy(sigma->0) =     -669.76335005


--------------------------------------------------------------------------------------------------------




--------------------------------------- Iteration      1(   9)  ---------------------------------------


    POTLOK:  cpu time    0.1446: real time    0.1468
    SETDIJ:  cpu time    0.0087: real time    0.0087
     EDDAV:  cpu time   12.1977: real time   12.2899
 BZINTS: Fermi energy: -2.818475;303.000000 electrons
         Band energy:***********;  BLOECHL correction: -0.082958
       DOS:  cpu time    0.0114: real time    0.0114
    CHARGE:  cpu time    0.1637: real time    0.1651
    MIXING:  cpu time    0.0035: real time    0.0036
    --------------------------------------------
      LOOP:  cpu time   12.5296: real time   12.6255

 eigenvalue-minimisations  :  4624
 total energy-change (2. order) : 0.4847394E+01  (-0.2518432E+01)
 number of electron     303.0000005 magnetization      -0.1136562
 augmentation part       15.0674694 magnetization      -0.1314227

 Broyden mixing:
  rms(total) = 0.21455E+01    rms(broyden)= 0.21440E+01
  rms(prec ) = 0.27637E+01
  weight for this iteration     100.00

 eigenvalues of (default mixing * dielectric matrix)
  average eigenvalue GAMMA=   1.0656
  2.7575  0.8026  0.3511  0.3511

 Free energy of the ion-electron system (eV)
  ---------------------------------------------------
  alpha Z        PSCENC =       167.23218672
  Ewald energy   TEWEN  =     28883.98222963
  -Hartree energ DENC   =    -39786.19258467
  -exchange      EXHF   =         0.00000000
  -V(xc)+E(xc)   XCENC  =      1064.39596574
  PAW double counting   =     25947.30114347   -26049.66210364
  entropy T*S    EENTRO =         0.00000000
  eigenvalues    EBANDS =     -3536.72594693
  atomic energy  EATOM  =     12644.75315347
  Solvation  Ediel_sol  =         0.00000000
  ---------------------------------------------------
  free energy    TOTEN  =      -664.91595619 eV

  energy without entropy =     -664.91595619  energy(sigma->0) =     -664.91595619


--------------------------------------------------------------------------------------------------------




--------------------------------------- Iteration      1(  10)  ---------------------------------------


    POTLOK:  cpu time    0.1386: real time    0.1408
    SETDIJ:  cpu time    0.0086: real time    0.0086
     EDDAV:  cpu time   13.5142: real time   13.7386
 BZINTS: Fermi energy: -1.278235;303.000000 electrons
         Band energy:***********;  BLOECHL correction: -0.054852
       DOS:  cpu time    0.0111: real time    0.0111
    CHARGE:  cpu time    0.1936: real time    0.1944
    MIXING:  cpu time    0.0041: real time    0.0041
    --------------------------------------------
      LOOP:  cpu time   13.8702: real time   14.0977

 eigenvalue-minimisations  :  5224
 total energy-change (2. order) : 0.2835737E+01  (-0.2041142E+01)
 number of electron     302.9999994 magnetization      -0.1484264
 augmentation part       12.6491163 magnetization      -0.0873260

 Broyden mixing:
  rms(total) = 0.11206E+01    rms(broyden)= 0.11186E+01
  rms(prec ) = 0.13129E+01
  weight for this iteration     100.00

 eigenvalues of (default mixing * dielectric matrix)
  average eigenvalue GAMMA=   1.1778
  3.4009  1.1823  0.6464  0.3298  0.3298

 Free energy of the ion-electron system (eV)
  ---------------------------------------------------
  alpha Z        PSCENC =       167.23218672
  Ewald energy   TEWEN  =     28883.98222963
  -Hartree energ DENC   =    -39818.18293684
  -exchange      EXHF   =         0.00000000
  -V(xc)+E(xc)   XCENC  =      1065.64450168
  PAW double counting   =     27866.89712338   -27969.75737671
  entropy T*S    EENTRO =         0.00000000
  eigenvalues    EBANDS =     -3502.64910034
  atomic energy  EATOM  =     12644.75315347
  Solvation  Ediel_sol  =         0.00000000
  ---------------------------------------------------
  free energy    TOTEN  =      -662.08021901 eV

  energy without entropy =     -662.08021901  energy(sigma->0) =     -662.08021901


--------------------------------------------------------------------------------------------------------




--------------------------------------- Iteration      1(  11)  ---------------------------------------


    POTLOK:  cpu time    0.1458: real time    0.1480
    SETDIJ:  cpu time    0.0107: real time    0.0107
     EDDAV:  cpu time   13.4913: real time   13.5849
 BZINTS: Fermi energy: -1.724249;303.000000 electrons
         Band energy:***********;  BLOECHL correction: -0.011467
       DOS:  cpu time    0.0123: real time    0.0127
    CHARGE:  cpu time    0.1670: real time    0.1677
    MIXING:  cpu time    0.0037: real time    0.0037
    --------------------------------------------
      LOOP:  cpu time   13.8307: real time   13.9276

 eigenvalue-minimisations  :  5264
 total energy-change (2. order) : 0.5558199E+00  (-0.1382273E+00)
 number of electron     302.9999999 magnetization      -0.7489054
 augmentation part       13.3958519 magnetization      -0.3771098

 Broyden mixing:
  rms(total) = 0.71239E+00    rms(broyden)= 0.71133E+00
  rms(prec ) = 0.72651E+00
  weight for this iteration     100.00

 eigenvalues of (default mixing * dielectric matrix)
  average eigenvalue GAMMA=   1.1423
  3.4266  1.4333  0.9737  0.3404  0.3404  0.3394

 Free energy of the ion-electron system (eV)
  ---------------------------------------------------
  alpha Z        PSCENC =       167.23218672
  Ewald energy   TEWEN  =     28883.98222963
  -Hartree energ DENC   =    -39804.23733795
  -exchange      EXHF   =         0.00000000
  -V(xc)+E(xc)   XCENC  =      1065.45003962
  PAW double counting   =     29584.56921898   -29686.94775156
  entropy T*S    EENTRO =         0.00000000
  eigenvalues    EBANDS =     -3516.32613804
  atomic energy  EATOM  =     12644.75315347
  Solvation  Ediel_sol  =         0.00000000
  ---------------------------------------------------
  free energy    TOTEN  =      -661.52439913 eV

  energy without entropy =     -661.52439913  energy(sigma->0) =     -661.52439913


--------------------------------------------------------------------------------------------------------




--------------------------------------- Iteration      1(  12)  ---------------------------------------


    POTLOK:  cpu time    0.1374: real time    0.1395
    SETDIJ:  cpu time    0.0109: real time    0.0111
     EDDAV:  cpu time   11.9841: real time   12.1546
 BZINTS: Fermi energy: -1.992227;303.000000 electrons
         Band energy:***********;  BLOECHL correction: -0.000184
       DOS:  cpu time    0.0126: real time    0.0128
    CHARGE:  cpu time    0.1660: real time    0.1673
    MIXING:  cpu time    0.0038: real time    0.0038
    --------------------------------------------
      LOOP:  cpu time   12.3149: real time   12.4892

 eigenvalue-minimisations  :  4600
 total energy-change (2. order) :-0.3534476E+00  (-0.6193795E-01)
 number of electron     302.9999999 magnetization      -0.9068849
 augmentation part       13.6852818 magnetization      -0.6300294

 Broyden mixing:
  rms(total) = 0.66081E+00    rms(broyden)= 0.66043E+00
  rms(prec ) = 0.73209E+00
  weight for this iteration     100.00

 eigenvalues of (default mixing * dielectric matrix)
  average eigenvalue GAMMA=   1.1963
  3.5377  1.4605  1.4605  0.6268  0.6268  0.3310  0.3310

 Free energy of the ion-electron system (eV)
  ---------------------------------------------------
  alpha Z        PSCENC =       167.23218672
  Ewald energy   TEWEN  =     28883.98222963
  -Hartree energ DENC   =    -39761.89937214
  -exchange      EXHF   =         0.00000000
  -V(xc)+E(xc)   XCENC  =      1064.25112822
  PAW double counting   =     30613.71711941   -30715.36004296
  entropy T*S    EENTRO =         0.00000000
  eigenvalues    EBANDS =     -3558.55424909
  atomic energy  EATOM  =     12644.75315347
  Solvation  Ediel_sol  =         0.00000000
  ---------------------------------------------------
  free energy    TOTEN  =      -661.87784674 eV

  energy without entropy =     -661.87784674  energy(sigma->0) =     -661.87784674


--------------------------------------------------------------------------------------------------------




--------------------------------------- Iteration      1(  13)  ---------------------------------------


    POTLOK:  cpu time    0.1373: real time    0.1394
    SETDIJ:  cpu time    0.0101: real time    0.0101
     EDDAV:  cpu time   13.1819: real time   13.4329
 BZINTS: Fermi energy: -2.086944;303.000000 electrons
         Band energy:***********;  BLOECHL correction:  0.000000
       DOS:  cpu time    0.0058: real time    0.0058
    CHARGE:  cpu time    0.1642: real time    0.1658
    MIXING:  cpu time    0.0040: real time    0.0040
    --------------------------------------------
      LOOP:  cpu time   13.5034: real time   13.7581

 eigenvalue-minimisations  :  5064
 total energy-change (2. order) :-0.1142621E+00  (-0.4618965E-01)
 number of electron     302.9999996 magnetization      -0.9026556
 augmentation part       13.6231488 magnetization      -0.8632001

 Broyden mixing:
  rms(total) = 0.42269E+00    rms(broyden)= 0.42257E+00
  rms(prec ) = 0.48340E+00
  weight for this iteration     100.00

 eigenvalues of (default mixing * dielectric matrix)
  average eigenvalue GAMMA=   1.2895
  3.6614  1.8282  1.8282  0.8953  0.8953  0.3316  0.3316  0.5446

 Free energy of the ion-electron system (eV)
  ---------------------------------------------------
  alpha Z        PSCENC =       167.23218672
  Ewald energy   TEWEN  =     28883.98222963
  -Hartree energ DENC   =    -39736.28647503
  -exchange      EXHF   =         0.00000000
  -V(xc)+E(xc)   XCENC  =      1063.72225188
  PAW double counting   =     31577.64274509   -31678.81883753
  entropy T*S    EENTRO =         0.00000000
  eigenvalues    EBANDS =     -3584.21936310
  atomic energy  EATOM  =     12644.75315347
  Solvation  Ediel_sol  =         0.00000000
  ---------------------------------------------------
  free energy    TOTEN  =      -661.99210888 eV

  energy without entropy =     -661.99210888  energy(sigma->0) =     -661.99210888


--------------------------------------------------------------------------------------------------------




--------------------------------------- Iteration      1(  14)  ---------------------------------------


    POTLOK:  cpu time    0.1369: real time    0.1392
    SETDIJ:  cpu time    0.0098: real time    0.0102
     EDDAV:  cpu time   12.1382: real time   12.2709
 BZINTS: Fermi energy: -2.091867;303.000000 electrons
         Band energy:***********;  BLOECHL correction:  0.000000
       DOS:  cpu time    0.0057: real time    0.0057
    CHARGE:  cpu time    0.1640: real time    0.1649
    MIXING:  cpu time    0.0038: real time    0.0038
    --------------------------------------------
      LOOP:  cpu time   12.4584: real time   12.5947

 eigenvalue-minimisations  :  4584
 total energy-change (2. order) :-0.4260831E-01  (-0.9868921E-02)
 number of electron     302.9999995 magnetization      -0.8889029
 augmentation part       13.6254166 magnetization      -0.9524095

 Broyden mixing:
  rms(total) = 0.37520E+00    rms(broyden)= 0.37517E+00
  rms(prec ) = 0.44029E+00
  weight for this iteration     100.00

 eigenvalues of (default mixing * dielectric matrix)
  average eigenvalue GAMMA=   1.3545
  3.6205  2.3365  2.3365  0.9829  0.9829  0.3314  0.3314  0.6340  0.6340

 Free energy of the ion-electron system (eV)
  ---------------------------------------------------
  alpha Z        PSCENC =       167.23218672
  Ewald energy   TEWEN  =     28883.98222963
  -Hartree energ DENC   =    -39735.64709084
  -exchange      EXHF   =         0.00000000
  -V(xc)+E(xc)   XCENC  =      1063.78777054
  PAW double counting   =     31769.55192329   -31870.63784757
  entropy T*S    EENTRO =         0.00000000
  eigenvalues    EBANDS =     -3585.05704243
  atomic energy  EATOM  =     12644.75315347
  Solvation  Ediel_sol  =         0.00000000
  ---------------------------------------------------
  free energy    TOTEN  =      -662.03471719 eV

  energy without entropy =     -662.03471719  energy(sigma->0) =     -662.03471719


--------------------------------------------------------------------------------------------------------




--------------------------------------- Iteration      1(  15)  ---------------------------------------


    POTLOK:  cpu time    0.1443: real time    0.1465
    SETDIJ:  cpu time    0.0087: real time    0.0087
     EDDAV:  cpu time   12.6383: real time   12.8223
 BZINTS: Fermi energy: -2.101400;303.000000 electrons
         Band energy:***********;  BLOECHL correction:  0.000000
       DOS:  cpu time    0.0047: real time    0.0051
    CHARGE:  cpu time    0.1620: real time    0.1626
    MIXING:  cpu time    0.0044: real time    0.0044
    --------------------------------------------
      LOOP:  cpu time   12.9624: real time   13.1496

 eigenvalue-minimisations  :  4736
 total energy-change (2. order) : 0.1458376E-01  (-0.8584008E-02)
 number of electron     302.9999994 magnetization      -0.9295319
 augmentation part       13.5788850 magnetization      -1.0916942

 Broyden mixing:
  rms(total) = 0.27540E+00    rms(broyden)= 0.27536E+00
  rms(prec ) = 0.33203E+00
  weight for this iteration     100.00

 eigenvalues of (default mixing * dielectric matrix)
  average eigenvalue GAMMA=   1.2849
  3.6371  2.3232  2.3232  1.0452  1.0452  0.3315  0.3315  0.6461  0.6461  0.5195

 Free energy of the ion-electron system (eV)
  ---------------------------------------------------
  alpha Z        PSCENC =       167.23218672
  Ewald energy   TEWEN  =     28883.98222963
  -Hartree energ DENC   =    -39735.19690143
  -exchange      EXHF   =         0.00000000
  -V(xc)+E(xc)   XCENC  =      1063.87596682
  PAW double counting   =     31785.67610446   -31886.70855370
  entropy T*S    EENTRO =         0.00000000
  eigenvalues    EBANDS =     -3585.63431940
  atomic energy  EATOM  =     12644.75315347
  Solvation  Ediel_sol  =         0.00000000
  ---------------------------------------------------
  free energy    TOTEN  =      -662.02013343 eV

  energy without entropy =     -662.02013343  energy(sigma->0) =     -662.02013343


--------------------------------------------------------------------------------------------------------




--------------------------------------- Iteration      1(  16)  ---------------------------------------


    POTLOK:  cpu time    0.1362: real time    0.1382
    SETDIJ:  cpu time    0.0087: real time    0.0087
     EDDAV:  cpu time   12.2927: real time   12.4093
 BZINTS: Fermi energy: -2.094524;303.000000 electrons
         Band energy:***********;  BLOECHL correction:  0.000000
       DOS:  cpu time    0.0044: real time    0.0044
    CHARGE:  cpu time    0.1627: real time    0.1672
    MIXING:  cpu time    0.0042: real time    0.0045
    --------------------------------------------
      LOOP:  cpu time   12.6088: real time   12.7323

 eigenvalue-minimisations  :  4704
 total energy-change (2. order) : 0.1262866E-01  (-0.1339381E-02)
 number of electron     302.9999993 magnetization      -0.9467638
 augmentation part       13.5487635 magnetization      -1.1250475

 Broyden mixing:
  rms(total) = 0.22443E+00    rms(broyden)= 0.22442E+00
  rms(prec ) = 0.27227E+00
  weight for this iteration     100.00

 eigenvalues of (default mixing * dielectric matrix)
  average eigenvalue GAMMA=   1.3383
  3.5704  2.5817  2.5817  1.1095  1.1095  0.8781  0.8781  0.3314  0.3314  0.7725
  0.5773

 Free energy of the ion-electron system (eV)
  ---------------------------------------------------
  alpha Z        PSCENC =       167.23218672
  Ewald energy   TEWEN  =     28883.98222963
  -Hartree energ DENC   =    -39733.97576068
  -exchange      EXHF   =         0.00000000
  -V(xc)+E(xc)   XCENC  =      1063.86494263
  PAW double counting   =     31815.13637771   -31916.13296671
  entropy T*S    EENTRO =         0.00000000
  eigenvalues    EBANDS =     -3586.86766754
  atomic energy  EATOM  =     12644.75315347
  Solvation  Ediel_sol  =         0.00000000
  ---------------------------------------------------
  free energy    TOTEN  =      -662.00750477 eV

  energy without entropy =     -662.00750477  energy(sigma->0) =     -662.00750477


[...]
   0.718E+01 -.105E+01 0.449E+01   -.689E+01 0.929E+00 -.443E+01   -.263E+00 0.742E-01 -.534E-01   -.192E-01 0.475E-02 -.209E-02
   0.280E+02 0.921E+01 0.150E+02   -.271E+02 -.952E+01 -.155E+02   -.898E+00 0.463E+00 0.628E+00   -.741E-01 -.264E-01 -.257E-01
   0.282E+02 -.106E+02 0.150E+02   -.273E+02 0.109E+02 -.156E+02   -.932E+00 -.447E+00 0.620E+00   -.787E-01 0.235E-01 -.260E-01
   -.267E+02 0.991E+01 0.140E+02   0.256E+02 -.104E+02 -.145E+02   0.108E+01 0.654E+00 0.528E+00   0.772E-01 -.253E-01 -.254E-01
   -.264E+02 -.628E+01 0.138E+02   0.249E+02 0.623E+01 -.143E+02   0.157E+01 -.118E+00 0.472E+00   0.799E-01 0.245E-01 -.255E-01
   -.783E+01 0.497E+01 0.732E+01   0.767E+01 -.539E+01 -.729E+01   0.132E+00 0.489E+00 -.269E-01   0.150E-01 0.215E-02 -.162E-02
   -.745E+01 0.713E+01 0.746E+01   0.735E+01 -.804E+01 -.742E+01   0.107E+00 0.838E+00 -.378E-01   0.149E-01 0.351E-02 -.151E-02
   -.115E+02 0.409E+01 0.781E+01   0.117E+02 -.544E+01 -.785E+01   -.223E+00 0.136E+01 0.423E-01   0.733E-02 0.265E-02 -.109E-02
   -.256E+02 0.935E+01 0.682E+01   0.310E+02 -.125E+02 -.681E+01   -.536E+01 0.308E+01 -.772E-02   0.111E-01 0.105E-02 -.889E-03
   0.928E+00 -.298E+01 0.574E+01   -.622E+00 0.286E+01 -.577E+01   -.317E+00 0.160E+00 0.214E-01   -.994E-02 0.663E-02 -.139E-02
   -.849E+00 -.423E+01 0.543E+01   0.146E+01 0.393E+01 -.540E+01   -.615E+00 0.266E+00 -.304E-01   -.916E-02 0.367E-02 -.107E-02
   0.139E+02 -.795E+01 0.662E+01   -.135E+02 0.779E+01 -.670E+01   -.357E+00 0.128E+00 0.111E+00   -.300E-01 0.976E-02 -.445E-02
   0.589E+01 -.124E+02 0.753E+01   -.555E+01 0.124E+02 -.750E+01   -.342E+00 0.178E-01 -.253E-01   -.217E-01 0.124E-01 -.256E-02
   -.548E+01 -.374E+02 0.281E+02   0.119E+02 0.336E+02 -.273E+02   -.613E+01 0.358E+01 -.820E+00   -.981E-01 0.108E+00 -.661E-01
   0.757E+00 -.219E+02 0.132E+02   -.508E+00 0.208E+02 -.134E+02   -.225E+00 0.103E+01 0.226E+00   -.219E-01 0.501E-01 -.155E-01
   0.942E+01 -.344E+02 0.240E+02   -.163E+02 0.303E+02 -.230E+02   0.650E+01 0.385E+01 -.953E+00   0.102E+00 0.107E+00 -.646E-01
   0.336E+01 -.218E+02 0.121E+02   -.429E+01 0.204E+02 -.122E+02   0.882E+00 0.141E+01 0.162E+00   0.287E-01 0.468E-01 -.148E-01
   -.806E+01 0.965E+00 0.806E+01   0.736E+01 -.256E+01 -.812E+01   0.626E+00 0.157E+01 0.944E-01   0.270E-01 0.557E-02 -.391E-02
   0.170E+02 0.171E+01 0.773E+01   -.225E+02 -.494E+01 -.754E+01   0.555E+01 0.323E+01 -.191E+00   0.135E-01 0.850E-02 -.216E-02
   -.398E+01 -.514E+01 0.100E+02   0.381E+01 0.497E+01 -.102E+02   0.430E-01 0.165E+00 0.156E+00   0.131E-01 0.891E-02 -.109E-02
   -.206E+01 -.306E+02 0.794E+01   0.201E+01 0.368E+02 -.796E+01   0.340E-01 -.626E+01 0.258E-01   0.587E-02 0.560E-02 -.748E-03
   -.106E+02 -.925E+00 0.623E+01   0.119E+02 0.136E+01 -.625E+01   -.134E+01 -.457E+00 0.199E-01   0.107E-02 -.368E-03 -.785E-03
   -.654E+01 -.576E+01 0.625E+01   0.727E+01 0.621E+01 -.624E+01   -.745E+00 -.470E+00 -.125E-01   -.234E-02 -.361E-02 -.689E-03
   0.113E+01 -.303E+01 0.672E+01   -.807E+00 0.308E+01 -.675E+01   -.267E+00 -.484E-01 0.212E-01   -.132E-01 0.484E-02 -.116E-02
   0.130E+00 -.511E+01 0.703E+01   0.369E-01 0.515E+01 -.703E+01   -.176E+00 -.514E-01 0.174E-02   -.601E-02 -.135E-02 -.792E-03
   -.526E+00 -.911E+01 0.107E+02   0.107E+01 0.882E+01 -.108E+02   -.506E+00 0.272E+00 0.970E-01   -.163E-01 0.203E-01 -.347E-02
   0.269E+01 -.686E+01 0.908E+01   -.263E+01 0.667E+01 -.911E+01   -.764E-01 0.181E+00 0.402E-01   -.798E-02 0.111E-01 -.120E-02
   0.129E+01 -.924E+01 0.682E+01   -.149E+01 0.853E+01 -.648E+01   0.212E+00 0.705E+00 -.335E+00   0.188E-02 0.383E-01 -.968E-02
   0.214E+01 -.100E+02 0.786E+01   -.230E+01 0.954E+01 -.789E+01   0.193E+00 0.490E+00 0.287E-01   -.225E-03 0.157E-01 -.213E-02
   0.107E+02 -.797E+01 0.106E+02   -.127E+02 0.804E+01 -.107E+02   0.194E+01 -.544E-01 0.944E-01   0.157E-01 0.180E-01 -.313E-02
   0.454E+01 -.100E+02 0.895E+01   -.536E+01 0.102E+02 -.898E+01   0.821E+00 -.260E+00 0.320E-01   0.107E-01 0.918E-02 -.116E-02
   -.610E+00 -.181E+01 -.611E+03   0.940E+00 0.175E+01 0.593E+03   -.353E+00 0.101E+00 0.191E+02   0.140E-01 -.166E-01 -.103E+00
   -.635E+02 -.144E+03 0.107E+03   0.708E+02 0.160E+03 -.126E+03   -.774E+01 -.175E+02 0.204E+02   0.152E-03 -.664E-03 0.112E-01
   0.559E+02 0.126E+03 -.139E+03   -.715E+02 -.162E+03 0.181E+03   0.162E+02 0.365E+02 -.426E+02   0.137E-03 -.942E-03 0.712E-02
 -----------------------------------------------------------------------------------------------
   -.829E+01 -.195E+02 0.370E+01   -.426E-12 0.227E-12 -.227E-12   0.828E+01 0.195E+02 -.309E+01   0.735E-02 -.765E-02 -.616E+00
 
 
 POSITION                                       TOTAL-FORCE (eV/Angst)
 -----------------------------------------------------------------------------------
      7.43611     12.73987      7.25382         0.021630      0.003017      0.002436
      0.00842      1.41394      7.25489        -0.005640      0.004632      0.002627
      2.47683      0.01256      7.25244         0.014135     -0.006321      0.002079
      2.47361      1.43810      7.26290         0.047644      0.003541      0.001714
      4.95066      0.02203      7.25512         0.011275      0.027536     -0.004581
      4.95278      1.44577      7.26486        -0.052175     -0.045693     -0.004003
      0.00100     12.75241      7.25496         0.004592      0.002308      0.004140
      7.43240      1.41740      7.25388        -0.023195     -0.006891      0.002524
      2.48027     12.72581      7.26279         0.038386      0.024094     -0.000811
      9.91270      1.38926      7.25219        -0.005608     -0.033456     -0.001091
      4.95689     12.72469      7.26460        -0.035225      0.002587     -0.006200
     12.38584      1.39073      7.25515        -0.021910     -0.001671     -0.005740
     13.62091      2.10375      7.25634         0.019861      0.007114     -0.002950
     -1.24642      3.52828      7.26642         0.046948      0.016070     -0.005666
      1.23848      2.14121      7.26449        -0.020296     -0.026643      0.005624
      1.23680      3.56739      7.29006         0.017513     -0.010245      0.003180
      3.71444      2.16587      7.28005        -0.006457     -0.048175      0.000936
      3.71679      3.58698      7.32612         0.000749      0.005014     -0.008081
      6.19336      2.14239      7.26528         0.021584      0.009039      0.000562
      6.19633      3.56722      7.28984        -0.025526     -0.017389     -0.004464
      8.67720      2.10842      7.25192        -0.003062      0.021939      0.001792
      8.68183      3.52917      7.25940        -0.086947     -0.005712      0.000869
     11.14958      2.10069      7.25334         0.047506     -0.002606     -0.002334
     11.14932      3.52241      7.25549        -0.012188      0.024444     -0.003753
     12.37921      4.23460      7.26392        -0.011401      0.045123     -0.006078
     -2.48926      5.66506      7.27071        -0.011960     -0.042971     -0.008922
     -0.01503      4.24596      7.28928        -0.026115     -0.025245     -0.000892
     -0.03999      5.66276      7.31521         0.003269      0.018233      0.023833
      2.47309      4.30906      7.33996         0.024678     -0.034679      0.005430
      2.42794      5.72154      7.43100         0.200970      0.089592     -0.079513
      4.96057      4.30920      7.34227        -0.050862      0.034098      0.001506
      5.00784      5.72714      7.43530        -0.239399      0.094067     -0.060146
      7.44900      4.24552      7.28367         0.054195     -0.002743     -0.001101
      7.47291      5.66273      7.30732        -0.036786      0.043919      0.021355
      9.91619      4.23730      7.25773         0.060622      0.060600     -0.000866
      9.92327      5.66009      7.26273         0.014483     -0.032113     -0.002646
     -3.71571      6.38250      7.26334        -0.008991     -0.007955     -0.006784
     -3.71624      7.80760      7.26322        -0.022206      0.001123     -0.004488
     -1.26896      6.37733      7.29374         0.013307      0.054549     -0.003639
     -1.26914      7.79864      7.29370         0.008789     -0.040367     -0.004086
      1.17840      6.36936      7.36810        -0.061432      0.119703      0.006213
      1.17896      7.80403      7.36788        -0.105971     -0.111562      0.003760
      6.25712      6.37307      7.36805         0.131022      0.141827     -0.010273
      6.25956      7.81284      7.36824         0.124778     -0.136637     -0.000744
      8.70159      6.37635      7.28169        -0.007377      0.068137      0.000160
      8.70284      7.79356      7.28135         0.023624     -0.064856     -0.003208
     -4.94870      8.52391      7.26260         0.026584      0.019435     -0.004315
     -4.95661      9.94361      7.25803         0.055988     -0.027788      0.000876
     -2.49100      8.51417      7.27076        -0.022209      0.047434     -0.008847
     -2.49117      9.93544      7.26389        -0.013514     -0.027456     -0.005208
     -0.04136      8.51164      7.31479         0.018091     -0.017479      0.029483
     -0.01773      9.92748      7.28898        -0.027323      0.001202     -0.000568
      2.42817      8.45022      7.42966         0.216620     -0.079219     -0.077664
      2.47666      9.86259      7.34029         0.015697     -0.016149      0.001665
      5.01097      8.45043      7.43677        -0.243466     -0.117585     -0.033588
      4.97132      9.86076      7.34288        -0.028784      0.004008      0.003987
      7.48398      8.51867      7.30687        -0.048075     -0.006871      0.026074
      7.46186      9.93229      7.28400         0.097211      0.012421      0.000268
     -6.17927     10.64581      7.26012        -0.114006      0.007955      0.005278
     -6.18420     12.05151      7.25268        -0.011418     -0.035360      0.004204
     -3.72587     10.65376      7.25552        -0.019866     -0.017853     -0.000502
     -3.71093     12.07232      7.25334        -0.024243     -0.024106     -0.001974
     -1.25373     10.64385      7.26633         0.046889      0.002207     -0.004482
     -1.24389     12.06093      7.25644        -0.014155     -0.010862     -0.003605
      1.23620     10.60513      7.29001         0.024003      0.002336     -0.002688
      1.23902     12.02827      7.26454        -0.028176     -0.007823      0.002316
      3.72281     10.58221      7.32659         0.015869      0.023847     -0.004289
      3.71850     11.99915      7.27993         0.028409      0.022273     -0.000016
      6.21118     10.60803      7.28861        -0.034621      0.032289     -0.006078
      6.19407     12.03025      7.26447         0.017251     -0.025634     -0.004020
      3.71065      7.08428      8.11392        -0.003211      0.021912      0.243704
      3.71065      7.08428     14.09392        -0.489264     -1.108151      1.272243
      3.38963      6.35844     14.93926         0.488885      1.106643     -1.279934
 -----------------------------------------------------------------------------------
    total drift:                               -0.001767     -0.002099      0.001464


--------------------------------------------------------------------------------------------------------



  FREE ENERGIE OF THE ION-ELECTRON SYSTEM (eV)
  ---------------------------------------------------
  free  energy   TOTEN  =      -668.38765156 eV

  energy  without entropy=     -668.38765156  energy(sigma->0) =     -668.38765156
 


--------------------------------------------------------------------------------------------------------


    POTLOK:  cpu time    0.1464: real time    0.1467


--------------------------------------------------------------------------------------------------------


 stress matrix after NEB project (eV)
     -2.51772     -0.09885      0.39252
     -0.09885     -4.05495      0.92820
      0.39252      0.92820     -4.22952
  FORCES: max atom, RMS     1.761221    0.304004
  FORCE total and by dimension    2.597409    1.279934
  Stress total and by dimension    6.536143    4.229519
     LOOP+:  cpu time  301.3130: real time  304.9344
    4ORBIT:  cpu time    0.0000: real time    0.0000
 


 total charge     
 
# of ion       s       p       d       tot
------------------------------------------
    1        0.861   1.787   0.000   2.649
    2        0.862   1.778   0.000   2.640
    3        0.862   1.789   0.000   2.651
    4        0.862   1.780   0.000   2.641
    5        0.864   1.788   0.000   2.652
    6        0.864   1.782   0.000   2.646
    7        0.864   1.781   0.000   2.645
    8        0.864   1.778   0.000   2.642
    9        0.863   1.783   0.000   2.646
   10        0.865   1.780   0.000   2.645
   11        0.863   1.788   0.000   2.650
   12        0.865   1.782   0.000   2.647
   13        0.864   1.786   0.000   2.650
   14        0.865   1.787   0.000   2.653
   15        0.864   1.784   0.000   2.648
   16        0.863   1.771   0.000   2.634
   17        0.862   1.771   0.000   2.633
   18        0.863   1.769   0.000   2.632
   19        0.863   1.780   0.000   2.643
   20        0.864   1.771   0.000   2.635
   21        0.864   1.788   0.000   2.652
   22        0.866   1.786   0.000   2.652
   23        0.864   1.788   0.000   2.652
   24        0.866   1.788   0.000   2.654
   25        0.864   1.789   0.000   2.653
   26        0.867   1.794   0.000   2.662
   27        0.867   1.789   0.000   2.656
   28        0.871   1.804   0.000   2.674
   29        0.862   1.759   0.000   2.621
   30        0.874   1.688   0.000   2.563
   31        0.861   1.756   0.000   2.617
   32        0.873   1.684   0.000   2.557
   33        0.866   1.790   0.000   2.656
   34        0.871   1.802   0.000   2.673
   35        0.865   1.790   0.000   2.655
   36        0.868   1.795   0.000   2.664
   37        0.866   1.794   0.000   2.660
   38        0.865   1.793   0.000   2.659
   39        0.868   1.797   0.000   2.666
   40        0.867   1.798   0.000   2.666
   41        0.877   1.787   0.000   2.664
   42        0.876   1.788   0.000   2.664
   43        0.876   1.786   0.000   2.661
   44        0.875   1.785   0.000   2.660
   45        0.867   1.802   0.000   2.669
   46        0.869   1.803   0.000   2.671
   47        0.865   1.802   0.000   2.667
   48        0.852   1.757   0.000   2.609
   49        0.868   1.800   0.000   2.669
   50        0.863   1.787   0.000   2.650
   51        0.871   1.803   0.000   2.674
   52        0.866   1.788   0.000   2.654
   53        0.875   1.688   0.000   2.563
   54        0.861   1.757   0.000   2.618
   55        0.875   1.692   0.000   2.567
   56        0.860   1.755   0.000   2.615
   57        0.868   1.810   0.000   2.678
   58        0.855   1.754   0.000   2.609
   59        1.210   2.702   0.000   3.912
   60        0.853   1.752   0.000   2.606
   61        0.863   1.793   0.000   2.657
   62        0.865   1.792   0.000   2.657
   63        0.865   1.787   0.000   2.652
   64        0.865   1.787   0.000   2.653
   65        0.863   1.770   0.000   2.633
   66        0.864   1.780   0.000   2.644
   67        0.862   1.769   0.000   2.632
   68        0.863   1.772   0.000   2.635
   69        0.861   1.777   0.000   2.638
   70        0.865   1.783   0.000   2.648
   71        0.390   6.285   4.282  10.957
   72        1.036   1.403   0.000   2.439
   73        1.637   3.514   0.000   5.151
--------------------------------------------------
tot         63.984 136.603   4.282 204.869
 


 magnetization (x)
 
# of ion       s       p       d       tot
------------------------------------------
    1       -0.000  -0.000   0.000  -0.000
    2        0.000   0.004   0.000   0.004
    3       -0.000  -0.001   0.000  -0.002
    4        0.001   0.010   0.000   0.010
    5       -0.000  -0.003   0.000  -0.004
    6        0.001   0.013   0.000   0.014
    7       -0.000  -0.001   0.000  -0.001
    8        0.000   0.005   0.000   0.005
    9        0.000   0.004   0.000   0.005
   10        0.000   0.004   0.000   0.005
   11        0.000   0.007   0.000   0.007
   12        0.000   0.005   0.000   0.005
   13       -0.000  -0.001   0.000  -0.001
   14        0.000   0.006   0.000   0.006
   15       -0.000   0.000   0.000   0.000
   16        0.001   0.008   0.000   0.010
   17       -0.001  -0.007   0.000  -0.008
   18        0.002   0.029   0.000   0.030
   19       -0.000  -0.001   0.000  -0.001
   20        0.001   0.008   0.000   0.009
   21       -0.000  -0.002   0.000  -0.002
   22        0.001   0.011   0.000   0.012
   23        0.000   0.005   0.000   0.005
   24       -0.000   0.001   0.000   0.001
   25        0.000   0.005   0.000   0.005
   26        0.000   0.005   0.000   0.006
   27       -0.000  -0.001   0.000  -0.002
   28        0.000   0.005   0.000   0.005
   29       -0.001  -0.008   0.000  -0.009
   30        0.015   0.087   0.000   0.102
   31       -0.001  -0.009   0.000  -0.010
   32        0.015   0.089   0.000   0.105
   33       -0.000  -0.002   0.000  -0.002
   34        0.001   0.006   0.000   0.007
   35        0.000   0.004   0.000   0.004
   36        0.000   0.007   0.000   0.007
   37       -0.000  -0.001   0.000  -0.001
   38        0.000   0.003   0.000   0.003
   39        0.000   0.003   0.000   0.003
   40        0.001   0.010   0.000   0.011
   41       -0.001   0.006   0.000   0.005
   42       -0.000   0.013   0.000   0.012
   43       -0.001   0.005   0.000   0.004
   44       -0.000   0.010   0.000   0.010
   45       -0.000   0.003   0.000   0.003
   46        0.001   0.019   0.000   0.020
   47       -0.000  -0.003   0.000  -0.003
   48        0.001   0.024   0.000   0.025
   49       -0.000  -0.001   0.000  -0.002
   50        0.001   0.012   0.000   0.013
   51        0.000   0.002   0.000   0.002
   52       -0.000   0.001   0.000   0.001
   53        0.015   0.080   0.000   0.095
   54       -0.001  -0.004   0.000  -0.005
   55        0.015   0.083   0.000   0.097
   56       -0.001  -0.005   0.000  -0.006
   57        0.000   0.004   0.000   0.004
   58       -0.000  -0.004   0.000  -0.004
   59        0.000   0.012   0.000   0.012
   60        0.000   0.007   0.000   0.007
   61       -0.001  -0.004   0.000  -0.005
   62        0.001   0.017   0.000   0.018
   63       -0.000   0.001   0.000   0.001
   64        0.000   0.006   0.000   0.006
   65        0.001   0.003   0.000   0.004
   66        0.000   0.005   0.000   0.006
   67        0.001   0.022   0.000   0.024
   68       -0.001  -0.005   0.000  -0.006
   69        0.001   0.005   0.000   0.006
   70        0.000   0.003   0.000   0.003
   71       -0.035   0.014  -1.960  -1.982
   72        0.000   0.000   0.000   0.000
   73       -0.000  -0.000   0.000  -0.000
--------------------------------------------------
tot          0.034   0.634  -1.960  -1.292
 
 BZINTS: Fermi energy: -2.024309;303.000000 electrons
         Band energy:***********;  BLOECHL correction: -0.001678

 total amount of memory used by VASP MPI-rank0   116147. kBytes
=======================================================================

   base      :      30000. kBytes
   nonl-proj :      27330. kBytes
   fftplans  :       4700. kBytes
   grid      :      15193. kBytes
   one-center:        217. kBytes
   wavefun   :      38707. kBytes
 
  
  
 General timing and accounting informations for this job:
 ========================================================
  
                  Total CPU time used (sec):      319.053
                            User time (sec):      310.214
                          System time (sec):        8.840
                         Elapsed time (sec):      332.147
  
                   Maximum memory used (kb):      473804.
                   Average memory used (kb):           0.
  
                          Minor page faults:      1595652
                          Major page faults:            0
                 Voluntary context switches:         8623
