 vasp.5.4.4.18Apr17-6-g9f103f2a35 (build Jan 14 2022 15:04:31) complex          
  
 executed on             LinuxIFC date 2023.01.23  23:30:16
 running on   48 total cores
 distrk:  each k-point on   48 cores,    1 groups
 distr:  one band on NCORES_PER_BAND=  12 cores,    4 groups


--------------------------------------------------------------------------------------------------------


 INCAR:
 POTCAR:    PAW_PBE C 08Apr2002                   
 POTCAR:    PAW_PBE N 08Apr2002                   
 POTCAR:    PAW_PBE C 08Apr2002                   
 POTCAR:    PAW_PBE Cr_pv 02Aug2007               
 POTCAR:    PAW_PBE C 08Apr2002                   
   SHA256 =  253f7b50bb8d59471dbedb8285d89021f4a42ed1a2c5d38a03a736e69125dd95 C/
   COPYR  = (c) Copyright 08Apr2002 Georg Kresse                                
   COPYR  = This file is part of the software VASP. Any use, copying, and all ot
   COPYR  = If you do not have a valid VASP license, you may not use, copy or di
   VRHFIN =C: s2p2                                                              
   LEXCH  = PE                                                                  
   EATOM  =   147.1560 eV,   10.8157 Ry                                         
                                                                                
   TITEL  = PAW_PBE C 08Apr2002                                                 
   LULTRA =        F    use ultrasoft PP ?                                      
   IUNSCR =        1    unscreen: 0-lin 1-nonlin 2-no                           
   RPACOR =    1.200    partial core radius                                     
   POMASS =   12.011; ZVAL   =    4.000    mass and valenz                      
   RCORE  =    1.500    outmost cutoff radius                                   
   RWIGS  =    1.630; RWIGS  =    0.863    wigner-seitz radius (au A)           
   ENMAX  =  400.000; ENMIN  =  300.000 eV                                      
   ICORE  =        2    local potential                                         
   LCOR   =        T    correct aug charges                                     
   LPAW   =        T    paw PP                                                  
   EAUG   =  644.873                                                            
   DEXC   =    0.000                                                            
   RMAX   =    1.529    core radius for proj-oper                               
   RAUG   =    1.300    factor for augmentation sphere                          
   RDEP   =    1.501    radius for radial grids                                 
   RDEPT  =    1.300    core radius for aug-charge                              
                                                                                
   Atomic configuration                                                         
    4 entries                                                                   
     n  l   j            E        occ.                                          
     1  0  0.50      -273.3789   2.0000                                         
     2  0  0.50       -13.7508   2.0000                                         
     2  1  0.50        -5.2854   2.0000                                         
     3  2  1.50        -5.4423   0.0000                                         
   Description                                                                  
     l       E           TYP  RCUT    TYP  RCUT                                 
     0    -13.7508458     23  1.200                                             
     0     -8.2022199     23  1.200                                             
     1     -5.2854383     23  1.500                                             
     1     34.0145650     23  1.500                                             
     2     -5.4423304      7  1.500                                             
  local pseudopotential read in
  partial core-charges read in
  partial kinetic energy density read in
  atomic valenz-charges read in
  non local Contribution for L=           0  read in
    real space projection operators read in
  non local Contribution for L=           0  read in
    real space projection operators read in
  non local Contribution for L=           1  read in
    real space projection operators read in
  non local Contribution for L=           1  read in
    real space projection operators read in
    PAW grid and wavefunctions read in
 
   number of l-projection  operators is LMAX  =           4
   number of lm-projection operators is LMMAX =           8
 
 POTCAR:    PAW_PBE N 08Apr2002                   
   SHA256 =  e053789ff3a61a86a1b75d8a110fcc91f86041011e7b0817c7c99e4e8a6349d7 N/
   COPYR  = (c) Copyright 08Apr2002 Georg Kresse                                
   COPYR  = This file is part of the software VASP. Any use, copying, and all ot
   COPYR  = If you do not have a valid VASP license, you may not use, copy or di
   VRHFIN =N: s2p3                                                              
   LEXCH  = PE                                                                  
   EATOM  =   264.5486 eV,   19.4438 Ry                                         
                                                                                
   TITEL  = PAW_PBE N 08Apr2002                                                 
   LULTRA =        F    use ultrasoft PP ?                                      
   IUNSCR =        1    unscreen: 0-lin 1-nonlin 2-no                           
   RPACOR =    1.200    partial core radius                                     
   POMASS =   14.001; ZVAL   =    5.000    mass and valenz                      
   RCORE  =    1.500    outmost cutoff radius                                   
   RWIGS  =    1.400; RWIGS  =    0.741    wigner-seitz radius (au A)           
   ENMAX  =  400.000; ENMIN  =  300.000 eV                                      
   ICORE  =        2    local potential                                         
   LCOR   =        T    correct aug charges                                     
   LPAW   =        T    paw PP                                                  
   EAUG   =  627.112                                                            
   DEXC   =    0.000                                                            
   RMAX   =    1.529    core radius for proj-oper                               
   RAUG   =    1.300    factor for augmentation sphere                          
   RDEP   =    1.514    radius for radial grids                                 
   RDEPT  =    1.338    core radius for aug-charge                              
                                                                                
   Atomic configuration                                                         
    4 entries                                                                   
     n  l   j            E        occ.                                          
     1  0  0.50      -384.7179   2.0000                                         
     2  0  0.50       -18.5828   2.0000                                         
     2  1  0.50        -7.0898   3.0000                                         
     3  2  1.50        -6.8029   0.0000                                         
   Description                                                                  
     l       E           TYP  RCUT    TYP  RCUT                                 
     0    -18.5828119     23  1.200                                             
     0    -13.5018863     23  1.200                                             
     1     -7.0897853     23  1.500                                             
     1      9.5240782     23  1.500                                             
     2     -6.8029130      7  1.500                                             
  local pseudopotential read in
  partial core-charges read in
  partial kinetic energy density read in
  atomic valenz-charges read in
  non local Contribution for L=           0  read in
    real space projection operators read in
  non local Contribution for L=           0  read in
    real space projection operators read in
  non local Contribution for L=           1  read in
    real space projection operators read in
  non local Contribution for L=           1  read in
    real space projection operators read in
    PAW grid and wavefunctions read in
 
   number of l-projection  operators is LMAX  =           4
   number of lm-projection operators is LMMAX =           8
 
 POTCAR:    PAW_PBE C 08Apr2002                   
   SHA256 =  253f7b50bb8d59471dbedb8285d89021f4a42ed1a2c5d38a03a736e69125dd95 C/
   COPYR  = (c) Copyright 08Apr2002 Georg Kresse                                
   COPYR  = This file is part of the software VASP. Any use, copying, and all ot
   COPYR  = If you do not have a valid VASP license, you may not use, copy or di
   VRHFIN =C: s2p2                                                              
   LEXCH  = PE                                                                  
   EATOM  =   147.1560 eV,   10.8157 Ry                                         
                                                                                
   TITEL  = PAW_PBE C 08Apr2002                                                 
   LULTRA =        F    use ultrasoft PP ?                                      
   IUNSCR =        1    unscreen: 0-lin 1-nonlin 2-no                           
   RPACOR =    1.200    partial core radius                                     
   POMASS =   12.011; ZVAL   =    4.000    mass and valenz                      
   RCORE  =    1.500    outmost cutoff radius                                   
   RWIGS  =    1.630; RWIGS  =    0.863    wigner-seitz radius (au A)           
   ENMAX  =  400.000; ENMIN  =  300.000 eV                                      
   ICORE  =        2    local potential                                         
   LCOR   =        T    correct aug charges                                     
   LPAW   =        T    paw PP                                                  
   EAUG   =  644.873                                                            
   DEXC   =    0.000                                                            
   RMAX   =    1.529    core radius for proj-oper                               
   RAUG   =    1.300    factor for augmentation sphere                          
   RDEP   =    1.501    radius for radial grids                                 
   RDEPT  =    1.300    core radius for aug-charge                              
                                                                                
   Atomic configuration                                                         
    4 entries                                                                   
     n  l   j            E        occ.                                          
     1  0  0.50      -273.3789   2.0000                                         
     2  0  0.50       -13.7508   2.0000                                         
     2  1  0.50        -5.2854   2.0000                                         
     3  2  1.50        -5.4423   0.0000                                         
   Description                                                                  
     l       E           TYP  RCUT    TYP  RCUT                                 
     0    -13.7508458     23  1.200                                             
     0     -8.2022199     23  1.200                                             
     1     -5.2854383     23  1.500                                             
     1     34.0145650     23  1.500                                             
     2     -5.4423304      7  1.500                                             
  local pseudopotential read in
  partial core-charges read in
  partial kinetic energy density read in
  atomic valenz-charges read in
  non local Contribution for L=           0  read in
    real space projection operators read in
  non local Contribution for L=           0  read in
    real space projection operators read in
  non local Contribution for L=           1  read in
    real space projection operators read in
  non local Contribution for L=           1  read in
    real space projection operators read in
    PAW grid and wavefunctions read in
 
   number of l-projection  operators is LMAX  =           4
   number of lm-projection operators is LMMAX =           8
 
 POTCAR:    PAW_PBE Cr_pv 02Aug2007               
   SHA256 =  c9a7df34d3cdbacf1090e328ef39c0b420964e11c23f63548d1ac9dd218cdba0 Cr
   COPYR  = (c) Copyright 02Aug2007 Georg Kresse                                
   COPYR  = This file is part of the software VASP. Any use, copying, and all ot
   COPYR  = If you do not have a valid VASP license, you may not use, copy or di
   VRHFIN =Cr : p6d5s1                                                          
   LEXCH  = PE                                                                  
   EATOM  =  1647.9177 eV,  121.1185 Ry                                         
                                                                                
   TITEL  = PAW_PBE Cr_pv 02Aug2007                                             
   LULTRA =        F    use ultrasoft PP ?                                      
   IUNSCR =        1    unscreen: 0-lin 1-nonlin 2-no                           
   RPACOR =    2.080    partial core radius                                     
   POMASS =   51.996; ZVAL   =   12.000    mass and valenz                      
   RCORE  =    2.300    outmost cutoff radius                                   
   RWIGS  =    2.500; RWIGS  =    1.323    wigner-seitz radius (au A)           
   ENMAX  =  265.681; ENMIN  =  199.261 eV                                      
   ICORE  =        3    local potential                                         
   LCOR   =        T    correct aug charges                                     
   LPAW   =        T    paw PP                                                  
   EAUG   =  519.424                                                            
   DEXC   =    0.000                                                            
   RMAX   =    2.356    core radius for proj-oper                               
   RAUG   =    1.300    factor for augmentation sphere                          
   RDEP   =    2.447    radius for radial grids                                 
   RDEPT  =    1.882    core radius for aug-charge                              
                                                                                
   Atomic configuration                                                         
    8 entries                                                                   
     n  l   j            E        occ.                                          
     1  0  0.50     -5880.4963   2.0000                                         
     2  0  0.50      -667.0865   2.0000                                         
     2  1  1.50      -560.6250   6.0000                                         
     3  0  0.50       -73.9860   2.0000                                         
     3  1  1.50       -45.4378   6.0000                                         
     3  2  2.50        -2.9137   5.0000                                         
     4  0  0.50        -4.0071   1.0000                                         
     4  3  2.50        -1.3606   0.0000                                         
   Description                                                                  
     l       E           TYP  RCUT    TYP  RCUT                                 
     1    -45.4377911     23  2.000                                             
     1      1.3605826     23  2.000                                             
     2     -2.9136672     23  2.300                                             
     2     -4.2742498     23  2.300                                             
     0     -4.0071320     23  2.300                                             
     0      9.4498803     23  2.300                                             
     3      2.7211652     23  2.300                                             
  local pseudopotential read in
  partial core-charges read in
  partial kinetic energy density read in
  atomic valenz-charges read in
  non local Contribution for L=           1  read in
    real space projection operators read in
  non local Contribution for L=           1  read in
    real space projection operators read in
  non local Contribution for L=           2  read in
    real space projection operators read in
  non local Contribution for L=           2  read in
    real space projection operators read in
  non local Contribution for L=           0  read in
    real space projection operators read in
  non local Contribution for L=           0  read in
    real space projection operators read in
    PAW grid and wavefunctions read in
 
   number of l-projection  operators is LMAX  =           6
   number of lm-projection operators is LMMAX =          18
 
 Optimization of the real space projectors (new method)

 maximal supplied QI-value         = 25.13
 optimisation between [QCUT,QGAM] = [ 10.56, 21.36] = [ 31.20,127.80] Ry 
 Optimized for a Real-space Cutoff    1.32 Angstroem

   l    n(q)    QCUT    max X(q) W(low)/X(q) W(high)/X(q)  e(spline) 
   0      8    10.556   115.676    0.17E-03    0.39E-03    0.26E-06
   0      8    10.556    87.132    0.17E-03    0.39E-03    0.26E-06
   1      8    10.556     4.429    0.24E-03    0.31E-03    0.16E-06
   1      8    10.556     2.733    0.17E-03    0.22E-03    0.19E-06
 Optimization of the real space projectors (new method)

 maximal supplied QI-value         = 25.13
 optimisation between [QCUT,QGAM] = [ 10.56, 21.36] = [ 31.20,127.80] Ry 
 Optimized for a Real-space Cutoff    1.40 Angstroem

   l    n(q)    QCUT    max X(q) W(low)/X(q) W(high)/X(q)  e(spline) 
   0      9    10.556    79.467    0.20E-03    0.22E-03    0.30E-06
   0      9    10.556    66.151    0.20E-03    0.22E-03    0.30E-06
   1      8    10.556    12.181    0.10E-03    0.78E-03    0.19E-05
   1      8    10.556     8.434    0.11E-03    0.81E-03    0.19E-05
 Optimization of the real space projectors (new method)

 maximal supplied QI-value         = 25.13
 optimisation between [QCUT,QGAM] = [ 10.56, 21.36] = [ 31.20,127.80] Ry 
 Optimized for a Real-space Cutoff    1.32 Angstroem

   l    n(q)    QCUT    max X(q) W(low)/X(q) W(high)/X(q)  e(spline) 
   0      8    10.556   115.676    0.17E-03    0.39E-03    0.26E-06
   0      8    10.556    87.132    0.17E-03    0.39E-03    0.26E-06
   1      8    10.556     4.429    0.24E-03    0.31E-03    0.16E-06
   1      8    10.556     2.733    0.17E-03    0.22E-03    0.19E-06
 Optimization of the real space projectors (new method)

 maximal supplied QI-value         = 16.25
 optimisation between [QCUT,QGAM] = [ 10.73, 21.45] = [ 32.22,128.87] Ry 
 Optimized for a Real-space Cutoff    1.53 Angstroem

   l    n(q)    QCUT    max X(q) W(low)/X(q) W(high)/X(q)  e(spline) 
   1      9    10.726     3.262    0.64E-04    0.35E-04    0.11E-06
   1      9    10.726     5.741    0.13E-03    0.48E-04    0.19E-06
   2      9    10.726    60.438    0.12E-03    0.29E-04    0.13E-06
   2      9    10.726    55.380    0.12E-03    0.29E-04    0.13E-06
   0     10    10.726    80.273    0.43E-04    0.74E-05    0.81E-07
   0     10    10.726    36.654    0.34E-04    0.61E-05    0.73E-07
  PAW_PBE C 08Apr2002                   :
 energy of atom  1       EATOM= -147.1560
 kinetic energy error for atom=    0.0132 (will be added to EATOM!!)
  PAW_PBE N 08Apr2002                   :
 energy of atom  2       EATOM= -264.5486
 kinetic energy error for atom=    0.0298 (will be added to EATOM!!)
  PAW_PBE C 08Apr2002                   :
 energy of atom  3       EATOM= -147.1560
 kinetic energy error for atom=    0.0132 (will be added to EATOM!!)
  PAW_PBE Cr_pv 02Aug2007               :
 energy of atom  4       EATOM=-1647.9177
 kinetic energy error for atom=    0.0134 (will be added to EATOM!!)
 
 
 POSCAR: POSCAR-clean                            
  positions in direct lattice
  velocities in cartesian coordinates
 exchange correlation table for  LEXCH =        8
   RHO(1)=    0.500       N(1)  =     2000
   RHO(2)=  100.500       N(2)  =     4000

 VTST: version 3.2, (02/03/18)

 CHAIN: initializing optimizer
 
 OPT: Using VASP Conjugate-Gradient optimizer
 CHAIN: Read ICHAIN            0
 
 POSCAR: POSCAR-clean                            
  positions in direct lattice
  velocities in cartesian coordinates
 


--------------------------------------------------------------------------------------------------------


 ion  position               nearest neighbor table
   1  1.000  1.000  0.498-  60 1.42   2 1.42  70 1.44
   2  0.056  0.111  0.498-  13 1.42   1 1.42  15 1.43
   3  0.168  0.002  0.498-   4 1.42  62 1.43  60 1.43
   4  0.224  0.113  0.498-   3 1.42  15 1.42  17 1.43
   5  0.334  0.002  0.498-   6 1.42  64 1.42  62 1.43
   6  0.390  0.113  0.498-  19 1.42   5 1.42  17 1.43
   7  0.501  0.000  0.498-  64 1.43  66 1.43   8 1.43
   8  0.557  0.112  0.498-  21 1.42   7 1.43  19 1.43
   9  0.666  0.999  0.498-  66 1.42  10 1.43  68 1.44
  10  0.722  0.110  0.498-  21 1.42  23 1.42   9 1.43
  11  0.832  0.998  0.498-  70 1.42  12 1.42  68 1.43
  12  0.888  0.110  0.498-  23 1.42  11 1.42  13 1.43
  13  0.999  0.166  0.498-  14 1.42   2 1.42  12 1.43
  14  0.054  0.277  0.498-  13 1.42  25 1.43  27 1.43
  15  0.168  0.168  0.498-   4 1.42  16 1.42   2 1.43
  16  0.223  0.280  0.500-  15 1.42  27 1.42  29 1.44
  17  0.335  0.170  0.499-  18 1.42   6 1.43   4 1.43
  18  0.391  0.281  0.502-  17 1.42  29 1.43  31 1.44
  19  0.501  0.168  0.498-   6 1.42  20 1.42   8 1.43
  20  0.558  0.280  0.500-  33 1.42  19 1.42  31 1.45
  21  0.667  0.167  0.498-  22 1.41   8 1.42  10 1.42
  22  0.723  0.277  0.498-  21 1.41  35 1.41  33 1.41
  23  0.833  0.165  0.498-  24 1.42  12 1.42  10 1.42
  24  0.887  0.276  0.498-  23 1.42  35 1.42  25 1.43
  25  0.999  0.333  0.498-  26 1.42  14 1.43  24 1.43
  26  0.055  0.444  0.499-  37 1.41  39 1.42  25 1.42
  27  0.166  0.333  0.500-  28 1.42  16 1.42  14 1.43
  28  0.220  0.444  0.502-  41 1.41  27 1.42  39 1.42
  29  0.336  0.338  0.503-  30 1.42  18 1.43  16 1.44
  30  0.389  0.449  0.508-  41 1.41  29 1.42  71 1.98
  31  0.503  0.338  0.504-  32 1.42  18 1.44  20 1.45
  32  0.561  0.449  0.510-  43 1.40  31 1.42  71 2.00
  33  0.668  0.333  0.500-  22 1.41  34 1.41  20 1.42
  34  0.725  0.443  0.502-  33 1.41  43 1.42  45 1.42
  35  0.832  0.332  0.498-  22 1.41  36 1.42  24 1.42
  36  0.888  0.443  0.498-  45 1.41  35 1.42  37 1.43
  37  1.000  0.499  0.498-  26 1.41  38 1.42  36 1.43
  38  0.055  0.611  0.498-  47 1.42  49 1.42  37 1.42
  39  0.165  0.500  0.501-  26 1.42  28 1.42  40 1.42
  40  0.221  0.611  0.501-  49 1.41  39 1.42  51 1.42
  41  0.330  0.500  0.505-  30 1.41  28 1.41  42 1.43
  42  0.386  0.612  0.505-  53 1.41  51 1.41  41 1.43
  43  0.670  0.499  0.505-  32 1.40  34 1.42  44 1.44
  44  0.726  0.611  0.505-  55 1.41  57 1.41  43 1.44
  45  0.835  0.500  0.500-  36 1.41  46 1.42  34 1.42
  46  0.891  0.611  0.500-  45 1.42  47 1.42  57 1.42
  47  0.001  0.667  0.498-  46 1.42  38 1.42  48 1.42
  48  0.056  0.779  0.498-  59 1.42  47 1.42  61 1.43
  49  0.166  0.667  0.499-  40 1.41  38 1.42  50 1.43
  50  0.223  0.779  0.498-  61 1.42  63 1.42  49 1.43
  51  0.332  0.667  0.502-  42 1.41  52 1.42  40 1.42
  52  0.388  0.778  0.500-  51 1.42  65 1.42  63 1.42
  53  0.496  0.663  0.509-  42 1.41  54 1.42  71 1.97
  54  0.553  0.774  0.503-  53 1.42  67 1.43  65 1.44
  55  0.666  0.661  0.509-  44 1.41  56 1.42  71 1.99
  56  0.720  0.773  0.503-  55 1.42  67 1.43  69 1.44
  57  0.836  0.667  0.502-  44 1.41  58 1.42  46 1.42
  58  0.890  0.778  0.500-  57 1.42  69 1.42  59 1.43
  59  0.001  0.834  0.498-  60 1.42  48 1.42  58 1.43
  60  0.057  0.946  0.498-  59 1.42   1 1.42   3 1.43
  61  0.168  0.835  0.498-  50 1.42  62 1.42  48 1.43
  62  0.223  0.946  0.498-  61 1.42   5 1.43   3 1.43
  63  0.334  0.834  0.498-  64 1.42  50 1.42  52 1.42
  64  0.390  0.946  0.498-  63 1.42   5 1.42   7 1.43
  65  0.499  0.832  0.500-  52 1.42  66 1.43  54 1.44
  66  0.555  0.943  0.499-   9 1.42  65 1.43   7 1.43
  67  0.665  0.830  0.502-  68 1.42  54 1.43  56 1.43
  68  0.721  0.942  0.499-  67 1.42  11 1.43   9 1.44
  69  0.832  0.831  0.500-  58 1.42  70 1.43  56 1.44
  70  0.888  0.943  0.498-  11 1.42  69 1.43   1 1.44
  71  0.526  0.556  0.555-  53 1.97  30 1.98  55 1.99  32 2.00
 

IMPORTANT INFORMATION: All symmetrisations will be switched off!
NOSYMM: (Re-)initialisation of all symmetry stuff for point group C_1.

 
 
 KPOINTS: K-Points                                

Automatic generation of k-mesh.
Space group operators:
 irot       det(A)        alpha          n_x          n_y          n_z        tau_x        tau_y        tau_z
    1     1.000000     0.000000     1.000000     0.000000     0.000000     0.000000     0.000000     0.000000
 
 Subroutine IBZKPT returns following result:
 ===========================================
 
 Found      4 irreducible k-points:
 
 Following reciprocal coordinates:
            Coordinates               Weight
  0.000000  0.000000  0.000000      1.000000
  0.500000  0.000000  0.000000      1.000000
 -0.000000  0.500000  0.000000      1.000000
  0.500000  0.500000  0.000000      1.000000
 
 Following cartesian coordinates:
            Coordinates               Weight
  0.000000  0.000000  0.000000      1.000000
  0.033689  0.019604  0.000000      1.000000
 -0.000004  0.039208  0.000000      1.000000
  0.033684  0.058812  0.000000      1.000000
 


--------------------------------------------------------------------------------------------------------




 Dimension of arrays:
   k-points           NKPTS =      4   k-points in BZ     NKDIM =      4   number of bands    NBANDS=    184
   number of dos      NEDOS =    301   number of ions     NIONS =     71
   non local maximal  LDIM  =      6   non local SUM 2l+1 LMDIM =     18
   total plane-waves  NPLWV = ******
   max r-space proj   IRMAX =   6654   max aug-charges    IRDMAX=  15638
   dimension x,y,z NGX =   108 NGY =  108 NGZ =  108
   dimension x,y,z NGXF=   216 NGYF=  216 NGZF=  216
   support grid    NGXF=   216 NGYF=  216 NGZF=  216
   ions per type =              21   1  48   1
   NGX,Y,Z   is equivalent  to a cutoff of  12.10, 12.17, 11.97 a.u.
   NGXF,Y,Z  is equivalent  to a cutoff of  24.20, 24.34, 23.94 a.u.

 SYSTEM =  unknown system                          
 POSCAR =  POSCAR-clean                            

 Startparameter for this run:
   NWRITE =      2    write-flag & timer
   PREC   = accura    normal or accurate (medium, high low for compatibility)
   ISTART =      0    job   : 0-new  1-cont  2-samecut
   ICHARG =      2    charge: 1-file 2-atom 10-const
   ISPIN  =      2    spin polarized calculation?
   LNONCOLLINEAR =      F non collinear calculations
   LSORBIT =      F    spin-orbit coupling
   INIWAV =      1    electr: 0-lowe 1-rand  2-diag
   LASPH  =      F    aspherical Exc in radial PAW
   METAGGA=      F    non-selfconsistent MetaGGA calc.

 Electronic Relaxation 1
   ENCUT  =  440.0 eV  32.34 Ry    5.69 a.u.  25.38 25.23 25.66*2*pi/ulx,y,z
   ENINI  =  440.0     initial cutoff
   ENAUG  =  644.9 eV  augmentation charge cutoff
   NELM   =     50;   NELMIN=  2; NELMDL= -5     # of ELM steps 
   EDIFF  = 0.1E-04   stopping-criterion for ELM
   LREAL  =      T    real-space projection
   NLSPLINE    = F    spline interpolate recip. space projectors
   LCOMPAT=      F    compatible to vasp.4.4
   GGA_COMPAT  = T    GGA compatible to vasp.4.4-vasp.4.6
   LMAXPAW     = -100 max onsite density
   LMAXMIX     =    2 max onsite mixed and CHGCAR
   VOSKOWN=      0    Vosko Wilk Nusair interpolation
   ROPT   =   -0.00025  -0.00025  -0.00025  -0.00025
 Ionic relaxation
   EDIFFG = -.5E-01   stopping-criterion for IOM
   NSW    =    400    number of steps for IOM
   NBLOCK =      1;   KBLOCK =    400    inner block; outer block 
   IBRION =      2    ionic relax: 0-MD 1-quasi-New 2-CG
   NFREE  =      1    steps in history (QN), initial steepest desc. (CG)
   ISIF   =      2    stress and relaxation
   IWAVPR =     11    prediction:  0-non 1-charg 2-wave 3-comb
   ISYM   =      0    0-nonsym 1-usesym 2-fastsym
   LCORR  =      T    Harris-Foulkes like correction to forces

   POTIM  = 0.1000    time-step for ionic-motion
   TEIN   =    0.0    initial temperature
   TEBEG  =    0.0;   TEEND  =   0.0 temperature during run
   SMASS  =  -3.00    Nose mass-parameter (am)
   estimated Nose-frequenzy (Omega)   =  0.10E-29 period in steps =****** mass=  -0.503E-26a.u.
   SCALEE = 1.0000    scale energy and forces
   NPACO  =    256;   APACO  = 16.0  distance and # of slots for P.C.
   PSTRESS=    0.0 pullay stress

  Mass of Ions in am
   POMASS =  12.01 14.00 12.01 52.00
  Ionic Valenz
   ZVAL   =   4.00  5.00  4.00 12.00
  Atomic Wigner-Seitz radii
   RWIGS  =  -1.00 -1.00 -1.00 -1.00
  virtual crystal weights 
   VCA    =   1.00  1.00  1.00  1.00
   NELECT =     293.0000    total number of electrons
   NUPDOWN=      -1.0000    fix difference up-down

 DOS related values:
   EMIN   =  10.00;   EMAX   =-10.00  energy-range for DOS
   EFERMI =   0.00
   ISMEAR =     0;   SIGMA  =   0.10  broadening in eV -4-tet -1-fermi 0-gaus

 Electronic relaxation 2 (details)
   IALGO  =     58    algorithm
   LDIAG  =      T    sub-space diagonalisation (order eigenvalues)
   LSUBROT=      F    optimize rotation matrix (better conditioning)
   TURBO    =      0    0=normal 1=particle mesh
   IRESTART =      0    0=no restart 2=restart with 2 vectors
   NREBOOT  =      0    no. of reboots
   NMIN     =      0    reboot dimension
   EREF     =   0.00    reference energy to select bands
   IMIX   =      4    mixing-type and parameters
     AMIX     =   0.40;   BMIX     =  1.00
     AMIX_MAG =   1.60;   BMIX_MAG =  1.00
     AMIN     =   0.10
     WC   =   100.;   INIMIX=   1;  MIXPRE=   1;  MAXMIX= -45

 Intra band minimization:
   WEIMIN = 0.0010     energy-eigenvalue tresh-hold
   EBREAK =  0.14E-07  absolut break condition
   DEPER  =   0.30     relativ break condition  

   TIME   =   0.40     timestep for ELM

  volume/ion in A,a.u.               =      39.98       269.83
  Fermi-wavevector in a.u.,A,eV,Ry     =   0.767919  1.451157  8.023356  0.589700
  Thomas-Fermi vector in A             =   1.868580
 
 Write flags
   LWAVE        =      F    write WAVECAR
   LDOWNSAMPLE  =      F    k-point downsampling of WAVECAR
   LCHARG       =      F    write CHGCAR
   LVTOT        =      F    write LOCPOT, total local potential
   LVHAR        =      F    write LOCPOT, Hartree potential only
   LELF         =      F    write electronic localiz. function (ELF)
   LORBIT       =      0    0 simple, 1 ext, 2 COOP (PROOUT), +10 PAW based schemes


 Dipole corrections
   LMONO  =      F    monopole corrections only (constant potential shift)
   LDIPOL =      F    correct potential (dipole corrections)
   IDIPOL =      0    1-x, 2-y, 3-z, 4-all directions 
   EPSILON=  1.0000000 bulk dielectric constant

 Exchange correlation treatment:
   GGA     =    --    GGA type
   LEXCH   =     8    internal setting for exchange type
   VOSKOWN=      0    Vosko Wilk Nusair interpolation
   LHFCALC =     F    Hartree Fock is set to
   LHFONE  =     F    Hartree Fock one center treatment
   AEXX    =    0.0000 exact exchange contribution

 Linear response parameters
   LEPSILON=     F    determine dielectric tensor
   LRPA    =     F    only Hartree local field effects (RPA)
   LNABLA  =     F    use nabla operator in PAW spheres
   LVEL    =     F    velocity operator in full k-point grid
   LINTERFAST=   F  fast interpolation
   KINTER  =     0    interpolate to denser k-point grid
   CSHIFT  =0.1000    complex shift for real part using Kramers Kronig
   OMEGAMAX=  -1.0    maximum frequency
   DEG_THRESHOLD= 0.2000000E-02 threshold for treating states as degnerate
   RTIME   =   -0.100 relaxation time in fs
  (WPLASMAI=    0.000 imaginary part of plasma frequency in eV, 0.658/RTIME)
   DFIELD  = 0.0000000 0.0000000 0.0000000 field for delta impulse in time
 
 Orbital magnetization related:
   ORBITALMAG=     F  switch on orbital magnetization
   LCHIMAG   =     F  perturbation theory with respect to B field
   DQ        =  0.001000  dq finite difference perturbation B field
   LLRAUG    =     F  two centre corrections for induced B field



--------------------------------------------------------------------------------------------------------


 conjugate gradient relaxation of ions
 charge density and potential will be updated during run
 spin polarized calculation
 Conjugate gradient for all bands (Freysoldt, et al. PRB 79, 241103 (2009))
 preconditioned conjugated gradient                                        
 perform sub-space diagonalisation
    before iterative eigenvector-optimisation
 modified Broyden-mixing scheme, WC =      100.0
 initial mixing is a Kerker type mixing with AMIX =  0.4000 and BMIX =      1.0000
 Hartree-type preconditioning will be used
 using additional bands           37
 real space projection scheme for non local part
 use partial core corrections
 no Harris-corrections to forces 
 use gradient corrections 
 use of overlap-Matrix (Vanderbilt PP)
 Gauss-broadening in eV      SIGMA  =   0.10


--------------------------------------------------------------------------------------------------------


  energy-cutoff  :      440.00
  volume of cell :     2838.87
      direct lattice vectors                 reciprocal lattice vectors
    14.840819483  0.001624541  0.000000000     0.067377432  0.039207918  0.000000000
    -7.420409742 12.751714014  0.000000000    -0.000008584  0.078415835  0.000000000
     0.000000000  0.000000000 15.000000000     0.000000000  0.000000000  0.066666667

  length of vectors
    14.840819572 14.753599256 15.000000000     0.077954982  0.078415836  0.066666667


 
 k-points in units of 2pi/SCALE and weight: K-Points                                
   0.00000000  0.00000000  0.00000000       0.250
   0.03368872  0.01960396  0.00000000       0.250
  -0.00000429  0.03920792  0.00000000       0.250
   0.03368442  0.05881188  0.00000000       0.250
 
 k-points in reciprocal lattice and weights: K-Points                                
   0.00000000  0.00000000  0.00000000       0.250
   0.50000000  0.00000000  0.00000000       0.250
  -0.00000000  0.50000000  0.00000000       0.250
   0.50000000  0.50000000  0.00000000       0.250
 
 position of ions in fractional coordinates (direct lattice) 
   0.99992871  0.99981260  0.49766452
   0.05583702  0.11144826  0.49775128
   0.16789006  0.00185529  0.49750482
   0.22361314  0.11332450  0.49828997
   0.33438828  0.00173741  0.49760955
   0.39028182  0.11336899  0.49831295
   0.50080881  0.00039686  0.49775842
   0.55652696  0.11239574  0.49766930
   0.66578253  0.99859663  0.49834486
   0.72179711  0.11038032  0.49759995
   0.83221830  0.99794143  0.49836946
   0.88794674  0.10956522  0.49763727
   0.99930703  0.16585223  0.49772651
   0.05433782  0.27697754  0.49847358
   0.16760992  0.16821803  0.49849177
   0.22345157  0.27985420  0.50019506
   0.33539016  0.17016836  0.49936996
   0.39127905  0.28131890  0.50229768
   0.50076374  0.16807431  0.49833590
   0.55753886  0.27966102  0.50003876
   0.66716587  0.16674086  0.49764003
   0.72253471  0.27691479  0.49821610
   0.83280843  0.16508839  0.49757054
   0.88743783  0.27629087  0.49768418
   0.99876425  0.33250047  0.49819991
   0.05454728  0.44387540  0.49866424
   0.16572239  0.33309044  0.50025270
   0.21989047  0.44405492  0.50225854
   0.33603887  0.33791926  0.50306935
   0.38911496  0.44884344  0.50838319
   0.50332808  0.33825714  0.50354649
   0.56054847  0.44911633  0.50970308
   0.66814387  0.33251786  0.49988788
   0.72468395  0.44326780  0.50150772
   0.83229068  0.33188069  0.49794730
   0.88842890  0.44315876  0.49822833
   0.99958171  0.49920961  0.49806603
   0.05542870  0.61086695  0.49805150
   0.16499959  0.49984846  0.50057303
   0.22069658  0.61124050  0.50056610
   0.33001647  0.49952186  0.50539315
   0.38613813  0.61179728  0.50548148
   0.66975962  0.49864838  0.50540118
   0.72575430  0.61118054  0.50527521
   0.83522642  0.49999245  0.49973328
   0.89063846  0.61105938  0.49977866
   0.00106704  0.66707379  0.49820812
   0.05643440  0.77862038  0.49786466
   0.16625753  0.66701436  0.49862516
   0.22252070  0.77879370  0.49816660
   0.33152988  0.66718552  0.50228638
   0.38840508  0.77821847  0.50026235
   0.49592871  0.66262966  0.50869921
   0.55349008  0.77353370  0.50307603
   0.66631187  0.66142657  0.50918483
   0.71978470  0.77290487  0.50334280
   0.83570391  0.66691566  0.50157283
   0.88988675  0.77795929  0.49986309
   0.00104272  0.83412778  0.49809224
   0.05653409  0.94552705  0.49751711
   0.16753765  0.83459989  0.49762017
   0.22329176  0.94607312  0.49752612
   0.33354024  0.83440758  0.49845047
   0.38957950  0.94584153  0.49771484
   0.49924114  0.83153951  0.50019003
   0.55513708  0.94340205  0.49852163
   0.66520447  0.83015429  0.50223340
   0.72077417  0.94162612  0.49940151
   0.83212021  0.83110889  0.50011347
   0.88804734  0.94295005  0.49844591
   0.52646255  0.55575541  0.55516025
 
 position of ions in cartesian coordinates  (Angst):
   7.42074241 12.75094876  7.46496780
   0.00167534  1.42124704  7.46626921
   2.47785910  0.02393083  7.46257232
   2.47768800  1.44544487  7.47434948
   4.94970378  0.02269813  7.46414330
   4.95085764  1.44628294  7.47469424
   7.42946830  0.00587421  7.46637627
   7.42529367  1.43414249  7.46503957
   2.47076220 12.73490026  7.47517286
   9.89299344  1.40871082  7.46399932
   4.94566720 12.72681569  7.47554194
  12.36483848  1.39858688  7.46455899
  13.59984373  2.11652356  7.46589767
  -1.24886908  3.53202670  7.47710370
   1.23922190  2.14534047  7.47737652
   1.23957151  3.56898374  7.50292590
   3.71474584  2.17048311  7.49054938
   3.71940027  3.58793377  7.53446525
   6.18456397  2.14404911  7.47503845
   6.19913424  3.56706315  7.50058135
   8.66400274  2.12731563  7.46460049
   8.66818602  3.53231203  7.47324157
  11.13453602  2.10651291  7.46355814
  11.12011312  3.52462381  7.46526277
  12.35519026  4.24157340  7.47299861
  -2.48421105  5.66026078  7.47996366
  -0.01221150  4.24774326  7.50379055
  -0.03171472  5.66281855  7.53387817
   2.47959281  4.30959566  7.54604018
   2.44418264  5.72415527  7.62574788
   4.95979463  4.31417602  7.55319733
   4.98637147  5.72791361  7.64554613
   7.44838380  4.24125811  7.49831818
   7.46567494  5.65360154  7.52261575
   9.88918505  4.23339969  7.46920944
   9.89659325  5.65247711  7.47342488
  11.13027183  6.36740204  7.47099050
  -3.71027566  7.78969063  7.47077250
  -1.26035133  6.37419269  7.50859546
  -1.26033687  7.79472260  7.50849150
   1.19105803  6.37029602  7.58089720
   1.19081983  7.80209128  7.58222217
   6.23960630  6.35970960  7.58101767
   6.23557852  7.79477849  7.57912810
   8.68529568  6.37711753  7.49599919
   8.68349366  7.79350138  7.49667991
  -4.93412513  8.50633596  7.47312177
  -4.94014950  9.92883604  7.46796987
  -2.48212185  8.50584640  7.47937741
  -2.47657881  9.93131601  7.47249904
  -0.03061488  8.50829752  7.53429574
  -0.01045023  9.92425037  7.50393527
   2.44300488  8.45046952  7.63048814
   2.47430931  9.86477967  7.54614040
   4.98055805  8.43540491  7.63777251
   4.94692400  9.85703117  7.55014202
   7.45374342  8.50567546  7.52359242
   7.43387188  9.92176008  7.49794639
  -6.17409501 10.63656055  7.47138358
  -6.17718595 12.05718236  7.46275661
  -3.70667711 10.64285129  7.46430261
  -3.70641745 12.06441661  7.46289177
  -1.24163567 10.64066874  7.47675699
  -1.23685272 12.06173361  7.46572262
   1.23878375 10.60436505  7.50285051
   1.23825951 12.03089494  7.47782448
   3.71209455 10.58697074  7.53350104
   3.70962769 12.00851787  7.49102272
   6.18217724 10.59941472  7.50170207
   6.18227451 12.02567200  7.47668859
   3.68920278  7.08768936  8.32740371
 


--------------------------------------------------------------------------------------------------------


 k-point  1 :   0.0000 0.0000 0.0000  plane waves:   59513
 k-point  2 :   0.5000 0.0000 0.0000  plane waves:   59478
 k-point  3 :  -0.0000 0.5000 0.0000  plane waves:   59554
 k-point  4 :   0.5000 0.5000 0.0000  plane waves:   59486

 maximum and minimum number of plane-waves per node :      4994     4938

 maximum number of plane-waves:     59554
 maximum index in each direction: 
   IXMAX=   25   IYMAX=   25   IZMAX=   25
   IXMIN=  -25   IYMIN=  -25   IZMIN=  -25


 real space projection operators:
  total allocation   :      18911.77 KBytes
  max/ min on nodes  :       1626.84       1540.02


 parallel 3D FFT for wavefunctions:
    minimum data exchange during FFTs selected (reduces bandwidth)
 parallel 3D FFT for charge:
    minimum data exchange during FFTs selected (reduces bandwidth)


 total amount of memory used by VASP MPI-rank0   170545. kBytes
=======================================================================

   base      :      30000. kBytes
   nonlr-proj:       9909. kBytes
   fftplans  :      10852. kBytes
   grid      :      30996. kBytes
   one-center:        186. kBytes
   wavefun   :      88602. kBytes
 
     INWAV:  cpu time    0.0000: real time    0.0000
 Broyden mixing: mesh for mixing (old mesh)
   NGX = 51   NGY = 51   NGZ = 51
  (NGX  =216   NGY  =216   NGZ  =216)
  gives a total of 132651 points

 initial charge density was supplied:
 charge density of overlapping atoms calculated
 number of electron     293.0000000 magnetization       1.0000000
 keeping initial charge density in first step


--------------------------------------------------------------------------------------------------------


 Maximum index for non-local projection operator          552
 Maximum index for augmentation-charges          326 (set IRDMAX)


--------------------------------------------------------------------------------------------------------


 First call to EWALD:  gamma=   0.125
 Maximum number of real-space cells 3x 3x 3
 Maximum number of reciprocal cells 3x 3x 3

    FEWALD:  cpu time    0.0028: real time    0.0030


--------------------------------------- Iteration      1(   1)  ---------------------------------------


    POTLOK:  cpu time    0.4074: real time    0.4296
    SETDIJ:  cpu time    0.0130: real time    0.0131
    TRIAL :  cpu time   11.6829: real time   11.7899
    CORREC:  cpu time    0.0008: real time    0.0008
    --------------------------------------------
      LOOP:  cpu time   12.1369: real time   12.2707

 eigenvalue-minimisations  :  3376
 total energy-change (2. order) : 0.2460879E+04  (-0.1114356E+05)
 number of electron     293.0000000 magnetization       1.0000000
 augmentation part      293.0000000 magnetization       1.0000000

 Free energy of the ion-electron system (eV)
  ---------------------------------------------------
  alpha Z        PSCENC =       157.46681673
  Ewald energy   TEWEN  =     30502.85257052
  -Hartree energ DENC   =    -39663.54568678
  -exchange      EXHF   =         0.00000000
  -V(xc)+E(xc)   XCENC  =       983.15260023
  PAW double counting   =      9000.30529238    -9089.18527416
  entropy T*S    EENTRO =        -0.10661327
  eigenvalues    EBANDS =     -1495.33771446
  atomic energy  EATOM  =     12065.27733323
  ---------------------------------------------------
  free energy    TOTEN  =      2460.87932443 eV

  energy without entropy =     2460.98593769  energy(sigma->0) =     2460.93263106


--------------------------------------------------------------------------------------------------------




--------------------------------------- Iteration      1(   2)  ---------------------------------------


    TRIAL :  cpu time   14.6485: real time   14.7732
    CORREC:  cpu time    0.0008: real time    0.0008
    --------------------------------------------
      LOOP:  cpu time   14.6511: real time   14.7773

 eigenvalue-minimisations  :  4224
 total energy-change (2. order) :-0.2692627E+04  (-0.2571659E+04)
 number of electron     293.0000000 magnetization       1.0000000
 augmentation part      293.0000000 magnetization       1.0000000

 Free energy of the ion-electron system (eV)
  ---------------------------------------------------
  alpha Z        PSCENC =       157.46681673
  Ewald energy   TEWEN  =     30502.85257052
  -Hartree energ DENC   =    -39663.54568678
  -exchange      EXHF   =         0.00000000
  -V(xc)+E(xc)   XCENC  =       983.15260023
  PAW double counting   =      9000.30529238    -9089.18527416
  entropy T*S    EENTRO =        -0.01763859
  eigenvalues    EBANDS =     -4188.05346939
  atomic energy  EATOM  =     12065.27733323
  ---------------------------------------------------
  free energy    TOTEN  =      -231.74745582 eV

  energy without entropy =     -231.72981723  energy(sigma->0) =     -231.73863653


--------------------------------------------------------------------------------------------------------




--------------------------------------- Iteration      1(   3)  ---------------------------------------


    TRIAL :  cpu time   12.6261: real time   12.7491
    CORREC:  cpu time    0.0008: real time    0.0008
    --------------------------------------------
      LOOP:  cpu time   12.6297: real time   12.7534

 eigenvalue-minimisations  :  3552
 total energy-change (2. order) :-0.4554924E+03  (-0.4528153E+03)
 number of electron     293.0000000 magnetization       1.0000000
 augmentation part      293.0000000 magnetization       1.0000000

 Free energy of the ion-electron system (eV)
  ---------------------------------------------------
  alpha Z        PSCENC =       157.46681673
  Ewald energy   TEWEN  =     30502.85257052
  -Hartree energ DENC   =    -39663.54568678
  -exchange      EXHF   =         0.00000000
  -V(xc)+E(xc)   XCENC  =       983.15260023
  PAW double counting   =      9000.30529238    -9089.18527416
  entropy T*S    EENTRO =        -0.02715529
  eigenvalues    EBANDS =     -4643.53632189
  atomic energy  EATOM  =     12065.27733323
  ---------------------------------------------------
  free energy    TOTEN  =      -687.23982503 eV

  energy without entropy =     -687.21266974  energy(sigma->0) =     -687.22624738


--------------------------------------------------------------------------------------------------------




--------------------------------------- Iteration      1(   4)  ---------------------------------------


    TRIAL :  cpu time   12.9163: real time   13.0198
    CORREC:  cpu time    0.0008: real time    0.0008
    --------------------------------------------
      LOOP:  cpu time   12.9203: real time   13.0251

 eigenvalue-minimisations  :  3560
 total energy-change (2. order) :-0.1667990E+02  (-0.1653278E+02)
 number of electron     293.0000000 magnetization       1.0000000
 augmentation part      293.0000000 magnetization       1.0000000

 Free energy of the ion-electron system (eV)
  ---------------------------------------------------
  alpha Z        PSCENC =       157.46681673
  Ewald energy   TEWEN  =     30502.85257052
  -Hartree energ DENC   =    -39663.54568678
  -exchange      EXHF   =         0.00000000
  -V(xc)+E(xc)   XCENC  =       983.15260023
  PAW double counting   =      9000.30529238    -9089.18527416
  entropy T*S    EENTRO =        -0.03221900
  eigenvalues    EBANDS =     -4660.21115780
  atomic energy  EATOM  =     12065.27733323
  ---------------------------------------------------
  free energy    TOTEN  =      -703.91972465 eV

  energy without entropy =     -703.88750565  energy(sigma->0) =     -703.90361515


--------------------------------------------------------------------------------------------------------




--------------------------------------- Iteration      1(   5)  ---------------------------------------


    TRIAL :  cpu time   14.0182: real time   14.1396
    CORREC:  cpu time    0.0008: real time    0.0008
    CHARGE:  cpu time    0.4652: real time    0.4728
    --------------------------------------------
      LOOP:  cpu time   14.4873: real time   14.6175

 eigenvalue-minimisations  :  4056
 total energy-change (2. order) :-0.5423485E+00  (-0.5401885E+00)
 number of electron     292.9999980 magnetization       0.0682494
 augmentation part       11.6840275 magnetization       0.0451692

 Free energy of the ion-electron system (eV)
  ---------------------------------------------------
  alpha Z        PSCENC =       157.46681673
  Ewald energy   TEWEN  =     30502.85257052
  -Hartree energ DENC   =    -39663.54568678
  -exchange      EXHF   =         0.00000000
  -V(xc)+E(xc)   XCENC  =       983.15260023
  PAW double counting   =      9000.30529238    -9089.18527416
  entropy T*S    EENTRO =        -0.03312815
  eigenvalues    EBANDS =     -4660.75259714
  atomic energy  EATOM  =     12065.27733323
  ---------------------------------------------------
  free energy    TOTEN  =      -704.46207313 eV

  energy without entropy =     -704.42894498  energy(sigma->0) =     -704.44550906


--------------------------------------------------------------------------------------------------------




--------------------------------------- Iteration      1(   6)  ---------------------------------------


    POTLOK:  cpu time    0.3845: real time    0.3930
    SETDIJ:  cpu time    0.0125: real time    0.0130
    TRIAL :  cpu time    7.6146: real time    9.9692
    CORREC:  cpu time    2.0161: real time    2.0558
    CHARGE:  cpu time    0.5067: real time    0.5111
    --------------------------------------------
      LOOP:  cpu time   10.5353: real time   12.9440

 eigenvalue-minimisations  :     0
 total energy-change (2. order) : 0.1705008E+03  (-0.2639746E+02)
 number of electron     292.9999981 magnetization       0.0504784
 augmentation part       12.2096544 magnetization       0.0821135

 Free energy of the ion-electron system (eV)
  ---------------------------------------------------
  alpha Z        PSCENC =       157.46681673
  Ewald energy   TEWEN  =     30502.85257052
  -Hartree energ DENC   =    -41304.35998606
  -exchange      EXHF   =         0.00000000
  -V(xc)+E(xc)   XCENC  =      1040.73153701
  PAW double counting   =     28881.19242420   -28969.42098996
  entropy T*S    EENTRO =        -0.01028427
  eigenvalues    EBANDS =     -2907.66780224
  atomic energy  EATOM  =     12065.27733323
  ---------------------------------------------------
  free energy    TOTEN  =      -533.96122471 eV

  energy without entropy =     -533.95094044  energy(sigma->0) =     -533.95608257


--------------------------------------------------------------------------------------------------------




--------------------------------------- Iteration      1(   7)  ---------------------------------------


    POTLOK:  cpu time    0.3827: real time    0.3864
    SETDIJ:  cpu time    0.0154: real time    0.0155
    TRIAL :  cpu time    5.9785: real time    6.0198
    CORREC:  cpu time    1.9455: real time    1.9558
    CHARGE:  cpu time    0.4571: real time    0.4587
    --------------------------------------------
      LOOP:  cpu time    8.7815: real time    8.8394

 eigenvalue-minimisations  :     0
 total energy-change (2. order) :-0.5311534E+02  (-0.1571581E+02)
 number of electron     292.9999982 magnetization       0.5400287
 augmentation part       12.8207942 magnetization       0.3825386

 Free energy of the ion-electron system (eV)
  ---------------------------------------------------
  alpha Z        PSCENC =       157.46681673
  Ewald energy   TEWEN  =     30502.85257052
  -Hartree energ DENC   =    -41167.33677439
  -exchange      EXHF   =         0.00000000
  -V(xc)+E(xc)   XCENC  =      1036.26129836
  PAW double counting   =     29032.12292680   -29127.83271296
  entropy T*S    EENTRO =        -0.03130222
  eigenvalues    EBANDS =     -3085.87773856
  atomic energy  EATOM  =     12065.27733323
  ---------------------------------------------------
  free energy    TOTEN  =      -587.07656453 eV

  energy without entropy =     -587.04526231  energy(sigma->0) =     -587.06091342


--------------------------------------------------------------------------------------------------------




--------------------------------------- Iteration      1(   8)  ---------------------------------------


    POTLOK:  cpu time    0.4232: real time    0.4316
    SETDIJ:  cpu time    0.0155: real time    0.0155
    TRIAL :  cpu time    6.3012: real time    6.3383
    CORREC:  cpu time    1.9965: real time    2.0055
    CHARGE:  cpu time    0.4571: real time    0.4584
    --------------------------------------------
      LOOP:  cpu time    9.1952: real time    9.2521

 eigenvalue-minimisations  :     0
 total energy-change (2. order) :-0.3608618E+02  (-0.1112055E+02)
 number of electron     292.9999983 magnetization       1.0514306
 augmentation part       13.3618865 magnetization       0.7297315

 Free energy of the ion-electron system (eV)
  ---------------------------------------------------
  alpha Z        PSCENC =       157.46681673
  Ewald energy   TEWEN  =     30502.85257052
  -Hartree energ DENC   =    -41137.17283499
  -exchange      EXHF   =         0.00000000
  -V(xc)+E(xc)   XCENC  =      1034.95587574
  PAW double counting   =     29263.42751698   -29366.44333475
  entropy T*S    EENTRO =        -0.01556328
  eigenvalues    EBANDS =     -3143.49538961
  atomic energy  EATOM  =     12065.27733323
  ---------------------------------------------------
  free energy    TOTEN  =      -623.16274837 eV

  energy without entropy =     -623.14718509  energy(sigma->0) =     -623.15496673


--------------------------------------------------------------------------------------------------------




--------------------------------------- Iteration      1(   9)  ---------------------------------------


    POTLOK:  cpu time    0.4581: real time    0.4615
    SETDIJ:  cpu time    0.0153: real time    0.0153
    TRIAL :  cpu time    6.3022: real time    6.3395
    CORREC:  cpu time    1.9703: real time    1.9798
    CHARGE:  cpu time    0.4696: real time    0.4719
    --------------------------------------------
      LOOP:  cpu time    9.2181: real time    9.2717

 eigenvalue-minimisations  :     0
 total energy-change (2. order) :-0.1305084E+02  (-0.7883642E+01)
 number of electron     292.9999984 magnetization       1.1925234
 augmentation part       13.0528289 magnetization       0.8065524

 Free energy of the ion-electron system (eV)
  ---------------------------------------------------
  alpha Z        PSCENC =       157.46681673
  Ewald energy   TEWEN  =     30502.85257052
  -Hartree energ DENC   =    -41135.22584649
  -exchange      EXHF   =         0.00000000
  -V(xc)+E(xc)   XCENC  =      1034.33607649
  PAW double counting   =     29589.76750131   -29698.67587555
  entropy T*S    EENTRO =        -0.02474299
  eigenvalues    EBANDS =     -3151.99660532
  atomic energy  EATOM  =     12065.27733323
  ---------------------------------------------------
  free energy    TOTEN  =      -636.21359236 eV

  energy without entropy =     -636.18884937  energy(sigma->0) =     -636.20122086


--------------------------------------------------------------------------------------------------------




--------------------------------------- Iteration      1(  10)  ---------------------------------------


    POTLOK:  cpu time    0.3946: real time    0.4022
    SETDIJ:  cpu time    0.0152: real time    0.0153
    TRIAL :  cpu time    6.3793: real time    6.4394
    CORREC:  cpu time    1.8680: real time    1.8839
    CHARGE:  cpu time    0.5114: real time    0.5144
    --------------------------------------------
      LOOP:  cpu time    9.1705: real time    9.2580

 eigenvalue-minimisations  :     0
 total energy-change (2. order) :-0.7877799E+01  (-0.5867998E+00)
 number of electron     292.9999984 magnetization       1.1466002
 augmentation part       12.8959224 magnetization       0.7769354

 Free energy of the ion-electron system (eV)
  ---------------------------------------------------
  alpha Z        PSCENC =       157.46681673
  Ewald energy   TEWEN  =     30502.85257052
  -Hartree energ DENC   =    -40840.35618168
  -exchange      EXHF   =         0.00000000
  -V(xc)+E(xc)   XCENC  =      1024.39141004
  PAW double counting   =     30217.99330369   -30320.23050992
  entropy T*S    EENTRO =        -0.03201688
  eigenvalues    EBANDS =     -3451.46139125
  atomic energy  EATOM  =     12065.27733323
  ---------------------------------------------------
  free energy    TOTEN  =      -644.09139162 eV

  energy without entropy =     -644.05937475  energy(sigma->0) =     -644.07538319


--------------------------------------------------------------------------------------------------------




--------------------------------------- Iteration      1(  11)  ---------------------------------------


    POTLOK:  cpu time    0.3928: real time    0.3946
    SETDIJ:  cpu time    0.0148: real time    0.0148
    TRIAL :  cpu time    6.4495: real time    6.4873
    CORREC:  cpu time    1.9063: real time    1.9163
    CHARGE:  cpu time    0.5186: real time    0.5209
    --------------------------------------------
      LOOP:  cpu time    9.2839: real time    9.3369

 eigenvalue-minimisations  :     0
 total energy-change (2. order) :-0.8908864E+00  (-0.4672970E+00)
 number of electron     292.9999984 magnetization       1.0891419
 augmentation part       12.7600282 magnetization       0.7392412

 Free energy of the ion-electron system (eV)
  ---------------------------------------------------
  alpha Z        PSCENC =       157.46681673
  Ewald energy   TEWEN  =     30502.85257052
  -Hartree energ DENC   =    -40805.60933765
  -exchange      EXHF   =         0.00000000
  -V(xc)+E(xc)   XCENC  =      1023.23085662
  PAW double counting   =     30315.81486382   -30415.89372791
  entropy T*S    EENTRO =        -0.03861633
  eigenvalues    EBANDS =     -3488.08963648
  atomic energy  EATOM  =     12065.27733323
  ---------------------------------------------------
  free energy    TOTEN  =      -644.98227799 eV

  energy without entropy =     -644.94366166  energy(sigma->0) =     -644.96296982


--------------------------------------------------------------------------------------------------------




--------------------------------------- Iteration      1(  12)  ---------------------------------------


    POTLOK:  cpu time    0.4044: real time    0.4070
    SETDIJ:  cpu time    0.0151: real time    0.0154
    TRIAL :  cpu time    5.9626: real time    5.9994
    CORREC:  cpu time    1.9505: real time    1.9598
    CHARGE:  cpu time    0.4523: real time    0.4541
    --------------------------------------------
      LOOP:  cpu time    8.7867: real time    8.8384

 eigenvalue-minimisations  :     0
 total energy-change (2. order) :-0.5151187E+00  (-0.3579895E+00)
 number of electron     292.9999984 magnetization       1.1255111
 augmentation part       12.7174395 magnetization       0.7649658

 Free energy of the ion-electron system (eV)
  ---------------------------------------------------
  alpha Z        PSCENC =       157.46681673
  Ewald energy   TEWEN  =     30502.85257052
  -Hartree energ DENC   =    -40795.99228253
  -exchange      EXHF   =         0.00000000
  -V(xc)+E(xc)   XCENC  =      1022.83079556
  PAW double counting   =     30447.62869798   -30546.01947555
  entropy T*S    EENTRO =        -0.03716956
  eigenvalues    EBANDS =     -3499.50323628
  atomic energy  EATOM  =     12065.27733323
  ---------------------------------------------------
  free energy    TOTEN  =      -645.49739666 eV

  energy without entropy =     -645.46022710  energy(sigma->0) =     -645.47881188


--------------------------------------------------------------------------------------------------------




--------------------------------------- Iteration      1(  13)  ---------------------------------------


    POTLOK:  cpu time    0.4399: real time    0.4421
    SETDIJ:  cpu time    0.0153: real time    0.0154
    TRIAL :  cpu time    6.4013: real time    6.4449
    CORREC:  cpu time    1.9791: real time    1.9888
    CHARGE:  cpu time    0.4565: real time    0.4582
    --------------------------------------------
      LOOP:  cpu time    9.2942: real time    9.3523

 eigenvalue-minimisations  :     0
 total energy-change (2. order) :-0.4841365E+00  (-0.4634556E+00)
 number of electron     292.9999984 magnetization       1.2696962
 augmentation part       12.7660437 magnetization       0.8359607

 Free energy of the ion-electron system (eV)
  ---------------------------------------------------
  alpha Z        PSCENC =       157.46681673
  Ewald energy   TEWEN  =     30502.85257052
  -Hartree energ DENC   =    -40809.11856306
  -exchange      EXHF   =         0.00000000
  -V(xc)+E(xc)   XCENC  =      1023.07887645
  PAW double counting   =     30650.79866061   -30748.47921912
  entropy T*S    EENTRO =        -0.04013109
  eigenvalues    EBANDS =     -3487.82083901
  atomic energy  EATOM  =     12065.27733323
  ---------------------------------------------------
  free energy    TOTEN  =      -645.98153319 eV

  energy without entropy =     -645.94140211  energy(sigma->0) =     -645.96146765


--------------------------------------------------------------------------------------------------------




--------------------------------------- Iteration      1(  14)  ---------------------------------------


    POTLOK:  cpu time    0.4487: real time    0.4512
    SETDIJ:  cpu time    0.0155: real time    0.0156
    TRIAL :  cpu time    6.3509: real time    6.3876
    CORREC:  cpu time    1.9690: real time    1.9796
    CHARGE:  cpu time    0.4780: real time    0.4804
    --------------------------------------------
      LOOP:  cpu time    9.2641: real time    9.3171

 eigenvalue-minimisations  :     0
 total energy-change (2. order) :-0.3907763E+00  (-0.8900978E-01)
 number of electron     292.9999984 magnetization       1.3241082
 augmentation part       12.8067308 magnetization       0.8611663

 Free energy of the ion-electron system (eV)
  ---------------------------------------------------
  alpha Z        PSCENC =       157.46681673
  Ewald energy   TEWEN  =     30502.85257052
  -Hartree energ DENC   =    -40838.84058081
  -exchange      EXHF   =         0.00000000
  -V(xc)+E(xc)   XCENC  =      1023.82533686
  PAW double counting   =     30908.01207131   -31005.92690084
  entropy T*S    EENTRO =        -0.04308394
  eigenvalues    EBANDS =     -3458.99882543
  atomic energy  EATOM  =     12065.27733323
  ---------------------------------------------------
  free energy    TOTEN  =      -646.37230951 eV

  energy without entropy =     -646.32922557  energy(sigma->0) =     -646.35076754


--------------------------------------------------------------------------------------------------------




--------------------------------------- Iteration      1(  15)  ---------------------------------------


    POTLOK:  cpu time    0.3820: real time    0.3843
    SETDIJ:  cpu time    0.0155: real time    0.0156
    TRIAL :  cpu time    6.3683: real time    6.4038
    CORREC:  cpu time    1.9243: real time    1.9345
    CHARGE:  cpu time    0.4683: real time    0.4706
    --------------------------------------------
      LOOP:  cpu time    9.1606: real time    9.2117

 eigenvalue-minimisations  :     0
 total energy-change (2. order) :-0.7949244E-01  (-0.1585472E+00)
 number of electron     292.9999984 magnetization       1.4234077
 augmentation part       12.8161058 magnetization       0.9100696

 Free energy of the ion-electron system (eV)
  ---------------------------------------------------
  alpha Z        PSCENC =       157.46681673
  Ewald energy   TEWEN  =     30502.85257052
  -Hartree energ DENC   =    -40850.59012760
  -exchange      EXHF   =         0.00000000
  -V(xc)+E(xc)   XCENC  =      1024.15352093
  PAW double counting   =     31006.74548385   -31105.01249540
  entropy T*S    EENTRO =        -0.04750330
  eigenvalues    EBANDS =     -3447.30182028
  atomic energy  EATOM  =     12065.27733323
  ---------------------------------------------------
  free energy    TOTEN  =      -646.45180196 eV

  energy without entropy =     -646.40429866  energy(sigma->0) =     -646.42805031


--------------------------------------------------------------------------------------------------------




--------------------------------------- Iteration      1(  16)  ---------------------------------------


    POTLOK:  cpu time    0.4278: real time    0.4326
    SETDIJ:  cpu time    0.0165: real time    0.0165
    TRIAL :  cpu time    5.8388: real time    5.8850
    CORREC:  cpu time    1.9679: real time    1.9778
    CHARGE:  cpu time    0.5870: real time    0.5896
    --------------------------------------------
      LOOP:  cpu time    8.8394: real time    8.9039

 eigenvalue-minimisations  :     0
 total energy-change (2. order) :-0.1685518E+00  (-0.6133568E-01)
 number of electron     292.9999984 magnetization       1.4718468
 augmentation part       12.7893816 magnetization       0.9359870

 Free energy of the ion-electron system (eV)
  ---------------------------------------------------
  alpha Z        PSCENC =       157.46681673
  Ewald energy   TEWEN  =     30502.85257052
  -Hartree energ DENC   =    -40854.16567407
  -exchange      EXHF   =         0.00000000
  -V(xc)+E(xc)   XCENC  =      1024.32251075
  PAW double counting   =     31144.09029938   -31242.38234303
  entropy T*S    EENTRO =        -0.05061262
  eigenvalues    EBANDS =     -3444.03436398
  atomic energy  EATOM  =     12065.27733323
  ---------------------------------------------------
  free energy    TOTEN  =      -646.62035377 eV

  energy without entropy =     -646.56974115  energy(sigma->0) =     -646.59504746


--------------------------------------------------------------------------------------------------------




--------------------------------------- Iteration      1(  17)  ---------------------------------------


    POTLOK:  cpu time    0.3932: real time    0.3953
    SETDIJ:  cpu time    0.0155: real time    0.0155
    TRIAL :  cpu time    5.9700: real time    6.0330
    CORREC:  cpu time    1.9152: real time    1.9256
    CHARGE:  cpu time    0.4749: real time    0.4773
    --------------------------------------------
      LOOP:  cpu time    8.7707: real time    8.8495

 eigenvalue-minimisations  :     0
 total energy-change (2. order) :-0.8707488E-01  (-0.6271486E-01)
 number of electron     292.9999984 magnetization       1.5018149
 augmentation part       12.7507205 magnetization       0.9621746

 Free energy of the ion-electron system (eV)
  ---------------------------------------------------
  alpha Z        PSCENC =       157.46681673
  Ewald energy   TEWEN  =     30502.85257052
  -Hartree energ DENC   =    -40848.38176431
  -exchange      EXHF   =         0.00000000
  -V(xc)+E(xc)   XCENC  =      1024.20684478
  PAW double counting   =     31180.71693590   -31278.72619140
  entropy T*S    EENTRO =        -0.05031513
  eigenvalues    EBANDS =     -3450.06936148
  atomic energy  EATOM  =     12065.27733323
  ---------------------------------------------------
  free energy    TOTEN  =      -646.70742865 eV

  energy without entropy =     -646.65711352  energy(sigma->0) =     -646.68227108


--------------------------------------------------------------------------------------------------------




--------------------------------------- Iteration      1(  18)  ---------------------------------------


    POTLOK:  cpu time    0.4005: real time    0.4025
    SETDIJ:  cpu time    0.0153: real time    0.0153
    TRIAL :  cpu time    5.7837: real time    5.8183
    CORREC:  cpu time    1.9713: real time    1.9806
    CHARGE:  cpu time    0.5349: real time    0.5372
    --------------------------------------------
      LOOP:  cpu time    8.7078: real time    8.7569

 eigenvalue-minimisations  :     0
 total energy-change (2. order) :-0.7864395E-01  (-0.4557842E-01)
 number of electron     292.9999984 magnetization       1.4943610
 augmentation part       12.7331823 magnetization       0.9816435

 Free energy of the ion-electron system (eV)
  ---------------------------------------------------
  alpha Z        PSCENC =       157.46681673
  Ewald energy   TEWEN  =     30502.85257052
  -Hartree energ DENC   =    -40838.82922087
  -exchange      EXHF   =         0.00000000
  -V(xc)+E(xc)   XCENC  =      1023.98947528
  PAW double counting   =     31194.76200415   -31292.40962217
  entropy T*S    EENTRO =        -0.04662995
  eigenvalues    EBANDS =     -3459.84511434
  atomic energy  EATOM  =     12065.27733323
  ---------------------------------------------------
  free energy    TOTEN  =      -646.78607259 eV

  energy without entropy =     -646.73944264  energy(sigma->0) =     -646.76275762


--------------------------------------------------------------------------------------------------------




--------------------------------------- Iteration      1(  19)  ---------------------------------------


    POTLOK:  cpu time    0.4006: real time    0.4033
    SETDIJ:  cpu time    0.0155: real time    0.0156
    TRIAL :  cpu time    5.7886: real time    5.8304
    CORREC:  cpu time    1.9634: real time    1.9732
    CHARGE:  cpu time    0.4736: real time    0.4757
    --------------------------------------------
      LOOP:  cpu time    8.6435: real time    8.7011

 eigenvalue-minimisations  :     0
 total energy-change (2. order) :-0.6494256E-01  (-0.8311493E-01)
 number of electron     292.9999984 magnetization       1.4413747
 augmentation part       12.7831743 magnetization       0.9771445

 Free energy of the ion-electron system (eV)
  ---------------------------------------------------
  alpha Z        PSCENC =       157.46681673
  Ewald energy   TEWEN  =     30502.85257052
  -Hartree energ DENC   =    -40831.95371908
  -exchange      EXHF   =         0.00000000
  -V(xc)+E(xc)   XCENC  =      1023.83804663
  PAW double counting   =     31199.80883352   -31297.35085600
  entropy T*S    EENTRO =        -0.03962793
  eigenvalues    EBANDS =     -3466.74341076
  atomic energy  EATOM  =     12065.27733323
  ---------------------------------------------------
  free energy    TOTEN  =      -646.85101515 eV

  energy without entropy =     -646.81138723  energy(sigma->0) =     -646.83120119


--------------------------------------------------------------------------------------------------------




--------------------------------------- Iteration      1(  20)  ---------------------------------------


    POTLOK:  cpu time    0.4043: real time    0.4067
    SETDIJ:  cpu time    0.0800: real time    0.0805
    TRIAL :  cpu time    5.8026: real time    5.8401
    CORREC:  cpu time    2.0669: real time    2.0769
    CHARGE:  cpu time    0.5328: real time    0.5359
    --------------------------------------------
      LOOP:  cpu time    8.8887: real time    8.9432

 eigenvalue-minimisations  :     0
 total energy-change (2. order) :-0.7772403E-01  (-0.9476939E-01)
 number of electron     292.9999984 magnetization       1.3746651
 augmentation part       12.7644548 magnetization       0.9953341

 Free energy of the ion-electron system (eV)
  ---------------------------------------------------
  alpha Z        PSCENC =       157.46681673
  Ewald energy   TEWEN  =     30502.85257052
  -Hartree energ DENC   =    -40838.48225245
  -exchange      EXHF   =         0.00000000
  -V(xc)+E(xc)   XCENC  =      1024.01459249
  PAW double counting   =     31192.16486979   -31290.30301627
  entropy T*S    EENTRO =        -0.03041733
  eigenvalues    EBANDS =     -3459.88002530
  atomic energy  EATOM  =     12065.27733323
  ---------------------------------------------------
  free energy    TOTEN  =      -646.92873918 eV

  energy without entropy =     -646.89832185  energy(sigma->0) =     -646.91353051


--------------------------------------------------------------------------------------------------------




--------------------------------------- Iteration      1(  21)  ---------------------------------------


    POTLOK:  cpu time    0.3875: real time    0.3895
    SETDIJ:  cpu time    0.0151: real time    0.0152
    TRIAL :  cpu time    5.8836: real time    5.9207
    CORREC:  cpu time    1.9273: real time    1.9377
    CHARGE:  cpu time    0.4869: real time    0.4899
    --------------------------------------------
      LOOP:  cpu time    8.7024: real time    8.7559

 eigenvalue-minimisations  :     0
 total energy-change (2. order) :-0.1039841E+00  (-0.4398988E-01)
 number of electron     292.9999984 magnetization       1.3836021
 augmentation part       12.7575129 magnetization       1.0370740

 Free energy of the ion-electron system (eV)
  ---------------------------------------------------
  alpha Z        PSCENC =       157.46681673
  Ewald energy   TEWEN  =     30502.85257052
  -Hartree energ DENC   =    -40832.13746519
  -exchange      EXHF   =         0.00000000
  -V(xc)+E(xc)   XCENC  =      1023.88127312
  PAW double counting   =     31135.75531262   -31233.88390902
  entropy T*S    EENTRO =        -0.02914557
  eigenvalues    EBANDS =     -3466.21423795
  atomic energy  EATOM  =     12065.27733323
  ---------------------------------------------------
  free energy    TOTEN  =      -647.03272327 eV

  energy without entropy =     -647.00357769  energy(sigma->0) =     -647.01815048


--------------------------------------------------------------------------------------------------------




--------------------------------------- Iteration      1(  22)  ---------------------------------------


    POTLOK:  cpu time    0.3845: real time    0.3874
    SETDIJ:  cpu time    0.0809: real time    0.0811
    TRIAL :  cpu time    5.8011: real time    5.8421
    CORREC:  cpu time    1.8808: real time    1.8912
    CHARGE:  cpu time    0.4587: real time    0.4603
    --------------------------------------------
      LOOP:  cpu time    8.6077: real time    8.6647

 eigenvalue-minimisations  :     0
 total energy-change (2. order) :-0.5052638E-01  (-0.1414973E-01)
 number of electron     292.9999984 magnetization       1.3951138
 augmentation part       12.7799770 magnetization       1.0646879

 Free energy of the ion-electron system (eV)
  ---------------------------------------------------
  alpha Z        PSCENC =       157.46681673
  Ewald energy   TEWEN  =     30502.85257052
  -Hartree energ DENC   =    -40829.68808726
  -exchange      EXHF   =         0.00000000
  -V(xc)+E(xc)   XCENC  =      1023.89095558
  PAW double counting   =     31077.91810412   -31176.07847057
  entropy T*S    EENTRO =        -0.02999145
  eigenvalues    EBANDS =     -3468.69332642
  atomic energy  EATOM  =     12065.27733323
  ---------------------------------------------------
  free energy    TOTEN  =      -647.08324964 eV

  energy without entropy =     -647.05325820  energy(sigma->0) =     -647.06825392


--------------------------------------------------------------------------------------------------------




--------------------------------------- Iteration      1(  23)  ---------------------------------------


    POTLOK:  cpu time    0.4220: real time    0.4246
    SETDIJ:  cpu time    0.0155: real time    0.0157
    TRIAL :  cpu time    5.6772: real time    5.7124
    CORREC:  cpu time    1.9745: real time    1.9848
    CHARGE:  cpu time    0.5270: real time    0.5291
    --------------------------------------------
      LOOP:  cpu time    8.6182: real time    8.6695

 eigenvalue-minimisations  :     0
 total energy-change (2. order) :-0.1418488E-01  (-0.2292966E-01)
 number of electron     292.9999984 magnetization       1.4534392
 augmentation part       12.7708754 magnetization       1.1333080

 Free energy of the ion-electron system (eV)
  ---------------------------------------------------
  alpha Z        PSCENC =       157.46681673
  Ewald energy   TEWEN  =     30502.85257052
  -Hartree energ DENC   =    -40833.07148628
  -exchange      EXHF   =         0.00000000
  -V(xc)+E(xc)   XCENC  =      1024.02500713
  PAW double counting   =     31060.73430035   -31159.18155598
  entropy T*S    EENTRO =        -0.03289932
  eigenvalues    EBANDS =     -3465.17042878
  atomic energy  EATOM  =     12065.27733323
  ---------------------------------------------------
  free energy    TOTEN  =      -647.09743452 eV

  energy without entropy =     -647.06453520  energy(sigma->0) =     -647.08098486


--------------------------------------------------------------------------------------------------------




--------------------------------------- Iteration      1(  24)  ---------------------------------------


    POTLOK:  cpu time    0.3887: real time    0.3915
    SETDIJ:  cpu time    0.0145: real time    0.0145
    TRIAL :  cpu time    5.7611: real time    5.8028
    CORREC:  cpu time    1.9398: real time    1.9529
    CHARGE:  cpu time    0.5062: real time    0.5085
    --------------------------------------------
      LOOP:  cpu time    8.6125: real time    8.6733

 eigenvalue-minimisations  :     0
 total energy-change (2. order) :-0.2272556E-01  (-0.4712083E-02)
 number of electron     292.9999984 magnetization       1.4743907
 augmentation part       12.7590681 magnetization       1.1527720

 Free energy of the ion-electron system (eV)
  ---------------------------------------------------
  alpha Z        PSCENC =       157.46681673
  Ewald energy   TEWEN  =     30502.85257052
  -Hartree energ DENC   =    -40831.53986378
  -exchange      EXHF   =         0.00000000
  -V(xc)+E(xc)   XCENC  =      1024.07942080
  PAW double counting   =     31017.27917309   -31115.70899618
  entropy T*S    EENTRO =        -0.03348119
  eigenvalues    EBANDS =     -3466.79371518
  atomic energy  EATOM  =     12065.27733323
  ---------------------------------------------------
  free energy    TOTEN  =      -647.12016009 eV

  energy without entropy =     -647.08667890  energy(sigma->0) =     -647.10341949


--------------------------------------------------------------------------------------------------------




--------------------------------------- Iteration      1(  25)  ---------------------------------------


    POTLOK:  cpu time    0.4569: real time    0.4601
    SETDIJ:  cpu time    0.0151: real time    0.0152
    TRIAL :  cpu time    5.7783: real time    5.8220
    CORREC:  cpu time    1.8743: real time    1.8853
    CHARGE:  cpu time    0.4547: real time    0.4562
    --------------------------------------------
      LOOP:  cpu time    8.5810: real time    8.6414

 eigenvalue-minimisations  :     0
 total energy-change (2. order) :-0.4716977E-02  (-0.5414410E-02)
 number of electron     292.9999984 magnetization       1.4961940
 augmentation part       12.7643819 magnetization       1.1809859

 Free energy of the ion-electron system (eV)
  ---------------------------------------------------
  alpha Z        PSCENC =       157.46681673
  Ewald energy   TEWEN  =     30502.85257052
  -Hartree energ DENC   =    -40828.72719078
  -exchange      EXHF   =         0.00000000
  -V(xc)+E(xc)   XCENC  =      1024.02115824
  PAW double counting   =     31013.01992034   -31111.33453414
  entropy T*S    EENTRO =        -0.03400367
  eigenvalues    EBANDS =     -3469.66747003
  atomic energy  EATOM  =     12065.27733323
  ---------------------------------------------------
  free energy    TOTEN  =      -647.12487706 eV

  energy without entropy =     -647.09087339  energy(sigma->0) =     -647.10787523


[...]
  0.006  -0.003  -0.001   1.186  -0.002  -0.000   0.072  -0.000
  0.029  -0.016  -0.007  -0.002   1.808  -0.000  -0.000   0.167
  0.003  -0.002   0.167  -0.000  -0.000   0.017  -0.000  -0.000
  0.001  -0.000  -0.000   0.072  -0.000  -0.000   0.005  -0.000
  0.004  -0.002  -0.000  -0.000   0.167  -0.000  -0.000   0.017
 total augmentation occupancy for first ion, spin component:           2
  0.000  -0.000  -0.000   0.000  -0.000  -0.000   0.000  -0.000
 -0.000   0.000   0.000  -0.000   0.000   0.000  -0.000   0.000
 -0.000   0.000  -0.000   0.000  -0.000   0.000   0.000   0.000
  0.000  -0.000   0.000  -0.000   0.000   0.000   0.000   0.000
 -0.000   0.000  -0.000   0.000  -0.000   0.000   0.000   0.000
 -0.000   0.000   0.000   0.000   0.000   0.000  -0.000   0.000
  0.000  -0.000   0.000   0.000   0.000  -0.000   0.000  -0.000
 -0.000   0.000   0.000   0.000   0.000   0.000  -0.000   0.000


------------------------ aborting loop because EDIFF is reached ----------------------------------------


    FORLOC:  cpu time    0.0442: real time    0.0446
    FORNL :  cpu time    3.2447: real time    3.2668
    STRESS:  cpu time    9.6070: real time    9.6625
    FORCOR:  cpu time    0.4398: real time    0.4406
    OFIELD:  cpu time    0.0015: real time    0.0015

 ---------------------------------------------------------------------------------------------

         DFTD3 V3.0 Rev 1        
 Edisp (eV)   -6.40216

 E6    (eV) :    -4.3726
 E8    (eV) :    -2.0296
 % E8        : 31.70
    FORVDW:  cpu time    0.1736: real time    0.1800

  FORCE on cell =-STRESS in cart. coord.  units (eV):
  Direction    XX          YY          ZZ          XY          YZ          ZX
  --------------------------------------------------------------------------------------
  Alpha Z   157.46682   157.46682   157.46682
  Ewald   40605.70432 40627.55526-50730.02440    -8.43770     3.58610    -2.27934
  Hartree 40066.74693 40033.48844-39271.42952    -4.73349     2.86081    -1.67977
  E(xc)   -1111.46003 -1111.10900 -1150.59364    -0.01497     0.00177    -0.00600
  Local  -83878.72181-83855.44334 86209.24586    12.59604    -6.21523     3.38602
  n-local  -290.19030  -286.95928  -270.47362     0.11265     0.03367     0.03791
  augment    66.57943    64.75088    65.41035     0.03810    -0.02099     0.16180
  Kinetic  4388.02484  4371.72422  4986.94069     0.53247    -0.24198     0.36197
  Fock        0.00000     0.00000     0.00000     0.00000     0.00000     0.00000
  vdW        -1.40675    -1.58425    -0.04008    -0.00134    -0.00028     0.00985
  -------------------------------------------------------------------------------------
  Total       2.74344    -0.11026    -3.49756     0.09177     0.00386    -0.00756
  in kB       1.54832    -0.06223    -1.97393     0.05179     0.00218    -0.00427
  external pressure =       -0.16 kB  Pullay stress =        0.00 kB


 VOLUME and BASIS-vectors are now :
 -----------------------------------------------------------------------------
  energy-cutoff  :      440.00
  volume of cell :     2838.87
      direct lattice vectors                 reciprocal lattice vectors
    14.840819483  0.001624541  0.000000000     0.067377432  0.039207918  0.000000000
    -7.420409742 12.751714014  0.000000000    -0.000008584  0.078415835  0.000000000
     0.000000000  0.000000000 15.000000000     0.000000000  0.000000000  0.066666667

  length of vectors
    14.840819572 14.753599256 15.000000000     0.077954982  0.078415836  0.066666667


 FORCES acting on ions:
    Electron-Ion                     Ewald-Force                    Non-Local-Force
 -----------------------------------------------------------------------------------------------
   0.140E+01 0.388E+00 0.763E+01   -.145E+01 -.450E+00 -.765E+01   0.394E-01 0.661E-01 0.234E-01
   -.243E+01 0.764E+00 0.733E+01   0.259E+01 -.749E+00 -.735E+01   -.167E+00 -.229E-01 0.185E-01
   0.575E+00 0.840E+00 0.739E+01   -.609E+00 -.747E+00 -.742E+01   0.397E-01 -.845E-01 0.264E-01
   -.157E+01 0.136E+01 0.738E+01   0.153E+01 -.129E+01 -.739E+01   0.546E-01 -.816E-01 0.110E-01
   0.217E+01 0.125E+01 0.718E+01   -.227E+01 -.131E+01 -.720E+01   0.934E-01 0.577E-01 0.216E-01
   0.568E+01 0.324E+01 0.729E+01   -.617E+01 -.337E+01 -.729E+01   0.482E+00 0.123E+00 0.362E-04
   0.131E+01 0.256E+01 0.743E+01   -.126E+01 -.325E+01 -.746E+01   -.473E-01 0.708E+00 0.245E-01
   0.600E+01 0.104E+02 0.778E+01   -.711E+01 -.113E+02 -.781E+01   0.112E+01 0.904E+00 0.342E-01
   -.465E+01 0.209E+01 0.707E+01   0.474E+01 -.283E+01 -.707E+01   -.837E-01 0.752E+00 -.351E-02
   -.466E+01 0.961E+01 0.705E+01   0.571E+01 -.107E+02 -.707E+01   -.103E+01 0.107E+01 0.177E-01
   0.671E-01 -.239E-01 0.704E+01   -.221E-01 -.232E+00 -.705E+01   -.512E-01 0.261E+00 -.229E-02
   -.375E+01 0.218E+01 0.716E+01   0.416E+01 -.252E+01 -.719E+01   -.423E+00 0.335E+00 0.269E-01
   -.508E+00 0.479E+01 0.718E+01   0.667E+00 -.484E+01 -.719E+01   -.174E+00 0.441E-01 0.119E-01
   -.238E+00 0.225E+01 0.635E+01   0.512E+00 -.232E+01 -.637E+01   -.301E+00 0.546E-01 0.183E-01
   0.204E+01 0.506E+01 0.812E+01   -.198E+01 -.491E+01 -.814E+01   -.685E-01 -.162E+00 0.125E-01
   -.178E+01 0.688E+01 0.101E+02   0.229E+01 -.664E+01 -.102E+02   -.504E+00 -.222E+00 0.980E-01
   0.235E+01 0.737E+01 0.741E+01   -.253E+01 -.696E+01 -.744E+01   0.177E+00 -.421E+00 0.201E-01
   0.126E+01 0.615E+01 0.663E+01   -.145E+01 -.548E+01 -.626E+01   0.190E+00 -.658E+00 -.371E+00
   0.547E+01 0.811E+01 0.893E+01   -.627E+01 -.837E+01 -.896E+01   0.806E+00 0.261E+00 0.258E-01
   0.126E+02 0.572E+01 0.104E+02   -.145E+02 -.580E+01 -.105E+02   0.194E+01 0.983E-01 0.107E+00
   -.156E+01 0.307E+02 0.732E+01   0.153E+01 -.369E+02 -.735E+01   0.388E-01 0.626E+01 0.287E-01
   -.239E+01 0.417E+01 0.876E+01   0.229E+01 -.406E+01 -.887E+01   0.106E+00 -.120E+00 0.111E+00
   -.674E+01 0.652E+01 0.646E+01   0.747E+01 -.700E+01 -.644E+01   -.735E+00 0.468E+00 -.108E-01
   -.109E+02 0.677E+00 0.676E+01   0.122E+02 -.112E+01 -.679E+01   -.134E+01 0.441E+00 0.290E-01
   -.187E+01 0.373E+01 0.589E+01   0.249E+01 -.347E+01 -.587E+01   -.637E+00 -.281E+00 -.235E-01
   -.445E+00 0.217E+01 0.609E+01   0.732E+00 -.201E+01 -.612E+01   -.309E+00 -.151E+00 0.317E-01
   0.373E+01 0.103E+02 0.593E+01   -.339E+01 -.103E+02 -.591E+01   -.361E+00 -.517E-02 -.367E-01
   0.110E+02 0.635E+01 0.384E+01   -.107E+02 -.624E+01 -.394E+01   -.307E+00 -.105E+00 0.814E-01
   -.336E+00 0.183E+02 0.141E+02   0.528E+00 -.173E+02 -.144E+02   -.195E+00 -.954E+00 0.250E+00
   -.720E+01 0.356E+02 0.306E+02   0.134E+02 -.321E+02 -.299E+02   -.625E+01 -.352E+01 -.725E+00
   0.465E+01 0.179E+02 0.112E+02   -.548E+01 -.165E+02 -.113E+02   0.844E+00 -.139E+01 0.185E+00
   0.114E+02 0.316E+02 0.196E+02   -.180E+02 -.277E+02 -.186E+02   0.664E+01 -.391E+01 -.103E+01
   0.192E+02 -.375E+01 0.644E+01   -.247E+02 0.691E+01 -.625E+01   0.556E+01 -.320E+01 -.205E+00
   -.499E+01 -.257E+01 0.658E+01   0.437E+01 0.411E+01 -.669E+01   0.629E+00 -.154E+01 0.106E+00
   -.250E+02 -.100E+02 0.665E+01   0.304E+02 0.131E+02 -.666E+01   -.535E+01 -.310E+01 0.551E-02
   -.105E+02 -.486E+01 0.772E+01   0.108E+02 0.623E+01 -.777E+01   -.242E+00 -.137E+01 0.455E-01
   -.768E+00 -.286E+01 0.747E+01   0.131E+01 0.320E+01 -.749E+01   -.550E+00 -.353E+00 0.235E-01
   -.154E+01 -.190E+01 0.742E+01   0.162E+01 0.211E+01 -.745E+01   -.776E-01 -.196E+00 0.250E-01
   0.444E+01 0.282E+00 0.269E+01   -.420E+01 -.198E+00 -.265E+01   -.235E+00 -.870E-01 -.521E-01
   0.431E+01 -.138E+01 0.281E+01   -.419E+01 0.144E+01 -.277E+01   -.123E+00 -.464E-01 -.474E-01
   0.259E+02 0.881E+01 0.144E+02   -.250E+02 -.926E+01 -.150E+02   -.820E+00 0.463E+00 0.614E+00
   0.255E+02 -.848E+01 0.140E+02   -.247E+02 0.894E+01 -.147E+02   -.788E+00 -.478E+00 0.646E+00
   -.229E+02 0.454E+01 0.124E+02   0.214E+02 -.462E+01 -.128E+02   0.152E+01 0.100E+00 0.424E+00
   -.230E+02 -.944E+01 0.134E+02   0.219E+02 0.100E+02 -.138E+02   0.105E+01 -.631E+00 0.495E+00
   -.494E+01 -.779E+01 0.603E+01   0.486E+01 0.863E+01 -.600E+01   0.862E-01 -.851E+00 -.315E-01
   -.512E+01 -.504E+01 0.575E+01   0.500E+01 0.552E+01 -.573E+01   0.120E+00 -.475E+00 -.330E-01
   -.359E+01 -.620E+01 0.751E+01   0.361E+01 0.637E+01 -.755E+01   -.110E-01 -.168E+00 0.365E-01
   -.189E+01 -.445E+01 0.675E+01   0.185E+01 0.457E+01 -.674E+01   0.496E-01 -.115E+00 -.174E-01
   0.376E+01 -.528E+01 0.633E+01   -.365E+01 0.536E+01 -.637E+01   -.137E+00 -.773E-01 0.415E-01
   0.115E+01 -.260E+01 0.605E+01   -.112E+01 0.265E+01 -.604E+01   -.421E-01 -.327E-01 -.155E-01
   0.124E+02 -.672E+01 0.379E+01   -.121E+02 0.660E+01 -.389E+01   -.280E+00 0.115E+00 0.871E-01
   0.461E+01 -.872E+01 0.580E+01   -.440E+01 0.870E+01 -.578E+01   -.222E+00 0.356E-01 -.373E-01
   -.753E+01 -.358E+02 0.284E+02   0.137E+02 0.323E+02 -.276E+02   -.623E+01 0.349E+01 -.860E+00
   -.156E+01 -.171E+02 0.138E+02   0.186E+01 0.162E+02 -.141E+02   -.296E+00 0.972E+00 0.252E+00
   0.743E+01 -.355E+02 0.242E+02   -.137E+02 0.319E+02 -.233E+02   0.629E+01 0.359E+01 -.908E+00
   0.108E+01 -.162E+02 0.123E+02   -.134E+01 0.151E+02 -.125E+02   0.252E+00 0.103E+01 0.242E+00
   -.112E+02 -.891E+01 0.687E+01   0.108E+02 0.892E+01 -.698E+01   0.397E+00 -.200E-01 0.108E+00
   -.415E+01 -.106E+02 0.706E+01   0.390E+01 0.107E+02 -.702E+01   0.275E+00 -.114E+00 -.451E-01
   -.171E+01 -.409E+01 0.739E+01   0.165E+01 0.415E+01 -.741E+01   0.786E-01 -.468E-01 0.251E-01
   -.184E+01 -.346E+01 0.759E+01   0.186E+01 0.350E+01 -.760E+01   -.103E-01 -.337E-01 0.124E-01
   0.112E+01 -.244E+01 0.694E+01   -.109E+01 0.244E+01 -.697E+01   -.265E-01 -.930E-02 0.310E-01
   0.107E+01 -.178E+01 0.653E+01   -.115E+01 0.176E+01 -.652E+01   0.785E-01 0.256E-01 -.161E-01
   0.280E+01 -.274E+01 0.647E+01   -.278E+01 0.266E+01 -.649E+01   -.457E-01 0.939E-01 0.171E-01
   0.161E+01 -.175E+01 0.725E+01   -.179E+01 0.160E+01 -.727E+01   0.161E+00 0.154E+00 0.161E-01
   -.142E+01 -.667E+01 0.100E+02   0.191E+01 0.623E+01 -.101E+02   -.489E+00 0.414E+00 0.983E-01
   0.165E+01 0.996E-02 0.808E+01   -.159E+01 -.443E+00 -.810E+01   -.734E-01 0.439E+00 0.130E-01
   -.111E+01 -.687E+01 0.712E+01   0.117E+01 0.609E+01 -.675E+01   -.669E-01 0.764E+00 -.373E+00
   0.211E-01 -.423E+01 0.717E+01   0.133E+00 0.367E+01 -.719E+01   -.155E+00 0.583E+00 0.138E-01
   0.119E+01 -.756E+01 0.983E+01   -.172E+01 0.728E+01 -.992E+01   0.539E+00 0.279E+00 0.861E-01
   -.330E+01 -.367E+01 0.822E+01   0.330E+01 0.345E+01 -.825E+01   0.154E-01 0.226E+00 0.188E-01
   -.155E+01 -.918E+00 -.633E+03   0.230E+01 0.101E+01 0.614E+03   -.773E+00 -.869E-01 0.182E+02
 -----------------------------------------------------------------------------------------------
   0.355E+00 0.436E+00 -.180E+02   -.293E-13 -.746E-12 0.000E+00   -.354E+00 -.433E+00 0.180E+02
 
 
 POSITION                                       TOTAL-FORCE (eV/Angst)
 -----------------------------------------------------------------------------------
      7.42111     12.75129      7.46549        -0.003343      0.006257      0.001132
      0.00095      1.42067      7.46677        -0.001305     -0.011854     -0.000570
      2.47839      0.02366      7.46258         0.006683      0.012334     -0.000097
      2.47742      1.44477      7.47380         0.011782     -0.010997     -0.003718
      4.94962      0.02287      7.46374        -0.011152      0.004552     -0.001910
      4.95103      1.44588      7.47401        -0.005817     -0.006120     -0.003480
      7.42885      0.00673      7.46670         0.002812      0.006633     -0.000043
      7.42580      1.43392      7.46552         0.007177      0.000088      0.000092
      2.47066     12.73606      7.47510         0.002592      0.009660     -0.002317
      9.89346      1.40923      7.46438         0.012267     -0.006042      0.001317
      4.94592     12.72758      7.47506        -0.003609      0.003685     -0.002521
     12.36485      1.39885      7.46443        -0.008549     -0.004480      0.000797
     13.59986      2.11640      7.46651        -0.011103     -0.005469      0.002073
     -1.24926      3.53147      7.47773        -0.025363     -0.019264     -0.000390
      1.23811      2.14323      7.47675        -0.005282     -0.002515     -0.006551
      1.23635      3.56572      7.50060         0.005227      0.015497     -0.000816
      3.71462      2.17050      7.48977        -0.004597     -0.009912     -0.008671
      3.71887      3.58646      7.53468        -0.001447      0.015489     -0.002505
      6.18556      2.14219      7.47463         0.001243      0.001493     -0.005218
      6.20181      3.56380      7.49950         0.008861      0.007741      0.003829
      8.66440      2.12758      7.46539         0.005631     -0.004020      0.002489
      8.66874      3.53206      7.47374         0.001270     -0.012125     -0.000126
     11.13514      2.10705      7.46310        -0.001044     -0.010257      0.000076
     11.12031      3.52465      7.46462         0.001823     -0.001995      0.000420
     12.35531      4.24162      7.47315        -0.014088     -0.016204      0.001664
     -2.48564      5.65982      7.48064        -0.022510      0.002975      0.003097
     -0.01427      4.24638      7.50320        -0.019822     -0.010556     -0.010602
     -0.03795      5.66122      7.53144         0.004599      0.005056     -0.014187
      2.47519      4.30639      7.54493         0.009736      0.029515      0.021604
      2.42962      5.71851      7.63133        -0.017205      0.000646      0.006808
      4.96373      4.31080      7.55379        -0.008686      0.009588      0.024411
      5.00017      5.72107      7.65351         0.016197     -0.006292      0.005818
      7.44999      4.24036      7.49797         0.027112     -0.021179     -0.005761
      7.47094      5.65270      7.52123         0.005310      0.002000     -0.005798
      9.88997      4.23366      7.46927         0.017184     -0.002352      0.000025
      9.89787      5.65220      7.47359         0.018372     -0.002184      0.000693
     11.13025      6.36771      7.47129        -0.005726     -0.018354      0.004334
     -3.71044      7.78934      7.47121        -0.000106      0.015245      0.004167
     -1.26441      6.37435      7.50911        -0.003049     -0.006084     -0.006276
     -1.26430      7.79436      7.50883        -0.011312      0.009577     -0.006146
      1.18213      6.36809      7.57817         0.012126      0.002816      0.005588
      1.18143      7.80371      7.57938         0.016923     -0.002145      0.009689
      6.24792      6.35800      7.58119        -0.007591      0.006389      0.018469
      6.24437      7.79691      7.57839        -0.013613     -0.003274      0.014807
      8.68890      6.37755      7.49577         0.008923     -0.010001     -0.007435
      8.68708      7.79294      7.49617         0.008647      0.013834     -0.009101
     -4.93267      8.50661      7.47358         0.012142      0.001291     -0.000746
     -4.93967      9.92836      7.46806         0.014861      0.010186      0.000184
     -2.48360      8.50599      7.47994        -0.014918     -0.001139      0.002772
     -2.47662      9.93117      7.47226        -0.017939      0.017801      0.000676
     -0.03670      8.50967      7.53197         0.004850     -0.006522     -0.011885
     -0.01237      9.92603      7.50371        -0.017020      0.013611     -0.008656
      2.42821      8.45577      7.63653        -0.018126      0.007222      0.009796
      2.46984      9.86779      7.54606         0.014387     -0.028350      0.022353
      4.99501      8.44179      7.64424         0.018772      0.009061      0.000495
      4.95080      9.86036      7.54957        -0.013242     -0.018441      0.020496
      7.45933      8.50657      7.52071        -0.001098     -0.003042     -0.007856
      7.43552      9.92278      7.49708         0.020441      0.005234     -0.009282
     -6.17338     10.63663      7.47207         0.020636      0.007890     -0.001650
     -6.17694     12.05695      7.46353         0.008010      0.006551      0.002662
     -3.70634     10.64266      7.46335        -0.001525     -0.001700     -0.000607
     -3.70606     12.06408      7.46193         0.003418      0.008178     -0.002247
     -1.24234     10.64177      7.47734        -0.024531      0.014902     -0.001057
     -1.23709     12.06220      7.46606        -0.010885      0.006603      0.000727
      1.23575     10.60813      7.50138         0.005077     -0.022391      0.000671
      1.23722     12.03331      7.47726        -0.008984      0.003863     -0.004146
      3.71177     10.58809      7.53328        -0.005393     -0.019802     -0.000893
      3.70947     12.00839      7.49041         0.002426      0.006519     -0.007560
      6.18490     10.60243      7.50035         0.002138     -0.006477     -0.000972
      6.18301     12.02764      7.47623         0.010659      0.004234     -0.004143
      3.69444      7.08671      8.32486        -0.010334      0.007325     -0.028293
 -----------------------------------------------------------------------------------
    total drift:                                0.000573      0.002814     -0.001282


--------------------------------------------------------------------------------------------------------



  FREE ENERGIE OF THE ION-ELECTRON SYSTEM (eV)
  ---------------------------------------------------
  free  energy   TOTEN  =      -653.55337531 eV

  energy  without entropy=     -653.52011282  energy(sigma->0) =     -653.53674406
 
 d Force = 0.1055623E-02[ 0.394E-03, 0.172E-02]  d Energy = 0.1019240E-02 0.364E-04
 d Force =-0.1554995E+01[-0.155E+01,-0.156E+01]  d Ewald  =-0.1554996E+01 0.146E-05


--------------------------------------------------------------------------------------------------------


    POTLOK:  cpu time    0.4823: real time    0.4847


--------------------------------------------------------------------------------------------------------


 stress matrix after NEB project (eV)
      2.74344      0.09177     -0.00756
      0.09177     -0.11026      0.00386
     -0.00756      0.00386     -3.49756
  FORCES: max atom, RMS     0.038864    0.018231
  FORCE total and by dimension    0.153613    0.029515
  Stress total and by dimension    4.448431    3.497565
 Conjugate gradient step on ions:
 trial-energy change:   -0.001019  1 .order   -0.001056   -0.001717   -0.000394
  (g-gl).g = 0.930E-03      g.g   = 0.913E-03  gl.gl    = 0.136E-02
 g(Force)  = 0.913E-03   g(Stress)= 0.000E+00 ortho     = 0.172E-04
 gamma     =   0.68275
 trial     =   1.85623
 opt step  =   2.40863  (harmonic =   2.40863) maximal distance =0.00230309
 next E    =  -653.553470   (d E  =  -0.00111)


--------------------------------------------------------------------------------------------------------


  
 reached required accuracy - stopping structural energy minimisation
     LOOP+:  cpu time  109.8610: real time  110.5584
    4ORBIT:  cpu time    0.0000: real time    0.0000

 total amount of memory used by VASP MPI-rank0   170545. kBytes
=======================================================================

   base      :      30000. kBytes
   nonlr-proj:       9909. kBytes
   fftplans  :      10852. kBytes
   grid      :      30996. kBytes
   one-center:        186. kBytes
   wavefun   :      88602. kBytes
 
  
  
 General timing and accounting informations for this job:
 ========================================================
  
                  Total CPU time used (sec):     1181.509
                            User time (sec):     1171.784
                          System time (sec):        9.725
                         Elapsed time (sec):     1197.161
  
                   Maximum memory used (kb):      554892.
                   Average memory used (kb):           0.
  
                          Minor page faults:      1874314
                          Major page faults:            0
                 Voluntary context switches:         9467
