 vasp.5.4.4.18Apr17-6-g9f103f2a35 (build Jan 14 2022 15:04:31) complex          
  
 executed on             LinuxIFC date 2023.01.27  22:54:36
 running on   48 total cores
 distrk:  each k-point on   48 cores,    1 groups
 distr:  one band on NCORES_PER_BAND=  12 cores,    4 groups


--------------------------------------------------------------------------------------------------------


 INCAR:
 POTCAR:    PAW_PBE C 08Apr2002                   
 POTCAR:    PAW_PBE N 08Apr2002                   
 POTCAR:    PAW_PBE C 08Apr2002                   
 POTCAR:    PAW_PBE Cr_pv 02Aug2007               
 POTCAR:    PAW_PBE C 08Apr2002                   
 POTCAR:    PAW_PBE O 08Apr2002                   
 POTCAR:    PAW_PBE C 08Apr2002                   
   SHA256 =  253f7b50bb8d59471dbedb8285d89021f4a42ed1a2c5d38a03a736e69125dd95 C/
   COPYR  = (c) Copyright 08Apr2002 Georg Kresse                                
   COPYR  = This file is part of the software VASP. Any use, copying, and all ot
   COPYR  = If you do not have a valid VASP license, you may not use, copy or di
   VRHFIN =C: s2p2                                                              
   LEXCH  = PE                                                                  
   EATOM  =   147.1560 eV,   10.8157 Ry                                         
                                                                                
   TITEL  = PAW_PBE C 08Apr2002                                                 
   LULTRA =        F    use ultrasoft PP ?                                      
   IUNSCR =        1    unscreen: 0-lin 1-nonlin 2-no                           
   RPACOR =    1.200    partial core radius                                     
   POMASS =   12.011; ZVAL   =    4.000    mass and valenz                      
   RCORE  =    1.500    outmost cutoff radius                                   
   RWIGS  =    1.630; RWIGS  =    0.863    wigner-seitz radius (au A)           
   ENMAX  =  400.000; ENMIN  =  300.000 eV                                      
   ICORE  =        2    local potential                                         
   LCOR   =        T    correct aug charges                                     
   LPAW   =        T    paw PP                                                  
   EAUG   =  644.873                                                            
   DEXC   =    0.000                                                            
   RMAX   =    1.529    core radius for proj-oper                               
   RAUG   =    1.300    factor for augmentation sphere                          
   RDEP   =    1.501    radius for radial grids                                 
   RDEPT  =    1.300    core radius for aug-charge                              
                                                                                
   Atomic configuration                                                         
    4 entries                                                                   
     n  l   j            E        occ.                                          
     1  0  0.50      -273.3789   2.0000                                         
     2  0  0.50       -13.7508   2.0000                                         
     2  1  0.50        -5.2854   2.0000                                         
     3  2  1.50        -5.4423   0.0000                                         
   Description                                                                  
     l       E           TYP  RCUT    TYP  RCUT                                 
     0    -13.7508458     23  1.200                                             
     0     -8.2022199     23  1.200                                             
     1     -5.2854383     23  1.500                                             
     1     34.0145650     23  1.500                                             
     2     -5.4423304      7  1.500                                             
  local pseudopotential read in
  partial core-charges read in
  partial kinetic energy density read in
  atomic valenz-charges read in
  non local Contribution for L=           0  read in
    real space projection operators read in
  non local Contribution for L=           0  read in
    real space projection operators read in
  non local Contribution for L=           1  read in
    real space projection operators read in
  non local Contribution for L=           1  read in
    real space projection operators read in
    PAW grid and wavefunctions read in
 
   number of l-projection  operators is LMAX  =           4
   number of lm-projection operators is LMMAX =           8
 
 POTCAR:    PAW_PBE N 08Apr2002                   
   SHA256 =  e053789ff3a61a86a1b75d8a110fcc91f86041011e7b0817c7c99e4e8a6349d7 N/
   COPYR  = (c) Copyright 08Apr2002 Georg Kresse                                
   COPYR  = This file is part of the software VASP. Any use, copying, and all ot
   COPYR  = If you do not have a valid VASP license, you may not use, copy or di
   VRHFIN =N: s2p3                                                              
   LEXCH  = PE                                                                  
   EATOM  =   264.5486 eV,   19.4438 Ry                                         
                                                                                
   TITEL  = PAW_PBE N 08Apr2002                                                 
   LULTRA =        F    use ultrasoft PP ?                                      
   IUNSCR =        1    unscreen: 0-lin 1-nonlin 2-no                           
   RPACOR =    1.200    partial core radius                                     
   POMASS =   14.001; ZVAL   =    5.000    mass and valenz                      
   RCORE  =    1.500    outmost cutoff radius                                   
   RWIGS  =    1.400; RWIGS  =    0.741    wigner-seitz radius (au A)           
   ENMAX  =  400.000; ENMIN  =  300.000 eV                                      
   ICORE  =        2    local potential                                         
   LCOR   =        T    correct aug charges                                     
   LPAW   =        T    paw PP                                                  
   EAUG   =  627.112                                                            
   DEXC   =    0.000                                                            
   RMAX   =    1.529    core radius for proj-oper                               
   RAUG   =    1.300    factor for augmentation sphere                          
   RDEP   =    1.514    radius for radial grids                                 
   RDEPT  =    1.338    core radius for aug-charge                              
                                                                                
   Atomic configuration                                                         
    4 entries                                                                   
     n  l   j            E        occ.                                          
     1  0  0.50      -384.7179   2.0000                                         
     2  0  0.50       -18.5828   2.0000                                         
     2  1  0.50        -7.0898   3.0000                                         
     3  2  1.50        -6.8029   0.0000                                         
   Description                                                                  
     l       E           TYP  RCUT    TYP  RCUT                                 
     0    -18.5828119     23  1.200                                             
     0    -13.5018863     23  1.200                                             
     1     -7.0897853     23  1.500                                             
     1      9.5240782     23  1.500                                             
     2     -6.8029130      7  1.500                                             
  local pseudopotential read in
  partial core-charges read in
  partial kinetic energy density read in
  atomic valenz-charges read in
  non local Contribution for L=           0  read in
    real space projection operators read in
  non local Contribution for L=           0  read in
    real space projection operators read in
  non local Contribution for L=           1  read in
    real space projection operators read in
  non local Contribution for L=           1  read in
    real space projection operators read in
    PAW grid and wavefunctions read in
 
   number of l-projection  operators is LMAX  =           4
   number of lm-projection operators is LMMAX =           8
 
 POTCAR:    PAW_PBE C 08Apr2002                   
   SHA256 =  253f7b50bb8d59471dbedb8285d89021f4a42ed1a2c5d38a03a736e69125dd95 C/
   COPYR  = (c) Copyright 08Apr2002 Georg Kresse                                
   COPYR  = This file is part of the software VASP. Any use, copying, and all ot
   COPYR  = If you do not have a valid VASP license, you may not use, copy or di
   VRHFIN =C: s2p2                                                              
   LEXCH  = PE                                                                  
   EATOM  =   147.1560 eV,   10.8157 Ry                                         
                                                                                
   TITEL  = PAW_PBE C 08Apr2002                                                 
   LULTRA =        F    use ultrasoft PP ?                                      
   IUNSCR =        1    unscreen: 0-lin 1-nonlin 2-no                           
   RPACOR =    1.200    partial core radius                                     
   POMASS =   12.011; ZVAL   =    4.000    mass and valenz                      
   RCORE  =    1.500    outmost cutoff radius                                   
   RWIGS  =    1.630; RWIGS  =    0.863    wigner-seitz radius (au A)           
   ENMAX  =  400.000; ENMIN  =  300.000 eV                                      
   ICORE  =        2    local potential                                         
   LCOR   =        T    correct aug charges                                     
   LPAW   =        T    paw PP                                                  
   EAUG   =  644.873                                                            
   DEXC   =    0.000                                                            
   RMAX   =    1.529    core radius for proj-oper                               
   RAUG   =    1.300    factor for augmentation sphere                          
   RDEP   =    1.501    radius for radial grids                                 
   RDEPT  =    1.300    core radius for aug-charge                              
                                                                                
   Atomic configuration                                                         
    4 entries                                                                   
     n  l   j            E        occ.                                          
     1  0  0.50      -273.3789   2.0000                                         
     2  0  0.50       -13.7508   2.0000                                         
     2  1  0.50        -5.2854   2.0000                                         
     3  2  1.50        -5.4423   0.0000                                         
   Description                                                                  
     l       E           TYP  RCUT    TYP  RCUT                                 
     0    -13.7508458     23  1.200                                             
     0     -8.2022199     23  1.200                                             
     1     -5.2854383     23  1.500                                             
     1     34.0145650     23  1.500                                             
     2     -5.4423304      7  1.500                                             
  local pseudopotential read in
  partial core-charges read in
  partial kinetic energy density read in
  atomic valenz-charges read in
  non local Contribution for L=           0  read in
    real space projection operators read in
  non local Contribution for L=           0  read in
    real space projection operators read in
  non local Contribution for L=           1  read in
    real space projection operators read in
  non local Contribution for L=           1  read in
    real space projection operators read in
    PAW grid and wavefunctions read in
 
   number of l-projection  operators is LMAX  =           4
   number of lm-projection operators is LMMAX =           8
 
 POTCAR:    PAW_PBE Cr_pv 02Aug2007               
   SHA256 =  c9a7df34d3cdbacf1090e328ef39c0b420964e11c23f63548d1ac9dd218cdba0 Cr
   COPYR  = (c) Copyright 02Aug2007 Georg Kresse                                
   COPYR  = This file is part of the software VASP. Any use, copying, and all ot
   COPYR  = If you do not have a valid VASP license, you may not use, copy or di
   VRHFIN =Cr : p6d5s1                                                          
   LEXCH  = PE                                                                  
   EATOM  =  1647.9177 eV,  121.1185 Ry                                         
                                                                                
   TITEL  = PAW_PBE Cr_pv 02Aug2007                                             
   LULTRA =        F    use ultrasoft PP ?                                      
   IUNSCR =        1    unscreen: 0-lin 1-nonlin 2-no                           
   RPACOR =    2.080    partial core radius                                     
   POMASS =   51.996; ZVAL   =   12.000    mass and valenz                      
   RCORE  =    2.300    outmost cutoff radius                                   
   RWIGS  =    2.500; RWIGS  =    1.323    wigner-seitz radius (au A)           
   ENMAX  =  265.681; ENMIN  =  199.261 eV                                      
   ICORE  =        3    local potential                                         
   LCOR   =        T    correct aug charges                                     
   LPAW   =        T    paw PP                                                  
   EAUG   =  519.424                                                            
   DEXC   =    0.000                                                            
   RMAX   =    2.356    core radius for proj-oper                               
   RAUG   =    1.300    factor for augmentation sphere                          
   RDEP   =    2.447    radius for radial grids                                 
   RDEPT  =    1.882    core radius for aug-charge                              
                                                                                
   Atomic configuration                                                         
    8 entries                                                                   
     n  l   j            E        occ.                                          
     1  0  0.50     -5880.4963   2.0000                                         
     2  0  0.50      -667.0865   2.0000                                         
     2  1  1.50      -560.6250   6.0000                                         
     3  0  0.50       -73.9860   2.0000                                         
     3  1  1.50       -45.4378   6.0000                                         
     3  2  2.50        -2.9137   5.0000                                         
     4  0  0.50        -4.0071   1.0000                                         
     4  3  2.50        -1.3606   0.0000                                         
   Description                                                                  
     l       E           TYP  RCUT    TYP  RCUT                                 
     1    -45.4377911     23  2.000                                             
     1      1.3605826     23  2.000                                             
     2     -2.9136672     23  2.300                                             
     2     -4.2742498     23  2.300                                             
     0     -4.0071320     23  2.300                                             
     0      9.4498803     23  2.300                                             
     3      2.7211652     23  2.300                                             
  local pseudopotential read in
  partial core-charges read in
  partial kinetic energy density read in
  atomic valenz-charges read in
  non local Contribution for L=           1  read in
    real space projection operators read in
  non local Contribution for L=           1  read in
    real space projection operators read in
  non local Contribution for L=           2  read in
    real space projection operators read in
  non local Contribution for L=           2  read in
    real space projection operators read in
  non local Contribution for L=           0  read in
    real space projection operators read in
  non local Contribution for L=           0  read in
    real space projection operators read in
    PAW grid and wavefunctions read in
 
   number of l-projection  operators is LMAX  =           6
   number of lm-projection operators is LMMAX =          18
 
 POTCAR:    PAW_PBE C 08Apr2002                   
   SHA256 =  253f7b50bb8d59471dbedb8285d89021f4a42ed1a2c5d38a03a736e69125dd95 C/
   COPYR  = (c) Copyright 08Apr2002 Georg Kresse                                
   COPYR  = This file is part of the software VASP. Any use, copying, and all ot
   COPYR  = If you do not have a valid VASP license, you may not use, copy or di
   VRHFIN =C: s2p2                                                              
   LEXCH  = PE                                                                  
   EATOM  =   147.1560 eV,   10.8157 Ry                                         
                                                                                
   TITEL  = PAW_PBE C 08Apr2002                                                 
   LULTRA =        F    use ultrasoft PP ?                                      
   IUNSCR =        1    unscreen: 0-lin 1-nonlin 2-no                           
   RPACOR =    1.200    partial core radius                                     
   POMASS =   12.011; ZVAL   =    4.000    mass and valenz                      
   RCORE  =    1.500    outmost cutoff radius                                   
   RWIGS  =    1.630; RWIGS  =    0.863    wigner-seitz radius (au A)           
   ENMAX  =  400.000; ENMIN  =  300.000 eV                                      
   ICORE  =        2    local potential                                         
   LCOR   =        T    correct aug charges                                     
   LPAW   =        T    paw PP                                                  
   EAUG   =  644.873                                                            
   DEXC   =    0.000                                                            
   RMAX   =    1.529    core radius for proj-oper                               
   RAUG   =    1.300    factor for augmentation sphere                          
   RDEP   =    1.501    radius for radial grids                                 
   RDEPT  =    1.300    core radius for aug-charge                              
                                                                                
   Atomic configuration                                                         
    4 entries                                                                   
     n  l   j            E        occ.                                          
     1  0  0.50      -273.3789   2.0000                                         
     2  0  0.50       -13.7508   2.0000                                         
     2  1  0.50        -5.2854   2.0000                                         
     3  2  1.50        -5.4423   0.0000                                         
   Description                                                                  
     l       E           TYP  RCUT    TYP  RCUT                                 
     0    -13.7508458     23  1.200                                             
     0     -8.2022199     23  1.200                                             
     1     -5.2854383     23  1.500                                             
     1     34.0145650     23  1.500                                             
     2     -5.4423304      7  1.500                                             
  local pseudopotential read in
  partial core-charges read in
  partial kinetic energy density read in
  atomic valenz-charges read in
  non local Contribution for L=           0  read in
    real space projection operators read in
  non local Contribution for L=           0  read in
    real space projection operators read in
  non local Contribution for L=           1  read in
    real space projection operators read in
  non local Contribution for L=           1  read in
    real space projection operators read in
    PAW grid and wavefunctions read in
 
   number of l-projection  operators is LMAX  =           4
   number of lm-projection operators is LMMAX =           8
 
 POTCAR:    PAW_PBE O 08Apr2002                   
   SHA256 =  818f92134a0a090dccd8ba1447fa70422a3b330e708bb4f08108d8ae51209ddf O/
   COPYR  = (c) Copyright 08Apr2002 Georg Kresse                                
   COPYR  = This file is part of the software VASP. Any use, copying, and all ot
   COPYR  = If you do not have a valid VASP license, you may not use, copy or di
   VRHFIN =O: s2p4                                                              
   LEXCH  = PE                                                                  
   EATOM  =   432.3788 eV,   31.7789 Ry                                         
                                                                                
   TITEL  = PAW_PBE O 08Apr2002                                                 
   LULTRA =        F    use ultrasoft PP ?                                      
   IUNSCR =        1    unscreen: 0-lin 1-nonlin 2-no                           
   RPACOR =    1.200    partial core radius                                     
   POMASS =   16.000; ZVAL   =    6.000    mass and valenz                      
   RCORE  =    1.520    outmost cutoff radius                                   
   RWIGS  =    1.550; RWIGS  =    0.820    wigner-seitz radius (au A)           
   ENMAX  =  400.000; ENMIN  =  300.000 eV                                      
   ICORE  =        2    local potential                                         
   LCOR   =        T    correct aug charges                                     
   LPAW   =        T    paw PP                                                  
   EAUG   =  605.392                                                            
   DEXC   =    0.000                                                            
   RMAX   =    1.553    core radius for proj-oper                               
   RAUG   =    1.300    factor for augmentation sphere                          
   RDEP   =    1.550    radius for radial grids                                 
   RDEPT  =    1.329    core radius for aug-charge                              
                                                                                
   Atomic configuration                                                         
    4 entries                                                                   
     n  l   j            E        occ.                                          
     1  0  0.50      -514.6923   2.0000                                         
     2  0  0.50       -23.9615   2.0000                                         
     2  1  0.50        -9.0305   4.0000                                         
     3  2  1.50        -9.5241   0.0000                                         
   Description                                                                  
     l       E           TYP  RCUT    TYP  RCUT                                 
     0    -23.9615318     23  1.200                                             
     0     -9.5240782     23  1.200                                             
     1     -9.0304911     23  1.520                                             
     1      8.1634956     23  1.520                                             
     2     -9.5240782      7  1.500                                             
  local pseudopotential read in
  partial core-charges read in
  partial kinetic energy density read in
  kinetic energy density of atom read in
  atomic valenz-charges read in
  non local Contribution for L=           0  read in
    real space projection operators read in
  non local Contribution for L=           0  read in
    real space projection operators read in
  non local Contribution for L=           1  read in
    real space projection operators read in
  non local Contribution for L=           1  read in
    real space projection operators read in
    PAW grid and wavefunctions read in
 
   number of l-projection  operators is LMAX  =           4
   number of lm-projection operators is LMMAX =           8
 

 ----------------------------------------------------------------------------- 
|                                                                             |
|  ADVICE TO THIS USER RUNNING 'VASP/VAMP'   (HEAR YOUR MASTER'S VOICE ...):  |
|                                                                             |
|      You have a (more or less) 'large supercell' and for larger cells       |
|      it might be more efficient to use real space projection opertators     |
|      So try LREAL= Auto  in the INCAR   file.                               |
|      Mind:          For very  accurate calculation you might also keep the  |
|      reciprocal projection scheme          (i.e. LREAL=.FALSE.)             |
|                                                                             |
 ----------------------------------------------------------------------------- 

  PAW_PBE C 08Apr2002                   :
 energy of atom  1       EATOM= -147.1560
 kinetic energy error for atom=    0.0132 (will be added to EATOM!!)
  PAW_PBE N 08Apr2002                   :
 energy of atom  2       EATOM= -264.5486
 kinetic energy error for atom=    0.0298 (will be added to EATOM!!)
  PAW_PBE C 08Apr2002                   :
 energy of atom  3       EATOM= -147.1560
 kinetic energy error for atom=    0.0132 (will be added to EATOM!!)
  PAW_PBE Cr_pv 02Aug2007               :
 energy of atom  4       EATOM=-1647.9177
 kinetic energy error for atom=    0.0134 (will be added to EATOM!!)
  PAW_PBE C 08Apr2002                   :
 energy of atom  5       EATOM= -147.1560
 kinetic energy error for atom=    0.0132 (will be added to EATOM!!)
  PAW_PBE O 08Apr2002                   :
 energy of atom  6       EATOM= -432.3788
 kinetic energy error for atom=    0.0458 (will be added to EATOM!!)
 
 
 POSCAR: POSCAR-clean                            
  positions in cartesian coordinates
  No initial velocities read in
 exchange correlation table for  LEXCH =        8
   RHO(1)=    0.500       N(1)  =     2000
   RHO(2)=  100.500       N(2)  =     4000

 VTST: version 3.2, (02/03/18)

 CHAIN: initializing optimizer
 
 OPT: Using VASP Dynamics algorithm
 CHAIN: Read ICHAIN            0
 
 POSCAR: POSCAR-clean                            
  positions in cartesian coordinates
  No initial velocities read in
 


--------------------------------------------------------------------------------------------------------


 ion  position               nearest neighbor table
   1  1.000  0.999  0.484-   2 1.42  60 1.43  70 1.43
   2  0.056  0.111  0.484-   1 1.42  13 1.43  15 1.43
   3  0.168  0.002  0.483-  62 1.42   4 1.42  60 1.43
   4  0.224  0.113  0.484-  15 1.42   3 1.42  17 1.43
   5  0.334  0.002  0.484-   6 1.42  64 1.43  62 1.43
   6  0.390  0.113  0.484-   5 1.42  19 1.43  17 1.43
   7  0.500  1.000  0.484-   8 1.42  64 1.42  66 1.44
   8  0.556  0.112  0.484-   7 1.42  21 1.43  19 1.43
   9  0.666  0.998  0.484-  10 1.42  66 1.42  68 1.43
  10  0.722  0.109  0.483-   9 1.42  23 1.43  21 1.43
  11  0.832  0.998  0.484-  12 1.42  70 1.42  68 1.43
  12  0.888  0.109  0.484-  11 1.42  23 1.43  13 1.43
  13  0.999  0.166  0.484-  14 1.42   2 1.43  12 1.43
  14  0.055  0.277  0.484-  13 1.42  25 1.42  27 1.43
  15  0.168  0.168  0.484-   4 1.42  16 1.43   2 1.43
  16  0.223  0.280  0.486-  27 1.42  15 1.43  29 1.44
  17  0.335  0.170  0.485-  18 1.42   6 1.43   4 1.43
  18  0.391  0.281  0.488-  17 1.42  29 1.43  31 1.44
  19  0.501  0.168  0.484-   6 1.43  20 1.43   8 1.43
  20  0.557  0.280  0.486-  33 1.43  19 1.43  31 1.44
  21  0.667  0.166  0.483-  22 1.42   8 1.43  10 1.43
  22  0.723  0.277  0.484-  21 1.42  33 1.42  35 1.42
  23  0.833  0.165  0.483-  24 1.42  10 1.43  12 1.43
  24  0.888  0.277  0.484-  23 1.42  25 1.42  35 1.43
  25  0.999  0.333  0.484-  24 1.42  14 1.42  26 1.43
  26  0.055  0.445  0.485-  39 1.41  37 1.43  25 1.43
  27  0.166  0.333  0.486-  28 1.42  16 1.42  14 1.43
  28  0.220  0.444  0.488-  41 1.41  27 1.42  39 1.42
  29  0.336  0.338  0.489-  30 1.42  18 1.43  16 1.44
  30  0.389  0.449  0.495-  41 1.41  29 1.42  71 1.97
  31  0.503  0.339  0.489-  32 1.42  18 1.44  20 1.44
  32  0.561  0.450  0.496-  43 1.41  31 1.42  71 1.99
  33  0.668  0.333  0.486-  34 1.42  22 1.42  20 1.43
  34  0.725  0.445  0.487-  43 1.41  33 1.42  45 1.43
  35  0.833  0.333  0.484-  36 1.42  22 1.42  24 1.43
  36  0.889  0.444  0.484-  45 1.41  37 1.42  35 1.42
  37  1.000  0.501  0.484-  36 1.42  38 1.42  26 1.43
  38  0.055  0.612  0.484-  47 1.40  49 1.42  37 1.42
  39  0.165  0.500  0.486-  26 1.41  40 1.42  28 1.42
  40  0.220  0.611  0.486-  39 1.42  49 1.42  51 1.42
  41  0.330  0.499  0.492-  30 1.41  28 1.41  42 1.43
  42  0.385  0.612  0.491-  53 1.41  51 1.42  41 1.43
  43  0.671  0.500  0.491-  34 1.41  32 1.41  44 1.43
  44  0.727  0.612  0.491-  55 1.41  57 1.42  43 1.43
  45  0.836  0.501  0.486-  36 1.41  46 1.42  34 1.43
  46  0.892  0.612  0.486-  47 1.40  45 1.42  57 1.42
  47  0.001  0.667  0.484-  46 1.40  38 1.40  48 1.41
  48  0.056  0.778  0.484-  47 1.41  59 1.42  61 1.42
  49  0.166  0.668  0.485-  38 1.42  40 1.42  50 1.42
  50  0.223  0.779  0.484-  63 1.42  61 1.42  49 1.42
  51  0.331  0.667  0.488-  52 1.41  42 1.42  40 1.42
  52  0.388  0.778  0.486-  51 1.41  65 1.42  63 1.43
  53  0.495  0.662  0.495-  42 1.41  54 1.42  71 1.98
  54  0.553  0.773  0.489-  53 1.42  67 1.43  65 1.44
  55  0.667  0.662  0.496-  44 1.41  56 1.42  71 2.00
  56  0.720  0.773  0.490-  55 1.42  67 1.44  69 1.45
  57  0.837  0.667  0.487-  58 1.41  44 1.42  46 1.42
  58  0.890  0.778  0.486-  57 1.41  69 1.42  59 1.42
  59  0.001  0.833  0.484-  48 1.42  58 1.42  60 1.42
  60  0.057  0.945  0.483-  59 1.42   3 1.43   1 1.43
  61  0.167  0.834  0.484-  50 1.42  48 1.42  62 1.43
  62  0.223  0.946  0.483-   3 1.42  61 1.43   5 1.43
  63  0.333  0.834  0.484-  50 1.42  64 1.42  52 1.43
  64  0.389  0.946  0.484-  63 1.42   7 1.42   5 1.43
  65  0.499  0.831  0.486-  52 1.42  66 1.43  54 1.44
  66  0.555  0.943  0.484-   9 1.42  65 1.43   7 1.44
  67  0.665  0.830  0.488-  68 1.42  54 1.43  56 1.44
  68  0.721  0.941  0.485-  67 1.42   9 1.43  11 1.43
  69  0.833  0.831  0.486-  58 1.42  70 1.43  56 1.45
  70  0.888  0.943  0.484-  11 1.42  69 1.43   1 1.43
  71  0.526  0.556  0.541-  30 1.97  53 1.98  32 1.99  55 2.00
  72  0.526  0.556  0.940-  73 1.16
  73  0.476  0.499  0.996-  72 1.16
 

IMPORTANT INFORMATION: All symmetrisations will be switched off!
NOSYMM: (Re-)initialisation of all symmetry stuff for point group C_1.

 
 
 KPOINTS: K-Points                                

Automatic generation of k-mesh.
Space group operators:
 irot       det(A)        alpha          n_x          n_y          n_z        tau_x        tau_y        tau_z
    1     1.000000     0.000001     1.000000     0.000000     0.000000     0.000000     0.000000     0.000000
 
 Subroutine IBZKPT returns following result:
 ===========================================
 
 Found      5 irreducible k-points:
 
 Following reciprocal coordinates:
            Coordinates               Weight
  0.000000  0.000000  0.000000      1.000000
  0.333333 -0.000000  0.000000      2.000000
 -0.000000  0.333333  0.000000      2.000000
  0.333333  0.333333  0.000000      2.000000
 -0.333333  0.333333  0.000000      2.000000
 
 Following cartesian coordinates:
            Coordinates               Weight
  0.000000  0.000000  0.000000      1.000000
  0.022426  0.013069  0.000000      2.000000
 -0.000006  0.026138  0.000000      2.000000
  0.022421  0.039207  0.000000      2.000000
 -0.022432  0.013069  0.000000      2.000000
 
 TETIRR: Found     24 inequivalent tetrahedra from       54


--------------------------------------------------------------------------------------------------------




 Dimension of arrays:
   k-points           NKPTS =      5   k-points in BZ     NKDIM =      5   number of bands    NBANDS=    192
   number of dos      NEDOS =   4000   number of ions     NIONS =     73
   non local maximal  LDIM  =      6   non local SUM 2l+1 LMDIM =     18
   total plane-waves  NPLWV = 512000
   max r-space proj   IRMAX =      1   max aug-charges    IRDMAX=   6465
   dimension x,y,z NGX =    80 NGY =   80 NGZ =   80
   dimension x,y,z NGXF=   160 NGYF=  160 NGZF=  160
   support grid    NGXF=   160 NGYF=  160 NGZF=  160
   ions per type =              46   1  23   1   1   1
   NGX,Y,Z   is equivalent  to a cutoff of   8.95,  9.01,  8.87 a.u.
   NGXF,Y,Z  is equivalent  to a cutoff of  17.90, 18.02, 17.73 a.u.

 SYSTEM =  unknown system                          
 POSCAR =  POSCAR-clean                            

 Startparameter for this run:
   NWRITE =      2    write-flag & timer
   PREC   = normal    normal or accurate (medium, high low for compatibility)
   ISTART =      0    job   : 0-new  1-cont  2-samecut
   ICHARG =      2    charge: 1-file 2-atom 10-const
   ISPIN  =      2    spin polarized calculation?
   LNONCOLLINEAR =      F non collinear calculations
   LSORBIT =      F    spin-orbit coupling
   INIWAV =      1    electr: 0-lowe 1-rand  2-diag
   LASPH  =      F    aspherical Exc in radial PAW
   METAGGA=      F    non-selfconsistent MetaGGA calc.

 Electronic Relaxation 1
   ENCUT  =  440.0 eV  32.34 Ry    5.69 a.u.  25.42 25.24 25.66*2*pi/ulx,y,z
   ENINI  =  440.0     initial cutoff
   ENAUG  =  644.9 eV  augmentation charge cutoff
   NELM   =    100;   NELMIN=  2; NELMDL= -5     # of ELM steps 
   EDIFF  = 0.1E-03   stopping-criterion for ELM
   LREAL  =      F    real-space projection
   NLSPLINE    = F    spline interpolate recip. space projectors
   LCOMPAT=      F    compatible to vasp.4.4
   GGA_COMPAT  = T    GGA compatible to vasp.4.4-vasp.4.6
   LMAXPAW     = -100 max onsite density
   LMAXMIX     =    2 max onsite mixed and CHGCAR
   VOSKOWN=      0    Vosko Wilk Nusair interpolation
   ROPT   =    0.00000   0.00000   0.00000   0.00000
   ROPT   =    0.00000   0.00000
 Ionic relaxation
   EDIFFG = -.1E-01   stopping-criterion for IOM
   NSW    =      0    number of steps for IOM
   NBLOCK =      1;   KBLOCK =      1    inner block; outer block 
   IBRION =     -1    ionic relax: 0-MD 1-quasi-New 2-CG
   NFREE  =      0    steps in history (QN), initial steepest desc. (CG)
   ISIF   =      2    stress and relaxation
   IWAVPR =     10    prediction:  0-non 1-charg 2-wave 3-comb
   ISYM   =      0    0-nonsym 1-usesym 2-fastsym
   LCORR  =      T    Harris-Foulkes like correction to forces

   POTIM  = 0.5000    time-step for ionic-motion
   TEIN   =    0.0    initial temperature
   TEBEG  =    0.0;   TEEND  =   0.0 temperature during run
   SMASS  =  -3.00    Nose mass-parameter (am)
   estimated Nose-frequenzy (Omega)   =  0.10E-29 period in steps =****** mass=  -0.505E-26a.u.
   SCALEE = 1.0000    scale energy and forces
   NPACO  =    256;   APACO  = 16.0  distance and # of slots for P.C.
   PSTRESS=    0.0 pullay stress

  Mass of Ions in am
   POMASS =  12.01 14.00 12.01 52.00 12.01 16.00
  Ionic Valenz
   ZVAL   =   4.00  5.00  4.00 12.00  4.00  6.00
  Atomic Wigner-Seitz radii
   RWIGS  =  -1.00 -1.00 -1.00 -1.00 -1.00 -1.00
  virtual crystal weights 
   VCA    =   1.00  1.00  1.00  1.00  1.00  1.00
   NELECT =     303.0000    total number of electrons
   NUPDOWN=      -1.0000    fix difference up-down

 DOS related values:
   EMIN   = -14.00;   EMAX   =  6.00  energy-range for DOS
   EFERMI =   0.00
   ISMEAR =    -5;   SIGMA  =   0.20  broadening in eV -4-tet -1-fermi 0-gaus

 Electronic relaxation 2 (details)
   IALGO  =     38    algorithm
   LDIAG  =      T    sub-space diagonalisation (order eigenvalues)
   LSUBROT=      F    optimize rotation matrix (better conditioning)
   TURBO    =      0    0=normal 1=particle mesh
   IRESTART =      0    0=no restart 2=restart with 2 vectors
   NREBOOT  =      0    no. of reboots
   NMIN     =      0    reboot dimension
   EREF     =   0.00    reference energy to select bands
   IMIX   =      4    mixing-type and parameters
     AMIX     =   0.25;   BMIX     =  0.00
     AMIX_MAG =   1.00;   BMIX_MAG =  0.00
     AMIN     =   0.10
     WC   =   100.;   INIMIX=   1;  MIXPRE=   1;  MAXMIX= -45

 Intra band minimization:
   WEIMIN = 0.0000     energy-eigenvalue tresh-hold
   EBREAK =  0.13E-06  absolut break condition
   DEPER  =   0.30     relativ break condition  

   TIME   =   0.40     timestep for ELM

  volume/ion in A,a.u.               =      38.94       262.81
  Fermi-wavevector in a.u.,A,eV,Ry     =   0.776189  1.466784  8.197090  0.602469
  Thomas-Fermi vector in A             =   1.878614
 
 Write flags
   LWAVE        =      F    write WAVECAR
   LDOWNSAMPLE  =      F    k-point downsampling of WAVECAR
   LCHARG       =      F    write CHGCAR
   LVTOT        =      F    write LOCPOT, total local potential
   LVHAR        =      F    write LOCPOT, Hartree potential only
   LELF         =      F    write electronic localiz. function (ELF)
   LORBIT       =     11    0 simple, 1 ext, 2 COOP (PROOUT), +10 PAW based schemes


 Dipole corrections
   LMONO  =      F    monopole corrections only (constant potential shift)
   LDIPOL =      F    correct potential (dipole corrections)
   IDIPOL =      0    1-x, 2-y, 3-z, 4-all directions 
   EPSILON=  1.0000000 bulk dielectric constant

 Exchange correlation treatment:
   GGA     =    --    GGA type
   LEXCH   =     8    internal setting for exchange type
   VOSKOWN=      0    Vosko Wilk Nusair interpolation
   LHFCALC =     F    Hartree Fock is set to
   LHFONE  =     F    Hartree Fock one center treatment
   AEXX    =    0.0000 exact exchange contribution

 Linear response parameters
   LEPSILON=     F    determine dielectric tensor
   LRPA    =     F    only Hartree local field effects (RPA)
   LNABLA  =     F    use nabla operator in PAW spheres
   LVEL    =     F    velocity operator in full k-point grid
   LINTERFAST=   F  fast interpolation
   KINTER  =     0    interpolate to denser k-point grid
   CSHIFT  =0.1000    complex shift for real part using Kramers Kronig
   OMEGAMAX=  -1.0    maximum frequency
   DEG_THRESHOLD= 0.2000000E-02 threshold for treating states as degnerate
   RTIME   =   -0.100 relaxation time in fs
  (WPLASMAI=    0.000 imaginary part of plasma frequency in eV, 0.658/RTIME)
   DFIELD  = 0.0000000 0.0000000 0.0000000 field for delta impulse in time
 
 Orbital magnetization related:
   ORBITALMAG=     F  switch on orbital magnetization
   LCHIMAG   =     F  perturbation theory with respect to B field
   DQ        =  0.001000  dq finite difference perturbation B field
   LLRAUG    =     F  two centre corrections for induced B field



--------------------------------------------------------------------------------------------------------


 Static calculation
 charge density and potential will be updated during run
 spin polarized calculation
 Variant of blocked Davidson
 Davidson routine will perform the subspace rotation
 perform sub-space diagonalisation
    after iterative eigenvector-optimisation
 modified Broyden-mixing scheme, WC =      100.0
 initial mixing is a Kerker type mixing with AMIX =  0.2500 and BMIX =      0.0001
 Hartree-type preconditioning will be used
 using additional bands           40
 reciprocal scheme for non local part
 use partial core corrections
 calculate Harris-corrections to forces 
   (improved forces if not selfconsistent)
 use gradient corrections 
 use of overlap-Matrix (Vanderbilt PP)
 Fermi weights with tetrahedron method with Bloechl corrections


--------------------------------------------------------------------------------------------------------


  energy-cutoff  :      440.00
  volume of cell :     2842.92
      direct lattice vectors                 reciprocal lattice vectors
    14.861552846  0.003181263  0.000000000     0.067279327  0.039206721  0.000000000
    -7.430776423 12.751325012  0.000000000    -0.000016785  0.078413441  0.000000000
     0.000000000  0.000000000 15.000000000     0.000000000  0.000000000  0.066666667

  length of vectors
    14.861553187 14.758479861 15.000000000     0.077869601  0.078413443  0.066666667


 
 k-points in units of 2pi/SCALE and weight: K-Points                                
   0.00000000  0.00000000  0.00000000       0.111
   0.02242644  0.01306891  0.00000000       0.222
  -0.00000560  0.02613781  0.00000000       0.222
   0.02242085  0.03920672  0.00000000       0.222
  -0.02243204  0.01306891  0.00000000       0.222
 
 k-points in reciprocal lattice and weights: K-Points                                
   0.00000000  0.00000000  0.00000000       0.111
   0.33333333 -0.00000000  0.00000000       0.222
  -0.00000000  0.33333333  0.00000000       0.222
   0.33333333  0.33333333  0.00000000       0.222
  -0.33333333  0.33333333  0.00000000       0.222
 
 position of ions in fractional coordinates (direct lattice) 
   0.99996624  0.99937049  0.48354366
   0.05579554  0.11109934  0.48367472
   0.16776442  0.00163640  0.48346388
   0.22356233  0.11329068  0.48420716
   0.33395684  0.00164424  0.48361298
   0.38991127  0.11326629  0.48429633
   0.49995613  0.99989870  0.48367716
   0.55570055  0.11151408  0.48358326
   0.66576819  0.99772846  0.48420366
   0.72160933  0.10933773  0.48346678
   0.83238286  0.99768889  0.48428648
   0.88804991  0.10923029  0.48361162
   0.99923404  0.16555516  0.48369369
   0.05465925  0.27706706  0.48436295
   0.16750624  0.16803604  0.48442724
   0.22329688  0.27980029  0.48612329
   0.33514548  0.17005364  0.48530102
   0.39088913  0.28146090  0.48828943
   0.50092902  0.16833619  0.48436441
   0.55707566  0.28033392  0.48607378
   0.66670125  0.16578596  0.48346677
   0.72251514  0.27705386  0.48396268
   0.83271681  0.16506345  0.48349792
   0.88849600  0.27656882  0.48359738
   0.99934026  0.33269289  0.48413567
   0.05485815  0.44460061  0.48458886
   0.16563279  0.33306536  0.48609962
   0.21960988  0.44404400  0.48811943
   0.33564813  0.33783446  0.48903464
   0.38875232  0.44890093  0.49470949
   0.50284867  0.33854938  0.48948232
   0.56089386  0.44972414  0.49558979
   0.66800473  0.33347357  0.48566372
   0.72522584  0.44476502  0.48732089
   0.83345439  0.33252002  0.48377840
   0.88948063  0.44380688  0.48413696
   0.99984141  0.50060221  0.48411483
   0.05530981  0.61194100  0.48422074
   0.16481468  0.49998885  0.48637167
   0.21992598  0.61125118  0.48636979
   0.32962013  0.49945950  0.49150776
   0.38549404  0.61175229  0.49140811
   0.67058309  0.49966056  0.49125403
   0.72714806  0.61159936  0.49125105
   0.83633402  0.50069790  0.48560259
   0.89217585  0.61184609  0.48574862
   0.00120094  0.66717258  0.48432324
   0.05607323  0.77778002  0.48386645
   0.16565810  0.66754011  0.48467408
   0.22270578  0.77900649  0.48417219
   0.33077120  0.66716700  0.48803247
   0.38805621  0.77805067  0.48605403
   0.49517415  0.66230016  0.49461428
   0.55326623  0.77318289  0.48910340
   0.66742077  0.66159850  0.49555134
   0.71998000  0.77257195  0.48952231
   0.83727640  0.66740788  0.48736865
   0.89012505  0.77820340  0.48563645
   0.00098580  0.83325021  0.48395966
   0.05671786  0.94491977  0.48344336
   0.16679543  0.83374153  0.48362612
   0.22253903  0.94562785  0.48349472
   0.33314076  0.83424317  0.48435273
   0.38908925  0.94564418  0.48368844
   0.49889729  0.83126477  0.48612439
   0.55486270  0.94301666  0.48441987
   0.66500442  0.82953714  0.48838831
   0.72066199  0.94089670  0.48532033
   0.83253058  0.83097615  0.48601476
   0.88841029  0.94291022  0.48431317
   0.52629146  0.55561285  0.54098295
   0.52629146  0.55561285  0.93964962
   0.47623591  0.49870233  0.99600543
 
 position of ions in cartesian coordinates  (Angst):
   7.43495239 12.74647911  7.25315493
   0.00365402  1.41684124  7.25512077
   2.48108015  0.02139994  7.25195821
   2.48064561  1.44531754  7.26310738
   4.95089922  0.02202871  7.25419471
   4.95303039  1.44553574  7.26444495
   0.00010069 12.75162380  7.25515733
   7.42993688  1.42372012  7.25374885
   2.48045199 12.72447784  7.26305485
   9.91177095  1.39649653  7.25200173
   4.95689875 12.72450332  7.26429722
  12.38613489  1.39565603  7.25417425
  13.61996613  2.11422650  7.25540540
  -1.24650209  3.53314608  7.26544431
   1.24076464  2.14321502  7.26640863
   1.23940502  3.56853482  7.29184942
   3.71715170  2.16947537  7.27951528
   3.71774651  3.59024289  7.32434147
   6.19371449  2.14810309  7.26546618
   6.19591075  3.57640112  7.29110675
   8.67629741  2.11611164  7.25200158
   8.67897172  3.53510232  7.25944016
  11.14891532  2.10742677  7.25246878
  11.14930920  3.52944542  7.25396074
  12.37958161  4.24545437  7.26203504
  -2.48845048  5.66942143  7.26883286
  -0.01337380  4.24755156  7.29149432
  -0.03584793  5.66284805  7.32179142
   2.47788011  4.30890473  7.33551961
   2.44178069  5.72531844  7.42064236
   4.95742726  4.31855287  7.34223475
   4.99395421  5.73636298  7.43384692
   7.44961999  4.25435500  7.28495581
   7.47303283  5.67365040  7.30981337
   9.91554446  4.24272232  7.25667601
   9.92123374  5.66195541  7.26205435
  11.13933283  6.38652225  7.26172249
  -3.72520709  7.80323449  7.26331110
  -1.26590329  6.37604463  7.29557510
  -1.27362936  7.79496213  7.29554690
   1.18729505  6.36981900  7.37261644
   1.18324558  7.80187858  7.37112170
   6.25304015  6.37346747  7.36881038
   6.26189126  7.80101545  7.36876582
   8.70864817  6.38722223  7.28403887
   8.71262701  7.80468658  7.28622931
  -4.93976236  8.50733818  7.26484856
  -4.94617408  9.91790414  7.25799670
  -2.49840465  8.51254787  7.27011126
  -2.47886929  9.93407338  7.26258287
  -0.04179513  8.50831556  7.32048708
  -0.01440271  9.92241142  7.29081045
   2.43765233  8.44677992  7.41921415
   2.47704612  9.86086638  7.33655106
   5.00271859  8.43838071  7.43327010
   4.95921142  9.85360647  7.34283463
   7.48386871  8.51299840  7.31052975
   7.44598498  9.92595623  7.28454674
  -6.17704549 10.62504738  7.25939484
  -6.17857211 12.04915955  7.25165040
  -3.71650772 10.63183981  7.25439174
  -3.71947362 12.05871598  7.25242083
  -1.24808545 10.63876566  7.26529091
  -1.24439995 12.05945404  7.25532655
   1.23744572 10.60131440  7.29186584
   1.23877542 12.02647712  7.26629806
   3.71889328 10.57981323  7.32582470
   3.71856325 11.99997222  7.27980502
   6.19789929 10.59869545  7.29022147
   6.19660144 12.02618095  7.26469753
   3.69287356  7.08647424  8.11474425
   3.69287356  7.08647424 14.09474425
   3.37185961  6.36063055 14.94008143
 


--------------------------------------------------------------------------------------------------------


 k-point  1 :   0.0000 0.0000 0.0000  plane waves:   59577
 k-point  2 :   0.3333-0.0000 0.0000  plane waves:   59554
 k-point  3 :  -0.0000 0.3333 0.0000  plane waves:   59606
 k-point  4 :   0.3333 0.3333 0.0000  plane waves:   59628
 k-point  5 :  -0.3333 0.3333 0.0000  plane waves:   59552

 maximum and minimum number of plane-waves per node :      4988     4935

 maximum number of plane-waves:     59628
 maximum index in each direction: 
   IXMAX=   25   IYMAX=   25   IZMAX=   25
   IXMIN=  -25   IYMIN=  -25   IZMIN=  -25


 parallel 3D FFT for wavefunctions:
    minimum data exchange during FFTs selected (reduces bandwidth)
 parallel 3D FFT for charge:
    minimum data exchange during FFTs selected (reduces bandwidth)


 total amount of memory used by VASP MPI-rank0   116147. kBytes
=======================================================================

   base      :      30000. kBytes
   nonl-proj :      27330. kBytes
   fftplans  :       4700. kBytes
   grid      :      15193. kBytes
   one-center:        217. kBytes
   wavefun   :      38707. kBytes
 
     INWAV:  cpu time    0.0000: real time    0.0001
 Broyden mixing: mesh for mixing (old mesh)
   NGX = 51   NGY = 51   NGZ = 51
  (NGX  =160   NGY  =160   NGZ  =160)
  gives a total of 132651 points

 initial charge density was supplied:
 charge density of overlapping atoms calculated
 number of electron     303.0000000 magnetization       2.0000000
 keeping initial charge density in first step


--------------------------------------------------------------------------------------------------------


 Maximum index for augmentation-charges          182 (set IRDMAX)


--------------------------------------------------------------------------------------------------------


 First call to EWALD:  gamma=   0.125
 Maximum number of real-space cells 3x 3x 3
 Maximum number of reciprocal cells 3x 3x 3

    FEWALD:  cpu time    0.0047: real time    0.0050


--------------------------------------- Iteration      1(   1)  ---------------------------------------


    POTLOK:  cpu time    0.2006: real time    0.3165
    SETDIJ:  cpu time    0.0092: real time    0.0098
     EDDAV:  cpu time   11.1519: real time   11.2591
 BZINTS: Fermi energy:  7.960411;303.000000 electrons
         Band energy:***********;  BLOECHL correction: -0.008416
       DOS:  cpu time    0.1086: real time    0.1090
    --------------------------------------------
      LOOP:  cpu time   11.4703: real time   11.6945

 eigenvalue-minimisations  :  4328
 total energy-change (2. order) : 0.2555705E+04  (-0.1114299E+05)
 number of electron     303.0000000 magnetization       2.0000000
 augmentation part      303.0000000 magnetization       2.0000000

 Free energy of the ion-electron system (eV)
  ---------------------------------------------------
  alpha Z        PSCENC =       167.26608108
  Ewald energy   TEWEN  =     28894.28541650
  -Hartree energ DENC   =    -38574.03396402
  -exchange      EXHF   =         0.00000000
  -V(xc)+E(xc)   XCENC  =      1022.11659258
  PAW double counting   =      9455.23336183    -9546.47664214
  entropy T*S    EENTRO =         0.00000000
  eigenvalues    EBANDS =     -1507.43916612
  atomic energy  EATOM  =     12644.75315347
  Solvation  Ediel_sol  =         0.00000000
  ---------------------------------------------------
  free energy    TOTEN  =      2555.70483318 eV

  energy without entropy =     2555.70483318  energy(sigma->0) =     2555.70483318


--------------------------------------------------------------------------------------------------------




--------------------------------------- Iteration      1(   2)  ---------------------------------------


     EDDAV:  cpu time   14.9704: real time   15.2544
 BZINTS: Fermi energy: -1.370654;303.000000 electrons
         Band energy:***********;  BLOECHL correction: -0.055697
       DOS:  cpu time    0.0112: real time    0.0113
    --------------------------------------------
      LOOP:  cpu time   14.9817: real time   15.2657

 eigenvalue-minimisations  :  5536
 total energy-change (2. order) :-0.2790817E+04  (-0.2664559E+04)
 number of electron     303.0000000 magnetization       2.0000000
 augmentation part      303.0000000 magnetization       2.0000000

 Free energy of the ion-electron system (eV)
  ---------------------------------------------------
  alpha Z        PSCENC =       167.26608108
  Ewald energy   TEWEN  =     28894.28541650
  -Hartree energ DENC   =    -38574.03396402
  -exchange      EXHF   =         0.00000000
  -V(xc)+E(xc)   XCENC  =      1022.11659258
  PAW double counting   =      9455.23336183    -9546.47664214
  entropy T*S    EENTRO =         0.00000000
  eigenvalues    EBANDS =     -4298.25629094
  atomic energy  EATOM  =     12644.75315347
  Solvation  Ediel_sol  =         0.00000000
  ---------------------------------------------------
  free energy    TOTEN  =      -235.11229164 eV

  energy without entropy =     -235.11229164  energy(sigma->0) =     -235.11229164


--------------------------------------------------------------------------------------------------------




--------------------------------------- Iteration      1(   3)  ---------------------------------------


     EDDAV:  cpu time   12.8521: real time   12.9886
 BZINTS: Fermi energy: -4.527101;303.000000 electrons
         Band energy:***********;  BLOECHL correction: -0.043511
       DOS:  cpu time    0.0115: real time    0.0116
    --------------------------------------------
      LOOP:  cpu time   12.8636: real time   13.0002

 eigenvalue-minimisations  :  4560
 total energy-change (2. order) :-0.4668564E+03  (-0.4635308E+03)
 number of electron     303.0000000 magnetization       2.0000000
 augmentation part      303.0000000 magnetization       2.0000000

 Free energy of the ion-electron system (eV)
  ---------------------------------------------------
  alpha Z        PSCENC =       167.26608108
  Ewald energy   TEWEN  =     28894.28541650
  -Hartree energ DENC   =    -38574.03396402
  -exchange      EXHF   =         0.00000000
  -V(xc)+E(xc)   XCENC  =      1022.11659258
  PAW double counting   =      9455.23336183    -9546.47664214
  entropy T*S    EENTRO =         0.00000000
  eigenvalues    EBANDS =     -4765.11268128
  atomic energy  EATOM  =     12644.75315347
  Solvation  Ediel_sol  =         0.00000000
  ---------------------------------------------------
  free energy    TOTEN  =      -701.96868198 eV

  energy without entropy =     -701.96868198  energy(sigma->0) =     -701.96868198


--------------------------------------------------------------------------------------------------------




--------------------------------------- Iteration      1(   4)  ---------------------------------------


     EDDAV:  cpu time   12.9771: real time   13.2852
 BZINTS: Fermi energy: -4.708465;303.000000 electrons
         Band energy:***********;  BLOECHL correction: -0.043947
       DOS:  cpu time    0.0109: real time    0.0110
    --------------------------------------------
      LOOP:  cpu time   12.9880: real time   13.2962

 eigenvalue-minimisations  :  4648
 total energy-change (2. order) :-0.1691152E+02  (-0.1676402E+02)
 number of electron     303.0000000 magnetization       2.0000000
 augmentation part      303.0000000 magnetization       2.0000000

 Free energy of the ion-electron system (eV)
  ---------------------------------------------------
  alpha Z        PSCENC =       167.26608108
  Ewald energy   TEWEN  =     28894.28541650
  -Hartree energ DENC   =    -38574.03396402
  -exchange      EXHF   =         0.00000000
  -V(xc)+E(xc)   XCENC  =      1022.11659258
  PAW double counting   =      9455.23336183    -9546.47664214
  entropy T*S    EENTRO =         0.00000000
  eigenvalues    EBANDS =     -4782.02419865
  atomic energy  EATOM  =     12644.75315347
  Solvation  Ediel_sol  =         0.00000000
  ---------------------------------------------------
  free energy    TOTEN  =      -718.88019935 eV

  energy without entropy =     -718.88019935  energy(sigma->0) =     -718.88019935


--------------------------------------------------------------------------------------------------------




--------------------------------------- Iteration      1(   5)  ---------------------------------------


     EDDAV:  cpu time   14.0414: real time   14.2864
 BZINTS: Fermi energy: -4.718352;303.000000 electrons
         Band energy:***********;  BLOECHL correction: -0.044060
       DOS:  cpu time    0.0114: real time    0.0115
    CHARGE:  cpu time    0.1877: real time    0.1915
    MIXING:  cpu time    0.0049: real time    0.0049
    --------------------------------------------
      LOOP:  cpu time   14.2455: real time   14.4943

 eigenvalue-minimisations  :  5240
 total energy-change (2. order) :-0.5482585E+00  (-0.5465923E+00)
 number of electron     302.9999976 magnetization       0.0159856
 augmentation part       12.3803808 magnetization       0.0691033

 Broyden mixing:
  rms(total) = 0.47649E+01    rms(broyden)= 0.47643E+01
  rms(prec ) = 0.55142E+01
  weight for this iteration     100.00

 Free energy of the ion-electron system (eV)
  ---------------------------------------------------
  alpha Z        PSCENC =       167.26608108
  Ewald energy   TEWEN  =     28894.28541650
  -Hartree energ DENC   =    -38574.03396402
  -exchange      EXHF   =         0.00000000
  -V(xc)+E(xc)   XCENC  =      1022.11659258
  PAW double counting   =      9455.23336183    -9546.47664214
  entropy T*S    EENTRO =         0.00000000
  eigenvalues    EBANDS =     -4782.57245719
  atomic energy  EATOM  =     12644.75315347
  Solvation  Ediel_sol  =         0.00000000
  ---------------------------------------------------
  free energy    TOTEN  =      -719.42845789 eV

  energy without entropy =     -719.42845789  energy(sigma->0) =     -719.42845789


--------------------------------------------------------------------------------------------------------




--------------------------------------- Iteration      1(   6)  ---------------------------------------


    POTLOK:  cpu time    0.1475: real time    0.1498
    SETDIJ:  cpu time    0.0108: real time    0.0108
     EDDAV:  cpu time   12.6555: real time   12.8159
 BZINTS: Fermi energy: -5.556693;303.000000 electrons
         Band energy:***********;  BLOECHL correction: -0.017864
       DOS:  cpu time    0.0109: real time    0.0110
    CHARGE:  cpu time    0.1633: real time    0.1698
    MIXING:  cpu time    0.0034: real time    0.0036
    --------------------------------------------
      LOOP:  cpu time   12.9915: real time   13.1609

 eigenvalue-minimisations  :  4864
 total energy-change (2. order) : 0.7224070E+00  (-0.8707016E+01)
 number of electron     303.0000013 magnetization       0.0118195
 augmentation part       17.9923774 magnetization       0.0256492

 Broyden mixing:
  rms(total) = 0.74133E+01    rms(broyden)= 0.74130E+01
  rms(prec ) = 0.84801E+01
  weight for this iteration     100.00

 eigenvalues of (default mixing * dielectric matrix)
  average eigenvalue GAMMA=   0.2842
  0.2842

 Free energy of the ion-electron system (eV)
  ---------------------------------------------------
  alpha Z        PSCENC =       167.26608108
  Ewald energy   TEWEN  =     28894.28541650
  -Hartree energ DENC   =    -38949.20182524
  -exchange      EXHF   =         0.00000000
  -V(xc)+E(xc)   XCENC  =      1034.89324221
  PAW double counting   =     13240.16334114   -13331.39975947
  entropy T*S    EENTRO =         0.00000000
  eigenvalues    EBANDS =     -4419.46570058
  atomic energy  EATOM  =     12644.75315347
  Solvation  Ediel_sol  =         0.00000000
  ---------------------------------------------------
  free energy    TOTEN  =      -718.70605089 eV

  energy without entropy =     -718.70605089  energy(sigma->0) =     -718.70605089


--------------------------------------------------------------------------------------------------------




--------------------------------------- Iteration      1(   7)  ---------------------------------------


    POTLOK:  cpu time    0.1617: real time    0.1693
    SETDIJ:  cpu time    0.0105: real time    0.0106
     EDDAV:  cpu time   12.6888: real time   12.8997
 BZINTS: Fermi energy: -4.051423;303.000000 electrons
         Band energy:***********;  BLOECHL correction: -0.015825
       DOS:  cpu time    0.0125: real time    0.0126
    CHARGE:  cpu time    0.1632: real time    0.1669
    MIXING:  cpu time    0.0038: real time    0.0040
    --------------------------------------------
      LOOP:  cpu time   13.0404: real time   13.2630

 eigenvalue-minimisations  :  4920
 total energy-change (2. order) : 0.4525410E+02  (-0.6387465E+01)
 number of electron     303.0000003 magnetization       0.6451258
 augmentation part       14.4430999 magnetization       0.3942382

 Broyden mixing:
  rms(total) = 0.26515E+01    rms(broyden)= 0.26510E+01
  rms(prec ) = 0.29149E+01
  weight for this iteration     100.00

 eigenvalues of (default mixing * dielectric matrix)
  average eigenvalue GAMMA=   0.6339
  0.9521  0.3156

 Free energy of the ion-electron system (eV)
  ---------------------------------------------------
  alpha Z        PSCENC =       167.26608108
  Ewald energy   TEWEN  =     28894.28541650
  -Hartree energ DENC   =    -39090.95408452
  -exchange      EXHF   =         0.00000000
  -V(xc)+E(xc)   XCENC  =      1039.37564819
  PAW double counting   =     14484.17142716   -14579.94184130
  entropy T*S    EENTRO =         0.00000000
  eigenvalues    EBANDS =     -4232.40775135
  atomic energy  EATOM  =     12644.75315347
  Solvation  Ediel_sol  =         0.00000000
  ---------------------------------------------------
  free energy    TOTEN  =      -673.45195078 eV

  energy without entropy =     -673.45195078  energy(sigma->0) =     -673.45195078


--------------------------------------------------------------------------------------------------------




--------------------------------------- Iteration      1(   8)  ---------------------------------------


    POTLOK:  cpu time    0.1351: real time    0.1373
    SETDIJ:  cpu time    0.0105: real time    0.0105
     EDDAV:  cpu time   12.7718: real time   12.9104
 BZINTS: Fermi energy: -2.480526;303.000000 electrons
         Band energy:***********;  BLOECHL correction: -0.033265
       DOS:  cpu time    0.0110: real time    0.0111
    CHARGE:  cpu time    0.1636: real time    0.1651
    MIXING:  cpu time    0.0032: real time    0.0032
    --------------------------------------------
      LOOP:  cpu time   13.0952: real time   13.2377

 eigenvalue-minimisations  :  4848
 total energy-change (2. order) : 0.3947965E+01  (-0.3484630E+01)
 number of electron     302.9999983 magnetization       0.1557440
 augmentation part       12.2657231 magnetization       0.1693884

 Broyden mixing:
  rms(total) = 0.25922E+01    rms(broyden)= 0.25915E+01
  rms(prec ) = 0.30490E+01
  weight for this iteration     100.00

 eigenvalues of (default mixing * dielectric matrix)
  average eigenvalue GAMMA=   1.1220
  2.5734  0.3964  0.3964

 Free energy of the ion-electron system (eV)
  ---------------------------------------------------
  alpha Z        PSCENC =       167.26608108
  Ewald energy   TEWEN  =     28894.28541650
  -Hartree energ DENC   =    -39382.15703470
  -exchange      EXHF   =         0.00000000
  -V(xc)+E(xc)   XCENC  =      1049.25568981
  PAW double counting   =     18242.97242130   -18341.94592185
  entropy T*S    EENTRO =         0.00000000
  eigenvalues    EBANDS =     -3943.93379110
  atomic energy  EATOM  =     12644.75315347
  Solvation  Ediel_sol  =         0.00000000
  ---------------------------------------------------
  free energy    TOTEN  =      -669.50398550 eV

  energy without entropy =     -669.50398550  energy(sigma->0) =     -669.50398550


--------------------------------------------------------------------------------------------------------




--------------------------------------- Iteration      1(   9)  ---------------------------------------


    POTLOK:  cpu time    0.1344: real time    0.1369
    SETDIJ:  cpu time    0.0087: real time    0.0088
     EDDAV:  cpu time   12.1321: real time   12.2264
 BZINTS: Fermi energy: -2.800720;303.000000 electrons
         Band energy:***********;  BLOECHL correction: -0.078225
       DOS:  cpu time    0.0113: real time    0.0113
    CHARGE:  cpu time    0.1933: real time    0.1945
    MIXING:  cpu time    0.0035: real time    0.0035
    --------------------------------------------
      LOOP:  cpu time   12.4833: real time   12.5814

 eigenvalue-minimisations  :  4592
 total energy-change (2. order) : 0.4700216E+01  (-0.2473725E+01)
 number of electron     303.0000010 magnetization      -0.1470543
 augmentation part       15.0343171 magnetization      -0.1552454

 Broyden mixing:
  rms(total) = 0.21185E+01    rms(broyden)= 0.21170E+01
  rms(prec ) = 0.27207E+01
  weight for this iteration     100.00

 eigenvalues of (default mixing * dielectric matrix)
  average eigenvalue GAMMA=   1.0580
  2.7281  0.7998  0.3521  0.3521

 Free energy of the ion-electron system (eV)
  ---------------------------------------------------
  alpha Z        PSCENC =       167.26608108
  Ewald energy   TEWEN  =     28894.28541650
  -Hartree energ DENC   =    -39798.82347460
  -exchange      EXHF   =         0.00000000
  -V(xc)+E(xc)   XCENC  =      1064.40617767
  PAW double counting   =     26046.60628934   -26148.93339155
  entropy T*S    EENTRO =         0.00000000
  eigenvalues    EBANDS =     -3534.36402169
  atomic energy  EATOM  =     12644.75315347
  Solvation  Ediel_sol  =         0.00000000
  ---------------------------------------------------
  free energy    TOTEN  =      -664.80376978 eV

  energy without entropy =     -664.80376978  energy(sigma->0) =     -664.80376978


--------------------------------------------------------------------------------------------------------




--------------------------------------- Iteration      1(  10)  ---------------------------------------


    POTLOK:  cpu time    0.1360: real time    0.1379
    SETDIJ:  cpu time    0.0087: real time    0.0088
     EDDAV:  cpu time   13.5401: real time   13.7044
 BZINTS: Fermi energy: -1.275709;303.000000 electrons
         Band energy:***********;  BLOECHL correction: -0.064055
       DOS:  cpu time    0.0114: real time    0.0115
    CHARGE:  cpu time    0.1989: real time    0.1999
    MIXING:  cpu time    0.0036: real time    0.0036
    --------------------------------------------
      LOOP:  cpu time   13.8988: real time   14.0662

 eigenvalue-minimisations  :  5256
 total energy-change (2. order) : 0.2731176E+01  (-0.1984138E+01)
 number of electron     303.0000000 magnetization      -0.1042979
 augmentation part       12.6659729 magnetization      -0.0706797

 Broyden mixing:
  rms(total) = 0.11079E+01    rms(broyden)= 0.11059E+01
  rms(prec ) = 0.12947E+01
  weight for this iteration     100.00

 eigenvalues of (default mixing * dielectric matrix)
  average eigenvalue GAMMA=   1.1769
  3.3881  1.1940  0.6440  0.3292  0.3292

 Free energy of the ion-electron system (eV)
  ---------------------------------------------------
  alpha Z        PSCENC =       167.26608108
  Ewald energy   TEWEN  =     28894.28541650
  -Hartree energ DENC   =    -39825.61619870
  -exchange      EXHF   =         0.00000000
  -V(xc)+E(xc)   XCENC  =      1065.46281032
  PAW double counting   =     27827.02270719   -27929.80010539
  entropy T*S    EENTRO =         0.00000000
  eigenvalues    EBANDS =     -3505.44645804
  atomic energy  EATOM  =     12644.75315347
  Solvation  Ediel_sol  =         0.00000000
  ---------------------------------------------------
  free energy    TOTEN  =      -662.07259357 eV

  energy without entropy =     -662.07259357  energy(sigma->0) =     -662.07259357


--------------------------------------------------------------------------------------------------------




--------------------------------------- Iteration      1(  11)  ---------------------------------------


    POTLOK:  cpu time    0.1373: real time    0.1397
    SETDIJ:  cpu time    0.0102: real time    0.0103
     EDDAV:  cpu time   13.5134: real time   13.6241
 BZINTS: Fermi energy: -1.736668;303.000000 electrons
         Band energy:***********;  BLOECHL correction: -0.013399
       DOS:  cpu time    0.0117: real time    0.0118
    CHARGE:  cpu time    0.1670: real time    0.1680
    MIXING:  cpu time    0.0037: real time    0.0038
    --------------------------------------------
      LOOP:  cpu time   13.8434: real time   13.9576

 eigenvalue-minimisations  :  5344
 total energy-change (2. order) : 0.5188503E+00  (-0.1282982E+00)
 number of electron     303.0000005 magnetization      -0.7016761
 augmentation part       13.3882931 magnetization      -0.3384206

 Broyden mixing:
  rms(total) = 0.68578E+00    rms(broyden)= 0.68479E+00
  rms(prec ) = 0.69941E+00
  weight for this iteration     100.00

 eigenvalues of (default mixing * dielectric matrix)
  average eigenvalue GAMMA=   1.1560
  3.4322  1.4748  0.9870  0.3370  0.3370  0.3680

 Free energy of the ion-electron system (eV)
  ---------------------------------------------------
  alpha Z        PSCENC =       167.26608108
  Ewald energy   TEWEN  =     28894.28541650
  -Hartree energ DENC   =    -39811.92197513
  -exchange      EXHF   =         0.00000000
  -V(xc)+E(xc)   XCENC  =      1065.29181224
  PAW double counting   =     29611.13434978   -29713.44001955
  entropy T*S    EENTRO =         0.00000000
  eigenvalues    EBANDS =     -3518.92256167
  atomic energy  EATOM  =     12644.75315347
  Solvation  Ediel_sol  =         0.00000000
  ---------------------------------------------------
  free energy    TOTEN  =      -661.55374328 eV

  energy without entropy =     -661.55374328  energy(sigma->0) =     -661.55374328


--------------------------------------------------------------------------------------------------------




--------------------------------------- Iteration      1(  12)  ---------------------------------------


    POTLOK:  cpu time    0.1656: real time    0.1680
    SETDIJ:  cpu time    0.0113: real time    0.0115
     EDDAV:  cpu time   12.2885: real time   12.4138
 BZINTS: Fermi energy: -2.019504;303.000000 electrons
         Band energy:***********;  BLOECHL correction:  0.000000
       DOS:  cpu time    0.0078: real time    0.0079
    CHARGE:  cpu time    0.1631: real time    0.1643
    MIXING:  cpu time    0.0040: real time    0.0040
    --------------------------------------------
      LOOP:  cpu time   12.6402: real time   12.7696

 eigenvalue-minimisations  :  4640
 total energy-change (2. order) :-0.3388656E+00  (-0.6418592E-01)
 number of electron     303.0000004 magnetization      -0.9079862
 augmentation part       13.6748654 magnetization      -0.6016929

 Broyden mixing:
  rms(total) = 0.64190E+00    rms(broyden)= 0.64146E+00
  rms(prec ) = 0.71076E+00
  weight for this iteration     100.00

 eigenvalues of (default mixing * dielectric matrix)
  average eigenvalue GAMMA=   1.2113
  3.5619  1.6597  1.3326  0.6321  0.6321  0.3303  0.3303

 Free energy of the ion-electron system (eV)
  ---------------------------------------------------
  alpha Z        PSCENC =       167.26608108
  Ewald energy   TEWEN  =     28894.28541650
  -Hartree energ DENC   =    -39768.63234355
  -exchange      EXHF   =         0.00000000
  -V(xc)+E(xc)   XCENC  =      1064.06966229
  PAW double counting   =     30705.08548969   -30806.63852683
  entropy T*S    EENTRO =         0.00000000
  eigenvalues    EBANDS =     -3562.08154148
  atomic energy  EATOM  =     12644.75315347
  Solvation  Ediel_sol  =         0.00000000
  ---------------------------------------------------
  free energy    TOTEN  =      -661.89260884 eV

  energy without entropy =     -661.89260884  energy(sigma->0) =     -661.89260884


--------------------------------------------------------------------------------------------------------




--------------------------------------- Iteration      1(  13)  ---------------------------------------


    POTLOK:  cpu time    0.1351: real time    0.1374
    SETDIJ:  cpu time    0.0103: real time    0.0103
     EDDAV:  cpu time   13.0181: real time   13.1732
 BZINTS: Fermi energy: -2.097005;303.000000 electrons
         Band energy:***********;  BLOECHL correction:  0.000000
       DOS:  cpu time    0.0060: real time    0.0060
    CHARGE:  cpu time    0.1631: real time    0.1646
    MIXING:  cpu time    0.0041: real time    0.0041
    --------------------------------------------
      LOOP:  cpu time   13.3368: real time   13.4957

 eigenvalue-minimisations  :  5024
 total energy-change (2. order) :-0.1386764E+00  (-0.3383233E-01)
 number of electron     303.0000002 magnetization      -0.8904799
 augmentation part       13.6538530 magnetization      -0.8042959

 Broyden mixing:
  rms(total) = 0.44572E+00    rms(broyden)= 0.44563E+00
  rms(prec ) = 0.51919E+00
  weight for this iteration     100.00

 eigenvalues of (default mixing * dielectric matrix)
  average eigenvalue GAMMA=   1.3142
  3.6774  1.9092  1.9092  0.8961  0.8961  0.3307  0.3307  0.5643

 Free energy of the ion-electron system (eV)
  ---------------------------------------------------
  alpha Z        PSCENC =       167.26608108
  Ewald energy   TEWEN  =     28894.28541650
  -Hartree energ DENC   =    -39746.02426196
  -exchange      EXHF   =         0.00000000
  -V(xc)+E(xc)   XCENC  =      1063.61209323
  PAW double counting   =     31605.31998708   -31706.43470943
  entropy T*S    EENTRO =         0.00000000
  eigenvalues    EBANDS =     -3584.80904521
  atomic energy  EATOM  =     12644.75315347
  Solvation  Ediel_sol  =         0.00000000
  ---------------------------------------------------
  free energy    TOTEN  =      -662.03128523 eV

  energy without entropy =     -662.03128523  energy(sigma->0) =     -662.03128523


--------------------------------------------------------------------------------------------------------




--------------------------------------- Iteration      1(  14)  ---------------------------------------


    POTLOK:  cpu time    0.1370: real time    0.1391
    SETDIJ:  cpu time    0.0084: real time    0.0088
     EDDAV:  cpu time   12.3353: real time   12.4540
 BZINTS: Fermi energy: -2.096946;303.000000 electrons
         Band energy:***********;  BLOECHL correction:  0.000000
       DOS:  cpu time    0.0057: real time    0.0059
    CHARGE:  cpu time    0.1966: real time    0.1981
    MIXING:  cpu time    0.0045: real time    0.0045
    --------------------------------------------
      LOOP:  cpu time   12.6875: real time   12.8104

 eigenvalue-minimisations  :  4624
 total energy-change (2. order) :-0.1317164E-01  (-0.1097697E-01)
 number of electron     303.0000001 magnetization      -0.9000092
 augmentation part       13.6108641 magnetization      -0.9284145

 Broyden mixing:
  rms(total) = 0.35663E+00    rms(broyden)= 0.35658E+00
  rms(prec ) = 0.42086E+00
  weight for this iteration     100.00

 eigenvalues of (default mixing * dielectric matrix)
  average eigenvalue GAMMA=   1.3963
  3.5502  2.4541  2.4541  1.0508  1.0508  0.3306  0.3306  0.7056  0.6401

 Free energy of the ion-electron system (eV)
  ---------------------------------------------------
  alpha Z        PSCENC =       167.26608108
  Ewald energy   TEWEN  =     28894.28541650
  -Hartree energ DENC   =    -39747.30360532
  -exchange      EXHF   =         0.00000000
  -V(xc)+E(xc)   XCENC  =      1063.74098581
  PAW double counting   =     31775.72900906   -31876.77641647
  entropy T*S    EENTRO =         0.00000000
  eigenvalues    EBANDS =     -3583.73908099
  atomic energy  EATOM  =     12644.75315347
  Solvation  Ediel_sol  =         0.00000000
  ---------------------------------------------------
  free energy    TOTEN  =      -662.04445687 eV

  energy without entropy =     -662.04445687  energy(sigma->0) =     -662.04445687


--------------------------------------------------------------------------------------------------------




--------------------------------------- Iteration      1(  15)  ---------------------------------------


    POTLOK:  cpu time    0.1364: real time    0.1387
    SETDIJ:  cpu time    0.0102: real time    0.0102
     EDDAV:  cpu time   12.4588: real time   12.5920
 BZINTS: Fermi energy: -2.106714;303.000000 electrons
         Band energy:***********;  BLOECHL correction:  0.000000
       DOS:  cpu time    0.0049: real time    0.0049
    CHARGE:  cpu time    0.1616: real time    0.1623
    MIXING:  cpu time    0.0044: real time    0.0044
    --------------------------------------------
      LOOP:  cpu time   12.7764: real time   12.9126

 eigenvalue-minimisations  :  4672
 total energy-change (2. order) : 0.1833456E-01  (-0.8096983E-02)
 number of electron     303.0000000 magnetization      -0.9354972
 augmentation part       13.5628129 magnetization      -1.0637643

 Broyden mixing:
  rms(total) = 0.25692E+00    rms(broyden)= 0.25688E+00
  rms(prec ) = 0.31036E+00
  weight for this iteration     100.00

 eigenvalues of (default mixing * dielectric matrix)
  average eigenvalue GAMMA=   1.3237
  3.5565  2.4125  2.4125  1.1675  1.1675  0.3306  0.3306  0.6726  0.6726  0.5140

 Free energy of the ion-electron system (eV)
  ---------------------------------------------------
  alpha Z        PSCENC =       167.26608108
  Ewald energy   TEWEN  =     28894.28541650
  -Hartree energ DENC   =    -39746.51397840
  -exchange      EXHF   =         0.00000000
  -V(xc)+E(xc)   XCENC  =      1063.81142749
  PAW double counting   =     31770.86484575   -31871.83352946
  entropy T*S    EENTRO =         0.00000000
  eigenvalues    EBANDS =     -3584.65953873
  atomic energy  EATOM  =     12644.75315347
  Solvation  Ediel_sol  =         0.00000000
  ---------------------------------------------------
  free energy    TOTEN  =      -662.02612231 eV

  energy without entropy =     -662.02612231  energy(sigma->0) =     -662.02612231


--------------------------------------------------------------------------------------------------------




--------------------------------------- Iteration      1(  16)  ---------------------------------------


    POTLOK:  cpu time    0.1342: real time    0.1367
    SETDIJ:  cpu time    0.0100: real time    0.0101
     EDDAV:  cpu time   12.3955: real time   12.4793
 BZINTS: Fermi energy: -2.115779;303.000000 electrons
         Band energy:***********;  BLOECHL correction:  0.000000
       DOS:  cpu time    0.0047: real time    0.0048
    CHARGE:  cpu time    0.1638: real time    0.1677
    MIXING:  cpu time    0.0043: real time    0.0046
    --------------------------------------------
      LOOP:  cpu time   12.7126: real time   12.8032

 eigenvalue-minimisations  :  4576
 total energy-change (2. order) : 0.9468759E-02  (-0.1130722E-02)
 number of electron     303.0000000 magnetization      -0.9526082
 augmentation part       13.5381587 magnetization      -1.0908581

 Broyden mixing:
  rms(total) = 0.21460E+00    rms(broyden)= 0.21459E+00
  rms(prec ) = 0.26081E+00
  weight for this iteration     100.00

 eigenvalues of (default mixing * dielectric matrix)
  average eigenvalue GAMMA=   1.3557
  3.5775  2.6081  2.6081  1.2028  1.2028  0.3306  0.3306  0.8582  0.8582  0.6136
  0.7223

 Free energy of the ion-electron system (eV)
  ---------------------------------------------------
  alpha Z        PSCENC =       167.26608108
  Ewald energy   TEWEN  =     28894.28541650
  -Hartree energ DENC   =    -39745.20463730
  -exchange      EXHF   =         0.00000000
  -V(xc)+E(xc)   XCENC  =      1063.78853838
  PAW double counting   =     31791.58837227   -31892.52331157
  entropy T*S    EENTRO =         0.00000000
  eigenvalues    EBANDS =     -3585.97026638
  atomic energy  EATOM  =     12644.75315347
  Solvation  Ediel_sol  =         0.00000000
  ---------------------------------------------------
  free energy    TOTEN  =      -662.01665355 eV

  energy without entropy =     -662.01665355  energy(sigma->0) =     -662.01665355


[...]
   0.496E+01 -.209E+01 0.426E+01   -.425E+01 0.175E+01 -.419E+01   -.711E+00 0.277E+00 -.612E-01   -.300E-02 -.210E-03 0.334E-03
   0.301E+02 0.116E+02 0.134E+02   -.292E+02 -.121E+02 -.141E+02   -.101E+01 0.499E+00 0.662E+00   -.187E-01 -.772E-02 -.103E-02
   0.301E+02 -.124E+02 0.139E+02   -.291E+02 0.128E+02 -.146E+02   -.104E+01 -.454E+00 0.669E+00   -.192E-01 0.802E-02 -.978E-03
   -.245E+02 0.129E+02 0.134E+02   0.232E+02 -.134E+02 -.139E+02   0.138E+01 0.584E+00 0.462E+00   0.171E-01 -.827E-02 -.133E-02
   -.245E+02 -.118E+02 0.133E+02   0.229E+02 0.119E+02 -.137E+02   0.168E+01 -.125E+00 0.437E+00   0.169E-01 0.579E-02 -.149E-02
   -.118E+01 0.104E+02 0.663E+01   0.645E+00 -.117E+02 -.662E+01   0.529E+00 0.141E+01 -.114E-01   -.140E-02 -.475E-02 0.835E-03
   0.158E+02 0.120E+02 0.545E+01   -.214E+02 -.152E+02 -.526E+01   0.560E+01 0.308E+01 -.192E+00   -.641E-02 -.364E-02 0.101E-02
   -.556E+01 -.584E+01 0.894E+01   0.552E+01 0.615E+01 -.907E+01   0.880E-01 -.203E+00 0.134E+00   0.308E-02 -.864E-03 0.596E-04
   -.269E+01 -.305E+02 0.700E+01   0.261E+01 0.367E+02 -.703E+01   0.119E+00 -.633E+01 0.295E-01   0.280E-02 0.926E-02 -.683E-04
   -.574E+01 -.311E+01 0.618E+01   0.717E+01 0.357E+01 -.619E+01   -.145E+01 -.401E+00 0.166E-01   0.858E-03 -.311E-02 -.208E-03
   -.419E+01 -.799E+01 0.594E+01   0.493E+01 0.839E+01 -.592E+01   -.801E+00 -.485E+00 -.236E-01   -.138E-02 0.784E-03 -.167E-03
   0.135E+02 -.714E+01 0.456E+01   -.129E+02 0.699E+01 -.461E+01   -.548E+00 0.104E+00 0.606E-01   -.446E-02 0.113E-02 0.136E-02
   0.490E+01 -.133E+02 0.720E+01   -.451E+01 0.133E+02 -.720E+01   -.433E+00 -.472E-02 -.571E-02   -.204E-02 -.246E-03 0.856E-03
   -.416E+01 -.403E+02 0.343E+02   0.105E+02 0.367E+02 -.337E+02   -.639E+01 0.363E+01 -.691E+00   -.230E-01 0.256E-01 -.805E-02
   0.121E+01 -.229E+02 0.143E+02   -.891E+00 0.218E+02 -.145E+02   -.351E+00 0.102E+01 0.205E+00   -.375E-02 0.994E-02 0.976E-03
   0.552E+01 -.360E+02 0.259E+02   -.121E+02 0.321E+02 -.250E+02   0.660E+01 0.390E+01 -.908E+00   0.235E-01 0.238E-01 -.937E-02
   0.188E+00 -.221E+02 0.119E+02   -.661E+00 0.209E+02 -.121E+02   0.494E+00 0.116E+01 0.159E+00   0.326E-02 0.800E-02 0.852E-03
   -.388E+01 -.637E+01 0.678E+01   0.208E+01 0.658E+01 -.685E+01   0.176E+01 -.232E+00 0.807E-01   0.127E-02 -.132E-02 0.192E-02
   0.290E+00 -.161E+02 0.831E+01   -.123E+01 0.165E+02 -.827E+01   0.100E+01 -.410E+00 -.379E-01   0.185E-02 -.447E-03 0.115E-02
   0.137E+01 -.140E+02 0.849E+01   -.256E+01 0.150E+02 -.853E+01   0.113E+01 -.952E+00 0.426E-01   0.240E-02 0.216E-02 0.233E-03
   0.251E+00 -.673E+01 0.810E+01   -.268E+00 0.743E+01 -.810E+01   0.218E-01 -.675E+00 0.571E-02   0.888E-03 -.354E-03 0.655E-04
   -.379E+01 -.123E+02 0.662E+01   0.483E+01 0.134E+02 -.665E+01   -.103E+01 -.101E+01 0.254E-01   -.762E-03 0.207E-02 -.196E-03
   -.259E+01 -.420E+01 0.640E+01   0.262E+01 0.492E+01 -.639E+01   -.166E-01 -.723E+00 -.177E-01   -.393E-03 -.170E-02 -.114E-03
   -.217E+00 -.639E+01 0.727E+01   0.766E+00 0.666E+01 -.730E+01   -.497E+00 -.247E+00 0.333E-01   -.710E-03 0.143E-02 0.105E-03
   0.473E+00 -.534E+01 0.741E+01   -.405E+00 0.554E+01 -.742E+01   -.832E-01 -.205E+00 0.611E-02   0.122E-02 0.115E-02 -.198E-04
   -.608E+00 -.108E+02 0.986E+01   0.126E+01 0.105E+02 -.997E+01   -.613E+00 0.293E+00 0.837E-01   -.327E-02 0.220E-02 0.134E-02
   0.257E+01 -.727E+01 0.840E+01   -.249E+01 0.711E+01 -.844E+01   -.111E+00 0.144E+00 0.340E-01   -.303E-02 0.235E-02 0.539E-03
   -.398E+00 -.123E+02 0.684E+01   0.352E+00 0.117E+02 -.653E+01   0.462E-01 0.714E+00 -.324E+00   0.568E-03 0.499E-02 0.110E-02
   0.271E+00 -.977E+01 0.776E+01   -.299E+00 0.929E+01 -.779E+01   0.271E-01 0.450E+00 0.371E-01   0.990E-03 0.278E-02 0.802E-03
   0.407E+01 -.120E+02 0.101E+02   -.508E+01 0.119E+02 -.102E+02   0.967E+00 0.127E+00 0.718E-01   0.134E-02 0.185E-02 0.153E-02
   -.134E+01 -.712E+01 0.882E+01   0.118E+01 0.707E+01 -.886E+01   0.175E+00 0.142E-01 0.345E-01   0.756E-03 0.412E-02 0.618E-03
   -.582E+01 -.347E+01 -.619E+03   0.694E+01 0.339E+01 0.600E+03   -.110E+01 0.938E-01 0.195E+02   0.586E-02 0.253E-02 -.142E-01
   -.636E+02 -.144E+03 0.107E+03   0.708E+02 0.160E+03 -.126E+03   -.774E+01 -.175E+02 0.204E+02   -.343E-03 -.103E-02 0.287E-02
   0.558E+02 0.126E+03 -.139E+03   -.715E+02 -.162E+03 0.181E+03   0.162E+02 0.366E+02 -.426E+02   0.648E-03 0.121E-02 -.118E-02
 -----------------------------------------------------------------------------------------------
   -.776E+01 -.190E+02 0.257E+01   -.242E-12 -.398E-12 0.199E-12   0.776E+01 0.190E+02 -.257E+01   0.649E-03 0.240E-02 -.236E-01
 
 
 POSITION                                       TOTAL-FORCE (eV/Angst)
 -----------------------------------------------------------------------------------
      7.43495     12.74648      7.25315         0.025408     -0.011237      0.008826
      0.00365      1.41684      7.25512         0.008355      0.011848      0.007538
      2.48108      0.02140      7.25196        -0.000354     -0.030056     -0.003446
      2.48065      1.44532      7.26311         0.013943     -0.041824      0.001009
      4.95090      0.02203      7.25419        -0.015952     -0.025903     -0.005527
      4.95303      1.44554      7.26444        -0.016170     -0.039508     -0.000243
      0.00010     12.75162      7.25516         0.003627      0.004424      0.009179
      7.42994      1.42372      7.25375         0.008014      0.009571      0.006735
      2.48045     12.72448      7.26305         0.012060      0.058430      0.001336
      9.91177      1.39650      7.25200        -0.001627     -0.005243     -0.002450
      4.95690     12.72450      7.26430        -0.013379      0.048105     -0.001262
     12.38613      1.39566      7.25417        -0.015285      0.013780     -0.005019
     13.61997      2.11423      7.25541         0.009282      0.006186     -0.001697
     -1.24650      3.53315      7.26544         0.034407     -0.037874      0.003793
      1.24076      2.14322      7.26641        -0.033314      0.000952     -0.002985
      1.23941      3.56853      7.29185         0.020511     -0.033775     -0.017109
      3.71715      2.16948      7.27952         0.006345      0.008674      0.007721
      3.71775      3.59024      7.32434         0.021276     -0.039391     -0.013671
      6.19371      2.14810      7.26547         0.020611      0.020370     -0.000538
      6.19591      3.57640      7.29111        -0.046399     -0.042185     -0.013175
      8.67630      2.11611      7.25200        -0.011202     -0.005736     -0.000002
      8.67897      3.53510      7.25944        -0.045129     -0.013955      0.005819
     11.14892      2.10743      7.25247         0.016158      0.023530     -0.004332
     11.14931      3.52945      7.25396         0.017557      0.007450     -0.006513
     12.37958      4.24545      7.26204        -0.073142      0.042274     -0.004987
     -2.48845      5.66942      7.26883        -0.030196     -0.040831     -0.000297
     -0.01337      4.24755      7.29149        -0.026593     -0.016974      0.005184
     -0.03585      5.66285      7.32179         0.064289      0.062595      0.013571
      2.47788      4.30890      7.33552        -0.015541      0.036931     -0.001649
      2.44178      5.72532      7.42064        -0.053182     -0.056908     -0.074920
      4.95743      4.31855      7.34223        -0.001725      0.017732     -0.005573
      4.99395      5.73636      7.43385         0.028436     -0.013513     -0.019302
      7.44962      4.25436      7.28496         0.065252     -0.015270      0.002031
      7.47303      5.67365      7.30981        -0.028553      0.054488      0.003408
      9.91554      4.24272      7.25668         0.048016      0.063241     -0.002197
      9.92123      5.66196      7.26205         0.031722     -0.068255     -0.000296
     11.13933      6.38652      7.26172         0.009326      0.023965     -0.002706
     -3.72521      7.80323      7.26331        -0.005464     -0.030341     -0.000301
     -1.26590      6.37604      7.29558        -0.027083      0.058793      0.009967
     -1.27363      7.79496      7.29555        -0.008816     -0.061951      0.009702
      1.18730      6.36982      7.37262        -0.153571      0.031306     -0.022907
      1.18325      7.80188      7.37112        -0.124119     -0.043184     -0.014759
      6.25304      6.37347      7.36881         0.124459      0.052636     -0.014105
      6.26189      7.80102      7.36877         0.100494     -0.066419      0.001560
      8.70865      6.38722      7.28404         0.003943      0.046833      0.004268
      8.71263      7.80469      7.28623         0.006925     -0.064524      0.003374
     -4.93976      8.50734      7.26485         0.048558      0.105101     -0.001493
     -4.94617      9.91790      7.25800         0.049067     -0.094830      0.001002
     -2.49840      8.51255      7.27011        -0.031718      0.062362     -0.000272
     -2.47887      9.93407      7.26258        -0.058668     -0.076160     -0.002281
     -0.04180      8.50832      7.32049         0.044864     -0.040265      0.017736
     -0.01440      9.92241      7.29081        -0.045742      0.008935      0.004024
      2.43765      8.44678      7.41921        -0.037258      0.044621     -0.051155
      2.47705      9.86087      7.33655        -0.024702     -0.032360     -0.012771
      5.00272      8.43838      7.43327         0.012772      0.032578     -0.023662
      4.95921      9.85361      7.34283         0.011514     -0.047980     -0.006294
      7.48387      8.51300      7.31053        -0.032139     -0.023612      0.016246
      7.44598      9.92596      7.28455         0.066024     -0.010865      0.002995
     -6.17705     10.62505      7.25939        -0.049431      0.017079      0.005525
     -6.17857     12.04916      7.25165         0.002749      0.026670      0.000130
     -3.71651     10.63184      7.25439         0.008896      0.015247     -0.002585
     -3.71947     12.05872      7.25242         0.014688     -0.008843     -0.004035
     -1.24809     10.63877      7.26529         0.051985      0.029666      0.004166
     -1.24440     12.05945      7.25533        -0.012626     -0.000295     -0.000967
      1.23745     10.60131      7.29187         0.038467      0.042766     -0.024130
      1.23878     12.02648      7.26630        -0.026836     -0.015635     -0.000767
      3.71889     10.57981      7.32582         0.000711      0.071210     -0.009602
      3.71856     11.99997      7.27981         0.000232     -0.033885      0.009807
      6.19790     10.59870      7.29022        -0.050165      0.049358     -0.021927
      6.19660     12.02618      7.26470         0.017997     -0.037343     -0.001663
      3.69287      7.08647      8.11474         0.048356      0.019116      0.244823
      3.69287      7.08647     14.09474        -0.489391     -1.108330      1.272256
      3.37186      6.36063     14.94008         0.488179      1.106434     -1.278156
 -----------------------------------------------------------------------------------
    total drift:                                0.000648      0.000741     -0.025330


--------------------------------------------------------------------------------------------------------



  FREE ENERGIE OF THE ION-ELECTRON SYSTEM (eV)
  ---------------------------------------------------
  free  energy   TOTEN  =      -668.39805149 eV

  energy  without entropy=     -668.39805149  energy(sigma->0) =     -668.39805149
 


--------------------------------------------------------------------------------------------------------


    POTLOK:  cpu time    0.1443: real time    0.1452


--------------------------------------------------------------------------------------------------------


 stress matrix after NEB project (eV)
     -4.20313     -0.42756      0.42753
     -0.42756     -4.78651      0.92382
      0.42753      0.92382     -4.56872
  FORCES: max atom, RMS     1.759602    0.298665
  FORCE total and by dimension    2.551798    1.278156
  Stress total and by dimension    7.993013    4.786512
     LOOP+:  cpu time  309.6696: real time  313.5966
    4ORBIT:  cpu time    0.0000: real time    0.0000
 


 total charge     
 
# of ion       s       p       d       tot
------------------------------------------
    1        0.863   1.778   0.000   2.641
    2        0.863   1.778   0.000   2.641
    3        0.865   1.786   0.000   2.651
    4        0.863   1.783   0.000   2.647
    5        0.863   1.781   0.000   2.644
    6        0.863   1.782   0.000   2.645
    7        0.863   1.780   0.000   2.644
    8        0.864   1.780   0.000   2.643
    9        0.863   1.784   0.000   2.646
   10        0.864   1.778   0.000   2.643
   11        0.863   1.784   0.000   2.647
   12        0.864   1.782   0.000   2.646
   13        0.864   1.786   0.000   2.650
   14        0.865   1.787   0.000   2.652
   15        0.864   1.779   0.000   2.643
   16        0.863   1.771   0.000   2.634
   17        0.863   1.774   0.000   2.637
   18        0.863   1.774   0.000   2.638
   19        0.862   1.777   0.000   2.640
   20        0.862   1.767   0.000   2.630
   21        0.864   1.787   0.000   2.651
   22        0.866   1.788   0.000   2.654
   23        0.864   1.787   0.000   2.651
   24        0.866   1.785   0.000   2.651
   25        0.864   1.787   0.000   2.651
   26        0.866   1.792   0.000   2.658
   27        0.867   1.790   0.000   2.657
   28        0.870   1.801   0.000   2.671
   29        0.862   1.759   0.000   2.622
   30        0.875   1.688   0.000   2.562
   31        0.862   1.754   0.000   2.615
   32        0.873   1.681   0.000   2.554
   33        0.866   1.788   0.000   2.654
   34        0.869   1.800   0.000   2.669
   35        0.864   1.794   0.000   2.658
   36        0.869   1.798   0.000   2.667
   37        0.864   1.799   0.000   2.663
   38        0.855   1.761   0.000   2.616
   39        0.868   1.800   0.000   2.668
   40        0.866   1.795   0.000   2.660
   41        0.876   1.785   0.000   2.661
   42        0.875   1.785   0.000   2.660
   43        0.877   1.792   0.000   2.669
   44        0.876   1.786   0.000   2.662
   45        0.865   1.803   0.000   2.668
   46        0.856   1.764   0.000   2.620
   47        1.212   2.708   0.000   3.920
   48        0.853   1.755   0.000   2.607
   49        0.865   1.802   0.000   2.667
   50        0.866   1.793   0.000   2.659
   51        0.870   1.800   0.000   2.670
   52        0.867   1.789   0.000   2.657
   53        0.875   1.690   0.000   2.564
   54        0.862   1.759   0.000   2.621
   55        0.874   1.681   0.000   2.555
   56        0.862   1.754   0.000   2.616
   57        0.868   1.809   0.000   2.677
   58        0.868   1.795   0.000   2.663
   59        0.863   1.796   0.000   2.659
   60        0.863   1.784   0.000   2.647
   61        0.863   1.793   0.000   2.656
   62        0.862   1.784   0.000   2.646
   63        0.865   1.794   0.000   2.659
   64        0.865   1.786   0.000   2.652
   65        0.863   1.772   0.000   2.634
   66        0.864   1.776   0.000   2.639
   67        0.863   1.774   0.000   2.637
   68        0.863   1.770   0.000   2.633
   69        0.862   1.774   0.000   2.637
   70        0.864   1.777   0.000   2.641
   71        0.392   6.291   4.294  10.976
   72        1.036   1.403   0.000   2.439
   73        1.637   3.514   0.000   5.151
--------------------------------------------------
tot         63.979 136.563   4.294 204.836
 


 magnetization (x)
 
# of ion       s       p       d       tot
------------------------------------------
    1        0.000   0.001   0.000   0.001
    2        0.000   0.002   0.000   0.002
    3       -0.000  -0.000   0.000  -0.001
    4        0.001   0.010   0.000   0.011
    5       -0.000  -0.002   0.000  -0.002
    6        0.001   0.010   0.000   0.011
    7       -0.000   0.000   0.000   0.000
    8        0.000   0.002   0.000   0.002
    9        0.000   0.005   0.000   0.006
   10        0.000   0.005   0.000   0.005
   11        0.000   0.006   0.000   0.007
   12        0.000   0.003   0.000   0.003
   13       -0.000  -0.001   0.000  -0.001
   14        0.000   0.008   0.000   0.008
   15        0.000   0.001   0.000   0.001
   16        0.001   0.007   0.000   0.008
   17       -0.001  -0.006   0.000  -0.007
   18        0.002   0.026   0.000   0.028
   19       -0.000  -0.000   0.000  -0.000
   20        0.001   0.008   0.000   0.009
   21       -0.000  -0.001   0.000  -0.001
   22        0.000   0.008   0.000   0.009
   23        0.000   0.006   0.000   0.007
   24       -0.000  -0.000   0.000  -0.000
   25        0.000   0.005   0.000   0.006
   26        0.000   0.003   0.000   0.004
   27       -0.000  -0.001   0.000  -0.001
   28        0.000   0.004   0.000   0.004
   29       -0.001  -0.008   0.000  -0.010
   30        0.015   0.085   0.000   0.100
   31       -0.001  -0.008   0.000  -0.009
   32        0.015   0.083   0.000   0.097
   33       -0.000  -0.001   0.000  -0.001
   34        0.000   0.004   0.000   0.005
   35        0.000   0.005   0.000   0.005
   36        0.000   0.008   0.000   0.008
   37       -0.000   0.000   0.000   0.000
   38        0.000   0.002   0.000   0.002
   39        0.000   0.004   0.000   0.005
   40        0.001   0.011   0.000   0.011
   41       -0.001   0.007   0.000   0.006
   42       -0.000   0.012   0.000   0.011
   43       -0.001   0.005   0.000   0.004
   44       -0.000   0.012   0.000   0.011
   45        0.000   0.003   0.000   0.003
   46        0.001   0.014   0.000   0.015
   47        0.000   0.004   0.000   0.004
   48        0.001   0.010   0.000   0.011
   49       -0.000  -0.000   0.000  -0.001
   50        0.000   0.008   0.000   0.009
   51        0.000   0.002   0.000   0.002
   52       -0.000  -0.001   0.000  -0.001
   53        0.014   0.079   0.000   0.093
   54       -0.001  -0.004   0.000  -0.005
   55        0.014   0.077   0.000   0.092
   56       -0.001  -0.005   0.000  -0.005
   57        0.000   0.003   0.000   0.003
   58       -0.000  -0.000   0.000  -0.001
   59        0.000   0.005   0.000   0.005
   60        0.000   0.003   0.000   0.003
   61       -0.000  -0.002   0.000  -0.002
   62        0.000   0.009   0.000   0.009
   63        0.000   0.003   0.000   0.003
   64        0.000   0.004   0.000   0.004
   65        0.001   0.003   0.000   0.004
   66        0.000   0.004   0.000   0.004
   67        0.001   0.024   0.000   0.025
   68       -0.001  -0.005   0.000  -0.005
   69        0.001   0.003   0.000   0.004
   70        0.000   0.004   0.000   0.005
   71       -0.032   0.012  -1.888  -1.907
   72        0.000   0.000   0.000   0.000
   73       -0.000  -0.000   0.000  -0.000
--------------------------------------------------
tot          0.032   0.587  -1.888  -1.268
 
 BZINTS: Fermi energy: -2.062010;303.000000 electrons
         Band energy:***********;  BLOECHL correction: -0.000141

 total amount of memory used by VASP MPI-rank0   116147. kBytes
=======================================================================

   base      :      30000. kBytes
   nonl-proj :      27330. kBytes
   fftplans  :       4700. kBytes
   grid      :      15193. kBytes
   one-center:        217. kBytes
   wavefun   :      38707. kBytes
 
  
  
 General timing and accounting informations for this job:
 ========================================================
  
                  Total CPU time used (sec):      327.906
                            User time (sec):      318.125
                          System time (sec):        9.781
                         Elapsed time (sec):      341.027
  
                   Maximum memory used (kb):      473232.
                   Average memory used (kb):           0.
  
                          Minor page faults:      1639767
                          Major page faults:            0
                 Voluntary context switches:         8865
