 vasp.5.4.4.18Apr17-6-g9f103f2a35 (build Sep 02 2021 13:24:58) complex          
  
 executed on             LinuxIFC date 2023.01.15  13:02:11
 running on   48 total cores
 distrk:  each k-point on   48 cores,    1 groups
 distr:  one band on NCORES_PER_BAND=  12 cores,    4 groups


--------------------------------------------------------------------------------------------------------


 INCAR:
 POTCAR:    PAW_PBE C 08Apr2002                   
 POTCAR:    PAW_PBE N 08Apr2002                   
 POTCAR:    PAW_PBE C 08Apr2002                   
 POTCAR:    PAW_PBE Cr_pv 02Aug2007               
 POTCAR:    PAW_PBE C 08Apr2002                   
   SHA256 =  253f7b50bb8d59471dbedb8285d89021f4a42ed1a2c5d38a03a736e69125dd95 C/
   COPYR  = (c) Copyright 08Apr2002 Georg Kresse                                
   COPYR  = This file is part of the software VASP. Any use, copying, and all ot
   COPYR  = If you do not have a valid VASP license, you may not use, copy or di
   VRHFIN =C: s2p2                                                              
   LEXCH  = PE                                                                  
   EATOM  =   147.1560 eV,   10.8157 Ry                                         
                                                                                
   TITEL  = PAW_PBE C 08Apr2002                                                 
   LULTRA =        F    use ultrasoft PP ?                                      
   IUNSCR =        1    unscreen: 0-lin 1-nonlin 2-no                           
   RPACOR =    1.200    partial core radius                                     
   POMASS =   12.011; ZVAL   =    4.000    mass and valenz                      
   RCORE  =    1.500    outmost cutoff radius                                   
   RWIGS  =    1.630; RWIGS  =    0.863    wigner-seitz radius (au A)           
   ENMAX  =  400.000; ENMIN  =  300.000 eV                                      
   ICORE  =        2    local potential                                         
   LCOR   =        T    correct aug charges                                     
   LPAW   =        T    paw PP                                                  
   EAUG   =  644.873                                                            
   DEXC   =    0.000                                                            
   RMAX   =    1.529    core radius for proj-oper                               
   RAUG   =    1.300    factor for augmentation sphere                          
   RDEP   =    1.501    radius for radial grids                                 
   RDEPT  =    1.300    core radius for aug-charge                              
                                                                                
   Atomic configuration                                                         
    4 entries                                                                   
     n  l   j            E        occ.                                          
     1  0  0.50      -273.3789   2.0000                                         
     2  0  0.50       -13.7508   2.0000                                         
     2  1  0.50        -5.2854   2.0000                                         
     3  2  1.50        -5.4423   0.0000                                         
   Description                                                                  
     l       E           TYP  RCUT    TYP  RCUT                                 
     0    -13.7508458     23  1.200                                             
     0     -8.2022199     23  1.200                                             
     1     -5.2854383     23  1.500                                             
     1     34.0145650     23  1.500                                             
     2     -5.4423304      7  1.500                                             
  local pseudopotential read in
  partial core-charges read in
  partial kinetic energy density read in
  atomic valenz-charges read in
  non local Contribution for L=           0  read in
    real space projection operators read in
  non local Contribution for L=           0  read in
    real space projection operators read in
  non local Contribution for L=           1  read in
    real space projection operators read in
  non local Contribution for L=           1  read in
    real space projection operators read in
    PAW grid and wavefunctions read in
 
   number of l-projection  operators is LMAX  =           4
   number of lm-projection operators is LMMAX =           8
 
 POTCAR:    PAW_PBE N 08Apr2002                   
   SHA256 =  e053789ff3a61a86a1b75d8a110fcc91f86041011e7b0817c7c99e4e8a6349d7 N/
   COPYR  = (c) Copyright 08Apr2002 Georg Kresse                                
   COPYR  = This file is part of the software VASP. Any use, copying, and all ot
   COPYR  = If you do not have a valid VASP license, you may not use, copy or di
   VRHFIN =N: s2p3                                                              
   LEXCH  = PE                                                                  
   EATOM  =   264.5486 eV,   19.4438 Ry                                         
                                                                                
   TITEL  = PAW_PBE N 08Apr2002                                                 
   LULTRA =        F    use ultrasoft PP ?                                      
   IUNSCR =        1    unscreen: 0-lin 1-nonlin 2-no                           
   RPACOR =    1.200    partial core radius                                     
   POMASS =   14.001; ZVAL   =    5.000    mass and valenz                      
   RCORE  =    1.500    outmost cutoff radius                                   
   RWIGS  =    1.400; RWIGS  =    0.741    wigner-seitz radius (au A)           
   ENMAX  =  400.000; ENMIN  =  300.000 eV                                      
   ICORE  =        2    local potential                                         
   LCOR   =        T    correct aug charges                                     
   LPAW   =        T    paw PP                                                  
   EAUG   =  627.112                                                            
   DEXC   =    0.000                                                            
   RMAX   =    1.529    core radius for proj-oper                               
   RAUG   =    1.300    factor for augmentation sphere                          
   RDEP   =    1.514    radius for radial grids                                 
   RDEPT  =    1.338    core radius for aug-charge                              
                                                                                
   Atomic configuration                                                         
    4 entries                                                                   
     n  l   j            E        occ.                                          
     1  0  0.50      -384.7179   2.0000                                         
     2  0  0.50       -18.5828   2.0000                                         
     2  1  0.50        -7.0898   3.0000                                         
     3  2  1.50        -6.8029   0.0000                                         
   Description                                                                  
     l       E           TYP  RCUT    TYP  RCUT                                 
     0    -18.5828119     23  1.200                                             
     0    -13.5018863     23  1.200                                             
     1     -7.0897853     23  1.500                                             
     1      9.5240782     23  1.500                                             
     2     -6.8029130      7  1.500                                             
  local pseudopotential read in
  partial core-charges read in
  partial kinetic energy density read in
  atomic valenz-charges read in
  non local Contribution for L=           0  read in
    real space projection operators read in
  non local Contribution for L=           0  read in
    real space projection operators read in
  non local Contribution for L=           1  read in
    real space projection operators read in
  non local Contribution for L=           1  read in
    real space projection operators read in
    PAW grid and wavefunctions read in
 
   number of l-projection  operators is LMAX  =           4
   number of lm-projection operators is LMMAX =           8
 
 POTCAR:    PAW_PBE C 08Apr2002                   
   SHA256 =  253f7b50bb8d59471dbedb8285d89021f4a42ed1a2c5d38a03a736e69125dd95 C/
   COPYR  = (c) Copyright 08Apr2002 Georg Kresse                                
   COPYR  = This file is part of the software VASP. Any use, copying, and all ot
   COPYR  = If you do not have a valid VASP license, you may not use, copy or di
   VRHFIN =C: s2p2                                                              
   LEXCH  = PE                                                                  
   EATOM  =   147.1560 eV,   10.8157 Ry                                         
                                                                                
   TITEL  = PAW_PBE C 08Apr2002                                                 
   LULTRA =        F    use ultrasoft PP ?                                      
   IUNSCR =        1    unscreen: 0-lin 1-nonlin 2-no                           
   RPACOR =    1.200    partial core radius                                     
   POMASS =   12.011; ZVAL   =    4.000    mass and valenz                      
   RCORE  =    1.500    outmost cutoff radius                                   
   RWIGS  =    1.630; RWIGS  =    0.863    wigner-seitz radius (au A)           
   ENMAX  =  400.000; ENMIN  =  300.000 eV                                      
   ICORE  =        2    local potential                                         
   LCOR   =        T    correct aug charges                                     
   LPAW   =        T    paw PP                                                  
   EAUG   =  644.873                                                            
   DEXC   =    0.000                                                            
   RMAX   =    1.529    core radius for proj-oper                               
   RAUG   =    1.300    factor for augmentation sphere                          
   RDEP   =    1.501    radius for radial grids                                 
   RDEPT  =    1.300    core radius for aug-charge                              
                                                                                
   Atomic configuration                                                         
    4 entries                                                                   
     n  l   j            E        occ.                                          
     1  0  0.50      -273.3789   2.0000                                         
     2  0  0.50       -13.7508   2.0000                                         
     2  1  0.50        -5.2854   2.0000                                         
     3  2  1.50        -5.4423   0.0000                                         
   Description                                                                  
     l       E           TYP  RCUT    TYP  RCUT                                 
     0    -13.7508458     23  1.200                                             
     0     -8.2022199     23  1.200                                             
     1     -5.2854383     23  1.500                                             
     1     34.0145650     23  1.500                                             
     2     -5.4423304      7  1.500                                             
  local pseudopotential read in
  partial core-charges read in
  partial kinetic energy density read in
  atomic valenz-charges read in
  non local Contribution for L=           0  read in
    real space projection operators read in
  non local Contribution for L=           0  read in
    real space projection operators read in
  non local Contribution for L=           1  read in
    real space projection operators read in
  non local Contribution for L=           1  read in
    real space projection operators read in
    PAW grid and wavefunctions read in
 
   number of l-projection  operators is LMAX  =           4
   number of lm-projection operators is LMMAX =           8
 
 POTCAR:    PAW_PBE Cr_pv 02Aug2007               
   SHA256 =  c9a7df34d3cdbacf1090e328ef39c0b420964e11c23f63548d1ac9dd218cdba0 Cr
   COPYR  = (c) Copyright 02Aug2007 Georg Kresse                                
   COPYR  = This file is part of the software VASP. Any use, copying, and all ot
   COPYR  = If you do not have a valid VASP license, you may not use, copy or di
   VRHFIN =Cr : p6d5s1                                                          
   LEXCH  = PE                                                                  
   EATOM  =  1647.9177 eV,  121.1185 Ry                                         
                                                                                
   TITEL  = PAW_PBE Cr_pv 02Aug2007                                             
   LULTRA =        F    use ultrasoft PP ?                                      
   IUNSCR =        1    unscreen: 0-lin 1-nonlin 2-no                           
   RPACOR =    2.080    partial core radius                                     
   POMASS =   51.996; ZVAL   =   12.000    mass and valenz                      
   RCORE  =    2.300    outmost cutoff radius                                   
   RWIGS  =    2.500; RWIGS  =    1.323    wigner-seitz radius (au A)           
   ENMAX  =  265.681; ENMIN  =  199.261 eV                                      
   ICORE  =        3    local potential                                         
   LCOR   =        T    correct aug charges                                     
   LPAW   =        T    paw PP                                                  
   EAUG   =  519.424                                                            
   DEXC   =    0.000                                                            
   RMAX   =    2.356    core radius for proj-oper                               
   RAUG   =    1.300    factor for augmentation sphere                          
   RDEP   =    2.447    radius for radial grids                                 
   RDEPT  =    1.882    core radius for aug-charge                              
                                                                                
   Atomic configuration                                                         
    8 entries                                                                   
     n  l   j            E        occ.                                          
     1  0  0.50     -5880.4963   2.0000                                         
     2  0  0.50      -667.0865   2.0000                                         
     2  1  1.50      -560.6250   6.0000                                         
     3  0  0.50       -73.9860   2.0000                                         
     3  1  1.50       -45.4378   6.0000                                         
     3  2  2.50        -2.9137   5.0000                                         
     4  0  0.50        -4.0071   1.0000                                         
     4  3  2.50        -1.3606   0.0000                                         
   Description                                                                  
     l       E           TYP  RCUT    TYP  RCUT                                 
     1    -45.4377911     23  2.000                                             
     1      1.3605826     23  2.000                                             
     2     -2.9136672     23  2.300                                             
     2     -4.2742498     23  2.300                                             
     0     -4.0071320     23  2.300                                             
     0      9.4498803     23  2.300                                             
     3      2.7211652     23  2.300                                             
  local pseudopotential read in
  partial core-charges read in
  partial kinetic energy density read in
  atomic valenz-charges read in
  non local Contribution for L=           1  read in
    real space projection operators read in
  non local Contribution for L=           1  read in
    real space projection operators read in
  non local Contribution for L=           2  read in
    real space projection operators read in
  non local Contribution for L=           2  read in
    real space projection operators read in
  non local Contribution for L=           0  read in
    real space projection operators read in
  non local Contribution for L=           0  read in
    real space projection operators read in
    PAW grid and wavefunctions read in
 
   number of l-projection  operators is LMAX  =           6
   number of lm-projection operators is LMMAX =          18
 
 Optimization of the real space projectors (new method)

 maximal supplied QI-value         = 25.13
 optimisation between [QCUT,QGAM] = [ 11.81, 23.88] = [ 39.08,159.64] Ry 
 Optimized for a Real-space Cutoff    1.18 Angstroem

   l    n(q)    QCUT    max X(q) W(low)/X(q) W(high)/X(q)  e(spline) 
   0      8    11.813   115.676    0.10E-03    0.16E-03    0.35E-06
   0      8    11.813    87.132    0.10E-03    0.16E-03    0.35E-06
   1      8    11.813     4.429    0.16E-03    0.13E-04    0.22E-06
   1      8    11.813     2.733    0.13E-03    0.10E-04    0.18E-06
 Optimization of the real space projectors (new method)

 maximal supplied QI-value         = 25.13
 optimisation between [QCUT,QGAM] = [ 11.81, 23.88] = [ 39.08,159.64] Ry 
 Optimized for a Real-space Cutoff    1.41 Angstroem

   l    n(q)    QCUT    max X(q) W(low)/X(q) W(high)/X(q)  e(spline) 
   0     10    11.813    79.467    0.48E-04    0.30E-04    0.67E-06
   0     10    11.813    66.151    0.47E-04    0.30E-04    0.67E-06
   1     10    11.813    20.169    0.11E-03    0.17E-03    0.11E-05
   1     10    11.813    14.454    0.11E-03    0.17E-03    0.11E-05
 Optimization of the real space projectors (new method)

 maximal supplied QI-value         = 25.13
 optimisation between [QCUT,QGAM] = [ 11.81, 23.88] = [ 39.08,159.64] Ry 
 Optimized for a Real-space Cutoff    1.18 Angstroem

   l    n(q)    QCUT    max X(q) W(low)/X(q) W(high)/X(q)  e(spline) 
   0      8    11.813   115.676    0.10E-03    0.16E-03    0.35E-06
   0      8    11.813    87.132    0.10E-03    0.16E-03    0.35E-06
   1      8    11.813     4.429    0.16E-03    0.13E-04    0.22E-06
   1      8    11.813     2.733    0.13E-03    0.10E-04    0.18E-06
 Optimization of the real space projectors (new method)

 maximal supplied QI-value         = 16.25
 optimisation between [QCUT,QGAM] = [ 11.86, 23.89] = [ 39.41,159.82] Ry 
 Optimized for a Real-space Cutoff    1.33 Angstroem

   l    n(q)    QCUT    max X(q) W(low)/X(q) W(high)/X(q)  e(spline) 
   1      9    11.864     3.262    0.48E-04    0.16E-03    0.14E-06
   1      9    11.864     5.741    0.74E-04    0.40E-03    0.35E-06
   2      9    11.864    60.438    0.17E-03    0.21E-03    0.26E-06
   2      9    11.864    55.380    0.17E-03    0.21E-03    0.27E-06
   0      9    11.864    80.273    0.40E-04    0.47E-04    0.12E-06
   0      9    11.864    36.654    0.35E-04    0.41E-04    0.11E-06
  PAW_PBE C 08Apr2002                   :
 energy of atom  1       EATOM= -147.1560
 kinetic energy error for atom=    0.0066 (will be added to EATOM!!)
  PAW_PBE N 08Apr2002                   :
 energy of atom  2       EATOM= -264.5486
 kinetic energy error for atom=    0.0116 (will be added to EATOM!!)
  PAW_PBE C 08Apr2002                   :
 energy of atom  3       EATOM= -147.1560
 kinetic energy error for atom=    0.0066 (will be added to EATOM!!)
  PAW_PBE Cr_pv 02Aug2007               :
 energy of atom  4       EATOM=-1647.9177
 kinetic energy error for atom=    0.0054 (will be added to EATOM!!)
 
 
 POSCAR: POSCAR-clean                            
  positions in cartesian coordinates
  No initial velocities read in
 exchange correlation table for  LEXCH =        8
   RHO(1)=    0.500       N(1)  =     2000
   RHO(2)=  100.500       N(2)  =     4000
 


--------------------------------------------------------------------------------------------------------


 ion  position               nearest neighbor table
   1  0.000  1.000  0.498-   2 1.42  60 1.42  70 1.43
   2  0.056  0.111  0.498-   1 1.42  13 1.42  15 1.43
   3  0.168  0.002  0.498-   4 1.42  62 1.43  60 1.43
   4  0.224  0.113  0.498-   3 1.42  15 1.42  17 1.44
   5  0.334  0.002  0.498-   6 1.42  62 1.43  64 1.43
   6  0.390  0.113  0.498-   5 1.42  19 1.42  17 1.44
   7  0.500  1.000  0.498-   8 1.42  64 1.42  66 1.43
   8  0.556  0.111  0.498-   7 1.42  21 1.42  19 1.43
   9  0.666  0.998  0.498-  10 1.42  66 1.42  68 1.44
  10  0.722  0.109  0.498-   9 1.42  23 1.43  21 1.43
  11  0.832  0.998  0.498-  12 1.42  70 1.42  68 1.44
  12  0.888  0.109  0.498-  11 1.42  23 1.43  13 1.43
  13  0.999  0.165  0.498-  14 1.42   2 1.42  12 1.43
  14  0.054  0.277  0.499-  13 1.42  25 1.42  27 1.43
  15  0.167  0.168  0.498-  16 1.42   4 1.42   2 1.43
  16  0.223  0.280  0.500-  15 1.42  27 1.43  29 1.44
  17  0.335  0.170  0.499-  18 1.42   4 1.44   6 1.44
  18  0.391  0.281  0.503-  17 1.42  31 1.44  29 1.44
  19  0.501  0.168  0.498-  20 1.42   6 1.42   8 1.43
  20  0.557  0.280  0.500-  19 1.42  33 1.43  31 1.44
  21  0.667  0.165  0.498-  22 1.42   8 1.42  10 1.43
  22  0.723  0.277  0.498-  21 1.42  35 1.42  33 1.43
  23  0.833  0.165  0.498-  24 1.42  10 1.43  12 1.43
  24  0.888  0.276  0.498-  23 1.42  25 1.42  35 1.43
  25  0.999  0.332  0.498-  14 1.42  26 1.42  24 1.42
  26  0.054  0.444  0.499-  39 1.42  37 1.42  25 1.42
  27  0.165  0.333  0.500-  28 1.42  16 1.43  14 1.43
  28  0.219  0.444  0.502-  41 1.41  27 1.42  39 1.42
  29  0.335  0.338  0.503-  30 1.41  18 1.44  16 1.44
  30  0.387  0.448  0.510-  41 1.41  29 1.41  71 2.00
  31  0.503  0.338  0.504-  32 1.41  18 1.44  20 1.44
  32  0.562  0.448  0.510-  43 1.41  31 1.41  71 2.00
  33  0.668  0.333  0.500-  34 1.42  20 1.43  22 1.43
  34  0.725  0.444  0.501-  43 1.41  33 1.42  45 1.42
  35  0.833  0.332  0.498-  22 1.42  36 1.42  24 1.43
  36  0.890  0.444  0.498-  45 1.42  37 1.42  35 1.42
  37  0.000  0.500  0.498-  36 1.42  26 1.42  38 1.42
  38  0.056  0.611  0.498-  47 1.42  49 1.42  37 1.42
  39  0.165  0.500  0.500-  26 1.42  28 1.42  40 1.42
  40  0.220  0.611  0.500-  49 1.42  51 1.42  39 1.42
  41  0.329  0.499  0.505-  30 1.41  28 1.41  42 1.44
  42  0.385  0.612  0.505-  53 1.41  51 1.41  41 1.44
  43  0.671  0.499  0.505-  32 1.41  34 1.41  44 1.44
  44  0.727  0.612  0.505-  55 1.41  57 1.41  43 1.44
  45  0.836  0.500  0.499-  36 1.42  34 1.42  46 1.42
  46  0.891  0.611  0.499-  47 1.42  57 1.42  45 1.42
  47  0.001  0.667  0.498-  46 1.42  38 1.42  48 1.42
  48  0.057  0.779  0.498-  59 1.42  47 1.42  61 1.43
  49  0.166  0.667  0.499-  40 1.42  38 1.42  50 1.42
  50  0.222  0.779  0.498-  63 1.42  49 1.42  61 1.42
  51  0.331  0.667  0.502-  42 1.41  52 1.42  40 1.42
  52  0.388  0.778  0.500-  51 1.42  65 1.43  63 1.43
  53  0.494  0.663  0.510-  42 1.41  54 1.41  71 2.00
  54  0.553  0.773  0.503-  53 1.41  67 1.44  65 1.44
  55  0.669  0.663  0.510-  44 1.41  56 1.41  71 2.00
  56  0.721  0.773  0.504-  55 1.41  67 1.44  69 1.44
  57  0.837  0.667  0.501-  44 1.41  58 1.42  46 1.42
  58  0.891  0.778  0.500-  57 1.42  69 1.42  59 1.43
  59  0.002  0.835  0.498-  60 1.42  48 1.42  58 1.43
  60  0.057  0.946  0.498-  59 1.42   1 1.42   3 1.43
  61  0.168  0.835  0.498-  62 1.42  50 1.42  48 1.43
  62  0.223  0.946  0.498-  61 1.42   3 1.43   5 1.43
  63  0.333  0.835  0.499-  64 1.42  50 1.42  52 1.43
  64  0.389  0.946  0.498-  63 1.42   7 1.42   5 1.43
  65  0.499  0.832  0.500-  66 1.42  52 1.43  54 1.44
  66  0.555  0.943  0.498-  65 1.42   9 1.42   7 1.43
  67  0.665  0.830  0.503-  68 1.42  56 1.44  54 1.44
  68  0.721  0.941  0.499-  67 1.42   9 1.44  11 1.44
  69  0.833  0.832  0.500-  70 1.42  58 1.42  56 1.44
  70  0.889  0.943  0.498-  69 1.42  11 1.42   1 1.43
  71  0.528  0.556  0.554-  55 2.00  32 2.00  53 2.00  30 2.00
 

IMPORTANT INFORMATION: All symmetrisations will be switched off!
NOSYMM: (Re-)initialisation of all symmetry stuff for point group C_1.

 
 
 KPOINTS: K-Points                                

Automatic generation of k-mesh.
Space group operators:
 irot       det(A)        alpha          n_x          n_y          n_z        tau_x        tau_y        tau_z
    1     1.000000     0.000000     1.000000     0.000000     0.000000     0.000000     0.000000     0.000000
 
 Subroutine IBZKPT returns following result:
 ===========================================
 
 Found      4 irreducible k-points:
 
 Following reciprocal coordinates:
            Coordinates               Weight
  0.000000  0.000000  0.000000      1.000000
  0.500000  0.000000  0.000000      1.000000
 -0.000000  0.500000  0.000000      1.000000
  0.500000  0.500000  0.000000      1.000000
 
 Following cartesian coordinates:
            Coordinates               Weight
  0.000000  0.000000  0.000000      1.000000
  0.033606  0.019589  0.000000      1.000000
 -0.000000  0.039178  0.000000      1.000000
  0.033606  0.058767  0.000000      1.000000
 


--------------------------------------------------------------------------------------------------------




 Dimension of arrays:
   k-points           NKPTS =      4   k-points in BZ     NKDIM =      4   number of bands    NBANDS=    184
   number of dos      NEDOS =    301   number of ions     NIONS =     71
   non local maximal  LDIM  =      6   non local SUM 2l+1 LMDIM =     18
   total plane-waves  NPLWV = ******
   max r-space proj   IRMAX =   7110   max aug-charges    IRDMAX=  21308
   dimension x,y,z NGX =   120 NGY =  120 NGZ =  120
   dimension x,y,z NGXF=   240 NGYF=  240 NGZF=  240
   support grid    NGXF=   240 NGYF=  240 NGZF=  240
   ions per type =              46   1  23   1
   NGX,Y,Z   is equivalent  to a cutoff of  13.41, 13.50, 13.30 a.u.
   NGXF,Y,Z  is equivalent  to a cutoff of  26.82, 27.01, 26.60 a.u.

 SYSTEM =  unknown system                          
 POSCAR =  POSCAR-clean                            

 Startparameter for this run:
   NWRITE =      2    write-flag & timer
   PREC   = accura    normal or accurate (medium, high low for compatibility)
   ISTART =      0    job   : 0-new  1-cont  2-samecut
   ICHARG =      2    charge: 1-file 2-atom 10-const
   ISPIN  =      2    spin polarized calculation?
   LNONCOLLINEAR =      F non collinear calculations
   LSORBIT =      F    spin-orbit coupling
   INIWAV =      1    electr: 0-lowe 1-rand  2-diag
   LASPH  =      F    aspherical Exc in radial PAW
   METAGGA=      F    non-selfconsistent MetaGGA calc.

 Electronic Relaxation 1
   ENCUT  =  550.0 eV  40.42 Ry    6.36 a.u.  28.45 28.25 28.68*2*pi/ulx,y,z
   ENINI  =  550.0     initial cutoff
   ENAUG  =  644.9 eV  augmentation charge cutoff
   NELM   =     50;   NELMIN=  2; NELMDL= -5     # of ELM steps 
   EDIFF  = 0.1E-04   stopping-criterion for ELM
   LREAL  =      T    real-space projection
   NLSPLINE    = F    spline interpolate recip. space projectors
   LCOMPAT=      F    compatible to vasp.4.4
   GGA_COMPAT  = T    GGA compatible to vasp.4.4-vasp.4.6
   LMAXPAW     = -100 max onsite density
   LMAXMIX     =    2 max onsite mixed and CHGCAR
   VOSKOWN=      0    Vosko Wilk Nusair interpolation
   ROPT   =   -0.00025  -0.00025  -0.00025  -0.00025
 Ionic relaxation
   EDIFFG = -.5E-01   stopping-criterion for IOM
   NSW    =    400    number of steps for IOM
   NBLOCK =      1;   KBLOCK =    400    inner block; outer block 
   IBRION =      2    ionic relax: 0-MD 1-quasi-New 2-CG
   NFREE  =      1    steps in history (QN), initial steepest desc. (CG)
   ISIF   =      3    stress and relaxation
   IWAVPR =     11    prediction:  0-non 1-charg 2-wave 3-comb
   ISYM   =      0    0-nonsym 1-usesym 2-fastsym
   LCORR  =      T    Harris-Foulkes like correction to forces

   POTIM  = 0.3000    time-step for ionic-motion
   TEIN   =    0.0    initial temperature
   TEBEG  =    0.0;   TEEND  =   0.0 temperature during run
   SMASS  =  -3.00    Nose mass-parameter (am)
   estimated Nose-frequenzy (Omega)   =  0.10E-29 period in steps =****** mass=  -0.506E-26a.u.
   SCALEE = 1.0000    scale energy and forces
   NPACO  =    256;   APACO  = 16.0  distance and # of slots for P.C.
   PSTRESS=    0.0 pullay stress

  Mass of Ions in am
   POMASS =  12.01 14.00 12.01 52.00
  Ionic Valenz
   ZVAL   =   4.00  5.00  4.00 12.00
  Atomic Wigner-Seitz radii
   RWIGS  =  -1.00 -1.00 -1.00 -1.00
  virtual crystal weights 
   VCA    =   1.00  1.00  1.00  1.00
   NELECT =     293.0000    total number of electrons
   NUPDOWN=      -1.0000    fix difference up-down

 DOS related values:
   EMIN   =  10.00;   EMAX   =-10.00  energy-range for DOS
   EFERMI =   0.00
   ISMEAR =     0;   SIGMA  =   0.10  broadening in eV -4-tet -1-fermi 0-gaus

 Electronic relaxation 2 (details)
   IALGO  =     68    algorithm
   LDIAG  =      T    sub-space diagonalisation (order eigenvalues)
   LSUBROT=      F    optimize rotation matrix (better conditioning)
   TURBO    =      0    0=normal 1=particle mesh
   IRESTART =      0    0=no restart 2=restart with 2 vectors
   NREBOOT  =      0    no. of reboots
   NMIN     =      0    reboot dimension
   EREF     =   0.00    reference energy to select bands
   IMIX   =      4    mixing-type and parameters
     AMIX     =   0.40;   BMIX     =  1.00
     AMIX_MAG =   1.60;   BMIX_MAG =  1.00
     AMIN     =   0.10
     WC   =   100.;   INIMIX=   1;  MIXPRE=   1;  MAXMIX= -45

 Intra band minimization:
   WEIMIN = 0.0010     energy-eigenvalue tresh-hold
   EBREAK =  0.14E-07  absolut break condition
   DEPER  =   0.30     relativ break condition  

   TIME   =   0.40     timestep for ELM

  volume/ion in A,a.u.               =      40.12       270.71
  Fermi-wavevector in a.u.,A,eV,Ry     =   0.767079  1.449569  8.005805  0.588410
  Thomas-Fermi vector in A             =   1.867557
 
 Write flags
   LWAVE        =      F    write WAVECAR
   LDOWNSAMPLE  =      F    k-point downsampling of WAVECAR
   LCHARG       =      F    write CHGCAR
   LVTOT        =      F    write LOCPOT, total local potential
   LVHAR        =      F    write LOCPOT, Hartree potential only
   LELF         =      F    write electronic localiz. function (ELF)
   LORBIT       =      0    0 simple, 1 ext, 2 COOP (PROOUT), +10 PAW based schemes


 Dipole corrections
   LMONO  =      F    monopole corrections only (constant potential shift)
   LDIPOL =      F    correct potential (dipole corrections)
   IDIPOL =      0    1-x, 2-y, 3-z, 4-all directions 
   EPSILON=  1.0000000 bulk dielectric constant

 Exchange correlation treatment:
   GGA     =    --    GGA type
   LEXCH   =     8    internal setting for exchange type
   VOSKOWN=      0    Vosko Wilk Nusair interpolation
   LHFCALC =     F    Hartree Fock is set to
   LHFONE  =     F    Hartree Fock one center treatment
   AEXX    =    0.0000 exact exchange contribution

 Linear response parameters
   LEPSILON=     F    determine dielectric tensor
   LRPA    =     F    only Hartree local field effects (RPA)
   LNABLA  =     F    use nabla operator in PAW spheres
   LVEL    =     F    velocity operator in full k-point grid
   LINTERFAST=   F  fast interpolation
   KINTER  =     0    interpolate to denser k-point grid
   CSHIFT  =0.1000    complex shift for real part using Kramers Kronig
   OMEGAMAX=  -1.0    maximum frequency
   DEG_THRESHOLD= 0.2000000E-02 threshold for treating states as degnerate
   RTIME   =   -0.100 relaxation time in fs
  (WPLASMAI=    0.000 imaginary part of plasma frequency in eV, 0.658/RTIME)
   DFIELD  = 0.0000000 0.0000000 0.0000000 field for delta impulse in time
 
 Orbital magnetization related:
   ORBITALMAG=     F  switch on orbital magnetization
   LCHIMAG   =     F  perturbation theory with respect to B field
   DQ        =  0.001000  dq finite difference perturbation B field
   LLRAUG    =     F  two centre corrections for induced B field



--------------------------------------------------------------------------------------------------------


 conjugate gradient relaxation of ions
 charge density and potential will be updated during run
 spin polarized calculation
 RMM-DIIS sequential band-by-band and
  variant of blocked Davidson during initial phase
 perform sub-space diagonalisation
    before iterative eigenvector-optimisation
 modified Broyden-mixing scheme, WC =      100.0
 initial mixing is a Kerker type mixing with AMIX =  0.4000 and BMIX =      1.0000
 Hartree-type preconditioning will be used
 using additional bands           37
 real space projection scheme for non local part
 use partial core corrections
 calculate Harris-corrections to forces 
   (improved forces if not selfconsistent)
 use gradient corrections 
 use of overlap-Matrix (Vanderbilt PP)
 Gauss-broadening in eV      SIGMA  =   0.10


--------------------------------------------------------------------------------------------------------


  energy-cutoff  :      550.00
  volume of cell :     2848.21
      direct lattice vectors                 reciprocal lattice vectors
    14.878307727  0.000105424  0.000000000     0.067211667  0.039178051  0.000000000
    -7.439153864 12.762195204  0.000000000    -0.000000555  0.078356102  0.000000000
     0.000000000  0.000000000 15.000000000     0.000000000  0.000000000  0.066666667

  length of vectors
    14.878307728 14.772089786 15.000000000     0.077796709  0.078356102  0.066666667


 
 k-points in units of 2pi/SCALE and weight: K-Points                                
   0.00000000  0.00000000  0.00000000       0.250
   0.03360583  0.01958903  0.00000000       0.250
  -0.00000028  0.03917805  0.00000000       0.250
   0.03360556  0.05876708  0.00000000       0.250
 
 k-points in reciprocal lattice and weights: K-Points                                
   0.00000000  0.00000000  0.00000000       0.250
   0.50000000  0.00000000  0.00000000       0.250
  -0.00000000  0.50000000  0.00000000       0.250
   0.50000000  0.50000000  0.00000000       0.250
 
 position of ions in fractional coordinates (direct lattice) 
   0.00014703  0.99993181  0.49766807
   0.05571316  0.11129367  0.49774774
   0.16803225  0.00210520  0.49753985
   0.22355821  0.11343998  0.49825115
   0.33432830  0.00207694  0.49777234
   0.39014706  0.11341551  0.49841838
   0.50002407  0.99989044  0.49775648
   0.55582710  0.11125266  0.49767590
   0.66571506  0.99774295  0.49825147
   0.72152612  0.10907882  0.49753824
   0.83231512  0.99776674  0.49841003
   0.88783929  0.10910686  0.49776801
   0.99908442  0.16549374  0.49784405
   0.05430809  0.27667161  0.49853746
   0.16734775  0.16806595  0.49834347
   0.22284185  0.27957445  0.49997583
   0.33528932  0.17029644  0.49941211
   0.39084341  0.28141813  0.50254970
   0.50097822  0.16802960  0.49842000
   0.55697129  0.27954076  0.49998817
   0.66664919  0.16545038  0.49752014
   0.72257294  0.27663324  0.49802908
   0.83255361  0.16485921  0.49764969
   0.88821716  0.27620991  0.49780056
   0.99906908  0.33222521  0.49838447
   0.05442247  0.44382388  0.49884723
   0.16531768  0.33288444  0.50001215
   0.21898612  0.44382270  0.50165224
   0.33514858  0.33773328  0.50339031
   0.38694525  0.44827387  0.50958670
   0.50284791  0.33770682  0.50360105
   0.56160602  0.44823797  0.50998391
   0.66778145  0.33285443  0.49963749
   0.72504010  0.44380782  0.50114295
   0.83335701  0.33221195  0.49791518
   0.88957865  0.44380677  0.49825237
   0.00003314  0.49990030  0.49835048
   0.05573614  0.61130743  0.49834565
   0.16452790  0.49985599  0.50032235
   0.22027264  0.61134265  0.50031499
   0.32877881  0.49923631  0.50514604
   0.38513300  0.61194665  0.50514739
   0.67071104  0.49923365  0.50517220
   0.72707059  0.61195035  0.50517224
   0.83551700  0.49986026  0.49948453
   0.89125350  0.61133457  0.49948422
   0.00136430  0.66739252  0.49824937
   0.05673614  0.77898562  0.49790902
   0.16620335  0.66738054  0.49883406
   0.22244721  0.77897560  0.49837060
   0.33076298  0.66736579  0.50164604
   0.38803591  0.77830247  0.50000539
   0.49425975  0.66291375  0.50958718
   0.55300964  0.77344715  0.50338828
   0.66896610  0.66295341  0.50998288
   0.72073432  0.77348097  0.50359479
   0.83682433  0.66738081  0.50114212
   0.89051054  0.77833045  0.49963539
   0.00151950  0.83455528  0.49802741
   0.05677874  0.94573836  0.49751926
   0.16759972  0.83498348  0.49779087
   0.22328727  0.94632847  0.49764984
   0.33324173  0.83452222  0.49853136
   0.38919606  0.94569806  0.49784785
   0.49886656  0.83160652  0.49997424
   0.55488261  0.94311446  0.49834783
   0.66501623  0.82976534  0.50254304
   0.72058356  0.94088512  0.49940688
   0.83301728  0.83164625  0.49998031
   0.88852543  0.94315192  0.49840894
   0.52788678  0.55561308  0.55407295
 
 position of ions in cartesian coordinates  (Angst):
  -7.43645893 12.76132490  7.46502101
   0.00098677  1.42035737  7.46621609
   2.48437460  0.02688469  7.46309769
   2.48227038  1.44776676  7.47376727
   4.95878870  0.02654158  7.46658504
   4.96101252  1.44747206  7.47627575
   0.00117320 12.76084966  7.46634727
   7.44214093  1.41988678  7.46513856
   2.48235028 12.73346045  7.47377203
   9.92363354  1.39216125  7.46307356
   4.96090025 12.73378160  7.47615045
  12.39788345  1.39253665  7.46652020
  13.63355202  2.11216869  7.46766080
  -1.25019027  3.53094287  7.47806186
   1.23958287  2.14490807  7.47515208
   1.23571236  3.56800714  7.49963746
   3.72167632  2.17339173  7.49118168
   3.72157576  3.59155433  7.53824552
   6.20371007  2.14447940  7.47630003
   6.20724356  3.56761241  7.49982262
   8.68780104  2.11158030  7.46280215
   8.69274532  3.53052356  7.47043619
  11.16057575  2.10405319  7.46474541
  11.16040021  3.52513843  7.46700843
  12.39298273  4.24002833  7.47576708
  -2.49195986  5.66417272  7.48270852
  -0.01673121  4.24835367  7.50018218
  -0.04352248  5.66417505  7.52478359
   2.47399392  4.31025334  7.55085470
   2.42231217  5.72099937  7.64380057
   4.96927299  4.30993342  7.55401582
   5.02123589  5.72055973  7.64975858
   7.45930259  4.24802358  7.49456242
   7.48581505  5.66403852  7.51714419
   9.92756627  4.23984160  7.46872767
   9.93387816  5.66404236  7.47378561
  -3.71834223  6.37982525  7.47525727
  -3.71835051  7.80163060  7.47518475
  -1.27060894  6.37927707  7.50483528
  -1.27058799  7.80209747  7.50472492
   1.17777658  6.37138591  7.57719062
   1.17776199  7.80982318  7.57721079
   6.26516932  6.37138797  7.57758296
   6.26518706  7.80990654  7.57758361
   8.71254167  6.37940228  7.49226792
   8.71253189  7.80206507  7.49226324
  -4.94453714  8.51739379  7.47374059
  -4.95085604  9.94157246  7.46863529
  -2.49192199  8.51725823  7.48251084
  -2.48528121  9.94146208  7.47555906
  -0.04344336  8.51708741  7.52469062
  -0.01659412  9.93288892  7.50008080
   2.42223119  8.46028680  7.64380763
   2.47405524  9.87094181  7.55082413
   5.02127100  8.46081135  7.64974323
   4.96926315  9.87139105  7.55392179
   7.48578134  8.51733237  7.51713176
   7.45916989  9.93329897  7.49453080
  -6.18577746 10.65075751  7.47041111
  -6.19072161 12.06970350  7.46278894
  -3.71797037 10.65623981  7.46686302
  -3.71774635 12.07725221  7.46474766
  -1.25006613 10.65037063  7.47797042
  -1.24461459 12.06922431  7.46771775
   1.23584141 10.61317732  7.49961357
   1.23974067 12.03626939  7.47521740
   3.72156413 10.58969736  7.53814562
   3.72167477 12.00783549  7.49110317
   6.20714301 10.61371955  7.49970466
   6.20350242 12.03678263  7.47613410
   3.72077071  7.09089829  8.31109430
 


--------------------------------------------------------------------------------------------------------


 k-point  1 :   0.0000 0.0000 0.0000  plane waves:   83445
 k-point  2 :   0.5000 0.0000 0.0000  plane waves:   83448
 k-point  3 :  -0.0000 0.5000 0.0000  plane waves:   83436
 k-point  4 :   0.5000 0.5000 0.0000  plane waves:   83444

 maximum and minimum number of plane-waves per node :      6984     6935

 maximum number of plane-waves:     83448
 maximum index in each direction: 
   IXMAX=   28   IYMAX=   28   IZMAX=   28
   IXMIN=  -28   IYMIN=  -28   IZMIN=  -28


 real space projection operators:
  total allocation   :      18579.42 KBytes
  max/ min on nodes  :       1558.30       1535.09


 parallel 3D FFT for wavefunctions:
    minimum data exchange during FFTs selected (reduces bandwidth)
 parallel 3D FFT for charge:
    minimum data exchange during FFTs selected (reduces bandwidth)


 total amount of memory used by VASP MPI-rank0   135435. kBytes
=======================================================================

   base      :      30000. kBytes
   nonlr-proj:      10446. kBytes
   fftplans  :      14072. kBytes
   grid      :      39398. kBytes
   one-center:        186. kBytes
   wavefun   :      41333. kBytes
 
     INWAV:  cpu time    0.0000: real time    0.0000
 Broyden mixing: mesh for mixing (old mesh)
   NGX = 57   NGY = 57   NGZ = 57
  (NGX  =240   NGY  =240   NGZ  =240)
  gives a total of 185193 points

 initial charge density was supplied:
 charge density of overlapping atoms calculated
 number of electron     293.0000000 magnetization       1.0000000
 keeping initial charge density in first step


--------------------------------------------------------------------------------------------------------


 Maximum index for non-local projection operator          508
 Maximum index for augmentation-charges          410 (set IRDMAX)


--------------------------------------------------------------------------------------------------------


 First call to EWALD:  gamma=   0.125
 Maximum number of real-space cells 3x 3x 3
 Maximum number of reciprocal cells 3x 3x 3

    FEWALD:  cpu time    0.0040: real time    0.0041


--------------------------------------- Iteration      1(   1)  ---------------------------------------


    POTLOK:  cpu time    0.5557: real time    0.5875
    SETDIJ:  cpu time    0.0190: real time    0.0236
     EDDAV:  cpu time   16.8196: real time   16.9918
       DOS:  cpu time    0.0013: real time    0.0013
    --------------------------------------------
      LOOP:  cpu time   17.3956: real time   17.6041

 eigenvalue-minimisations  :  3248
 total energy-change (2. order) : 0.2743841E+04  (-0.1173085E+05)
 number of electron     293.0000000 magnetization       1.0000000
 augmentation part      293.0000000 magnetization       1.0000000

 Free energy of the ion-electron system (eV)
  ---------------------------------------------------
  alpha Z        PSCENC =       156.95040625
  Ewald energy   TEWEN  =     30377.16547217
  -Hartree energ DENC   =    -39543.19431240
  -exchange      EXHF   =         0.00000000
  -V(xc)+E(xc)   XCENC  =       982.54378879
  PAW double counting   =      9000.30529238    -9089.18527416
  entropy T*S    EENTRO =        -0.11585548
  eigenvalues    EBANDS =     -1206.38644357
  atomic energy  EATOM  =     12065.75791449
  Solvation  Ediel_sol  =         0.00000000
  ---------------------------------------------------
  free energy    TOTEN  =      2743.84098848 eV

  energy without entropy =     2743.95684396  energy(sigma->0) =     2743.89891622


--------------------------------------------------------------------------------------------------------




--------------------------------------- Iteration      1(   2)  ---------------------------------------


     EDDAV:  cpu time   21.7755: real time   22.0573
       DOS:  cpu time    0.0009: real time    0.0009
    --------------------------------------------
      LOOP:  cpu time   21.7764: real time   22.0582

 eigenvalue-minimisations  :  4304
 total energy-change (2. order) :-0.2915217E+04  (-0.2785457E+04)
 number of electron     293.0000000 magnetization       1.0000000
 augmentation part      293.0000000 magnetization       1.0000000

 Free energy of the ion-electron system (eV)
  ---------------------------------------------------
  alpha Z        PSCENC =       156.95040625
  Ewald energy   TEWEN  =     30377.16547217
  -Hartree energ DENC   =    -39543.19431240
  -exchange      EXHF   =         0.00000000
  -V(xc)+E(xc)   XCENC  =       982.54378879
  PAW double counting   =      9000.30529238    -9089.18527416
  entropy T*S    EENTRO =        -0.03248649
  eigenvalues    EBANDS =     -4121.68663602
  atomic energy  EATOM  =     12065.75791449
  Solvation  Ediel_sol  =         0.00000000
  ---------------------------------------------------
  free energy    TOTEN  =      -171.37583499 eV

  energy without entropy =     -171.34334849  energy(sigma->0) =     -171.35959174


--------------------------------------------------------------------------------------------------------




--------------------------------------- Iteration      1(   3)  ---------------------------------------


     EDDAV:  cpu time   18.6112: real time   18.8103
       DOS:  cpu time    0.0010: real time    0.0010
    --------------------------------------------
      LOOP:  cpu time   18.6122: real time   18.8113

 eigenvalue-minimisations  :  3560
 total energy-change (2. order) :-0.5128272E+03  (-0.5098656E+03)
 number of electron     293.0000000 magnetization       1.0000000
 augmentation part      293.0000000 magnetization       1.0000000

 Free energy of the ion-electron system (eV)
  ---------------------------------------------------
  alpha Z        PSCENC =       156.95040625
  Ewald energy   TEWEN  =     30377.16547217
  -Hartree energ DENC   =    -39543.19431240
  -exchange      EXHF   =         0.00000000
  -V(xc)+E(xc)   XCENC  =       982.54378879
  PAW double counting   =      9000.30529238    -9089.18527416
  entropy T*S    EENTRO =        -0.03365333
  eigenvalues    EBANDS =     -4634.51262888
  atomic energy  EATOM  =     12065.75791449
  Solvation  Ediel_sol  =         0.00000000
  ---------------------------------------------------
  free energy    TOTEN  =      -684.20299469 eV

  energy without entropy =     -684.16934135  energy(sigma->0) =     -684.18616802


--------------------------------------------------------------------------------------------------------




--------------------------------------- Iteration      1(   4)  ---------------------------------------


     EDDAV:  cpu time   18.8613: real time   19.0662
       DOS:  cpu time    0.0009: real time    0.0009
    --------------------------------------------
      LOOP:  cpu time   18.8622: real time   19.0671

 eigenvalue-minimisations  :  3600
 total energy-change (2. order) :-0.1952265E+02  (-0.1937170E+02)
 number of electron     293.0000000 magnetization       1.0000000
 augmentation part      293.0000000 magnetization       1.0000000

 Free energy of the ion-electron system (eV)
  ---------------------------------------------------
  alpha Z        PSCENC =       156.95040625
  Ewald energy   TEWEN  =     30377.16547217
  -Hartree energ DENC   =    -39543.19431240
  -exchange      EXHF   =         0.00000000
  -V(xc)+E(xc)   XCENC  =       982.54378879
  PAW double counting   =      9000.30529238    -9089.18527416
  entropy T*S    EENTRO =        -0.03797944
  eigenvalues    EBANDS =     -4654.03095641
  atomic energy  EATOM  =     12065.75791449
  Solvation  Ediel_sol  =         0.00000000
  ---------------------------------------------------
  free energy    TOTEN  =      -703.72564833 eV

  energy without entropy =     -703.68766889  energy(sigma->0) =     -703.70665861


--------------------------------------------------------------------------------------------------------




--------------------------------------- Iteration      1(   5)  ---------------------------------------


     EDDAV:  cpu time   20.8363: real time   21.0322
       DOS:  cpu time    0.0010: real time    0.0010
    CHARGE:  cpu time    0.9742: real time    0.9895
    MIXING:  cpu time    0.0113: real time    0.0143
    --------------------------------------------
      LOOP:  cpu time   21.8229: real time   22.0370

 eigenvalue-minimisations  :  4080
 total energy-change (2. order) :-0.6230385E+00  (-0.6211482E+00)
 number of electron     292.9999997 magnetization       0.7753887
 augmentation part       11.6660168 magnetization       0.7586849

 Broyden mixing:
  rms(total) = 0.46542E+01    rms(broyden)= 0.46538E+01
  rms(prec ) = 0.54187E+01
  weight for this iteration     100.00

 Free energy of the ion-electron system (eV)
  ---------------------------------------------------
  alpha Z        PSCENC =       156.95040625
  Ewald energy   TEWEN  =     30377.16547217
  -Hartree energ DENC   =    -39543.19431240
  -exchange      EXHF   =         0.00000000
  -V(xc)+E(xc)   XCENC  =       982.54378879
  PAW double counting   =      9000.30529238    -9089.18527416
  entropy T*S    EENTRO =        -0.03819260
  eigenvalues    EBANDS =     -4654.65378180
  atomic energy  EATOM  =     12065.75791449
  Solvation  Ediel_sol  =         0.00000000
  ---------------------------------------------------
  free energy    TOTEN  =      -704.34868687 eV

  energy without entropy =     -704.31049428  energy(sigma->0) =     -704.32959058


--------------------------------------------------------------------------------------------------------




--------------------------------------- Iteration      1(   6)  ---------------------------------------


    POTLOK:  cpu time    0.5248: real time    0.5343
    SETDIJ:  cpu time    0.0148: real time    0.0156
    EDDIAG:  cpu time    3.3022: real time    3.3413
  RMM-DIIS:  cpu time   17.7380: real time   17.8962
    ORTHCH:  cpu time    0.2230: real time    0.2242
       DOS:  cpu time    0.0009: real time    0.0009
    CHARGE:  cpu time    1.0177: real time    1.0392
    MIXING:  cpu time    0.0085: real time    0.0110
    --------------------------------------------
      LOOP:  cpu time   22.8299: real time   23.0625

 eigenvalue-minimisations  :  4099
 total energy-change (2. order) :-0.2834390E+02  (-0.5363228E+02)
 number of electron     293.0000007 magnetization       0.7211780
 augmentation part       17.3787486 magnetization       0.8873979

 Broyden mixing:
  rms(total) = 0.84408E+01    rms(broyden)= 0.84407E+01
  rms(prec ) = 0.93261E+01
  weight for this iteration     100.00

 eigenvalues of (default mixing * dielectric matrix)
  average eigenvalue GAMMA=   0.2140
  0.2140

 Free energy of the ion-electron system (eV)
  ---------------------------------------------------
  alpha Z        PSCENC =       156.95040625
  Ewald energy   TEWEN  =     30377.16547217
  -Hartree energ DENC   =    -39835.24955738
  -exchange      EXHF   =         0.00000000
  -V(xc)+E(xc)   XCENC  =       996.32262826
  PAW double counting   =     15150.61053041   -15239.32282489
  entropy T*S    EENTRO =        -0.05603657
  eigenvalues    EBANDS =     -4404.87111984
  atomic energy  EATOM  =     12065.75791449
  Solvation  Ediel_sol  =         0.00000000
  ---------------------------------------------------
  free energy    TOTEN  =      -732.69258710 eV

  energy without entropy =     -732.63655053  energy(sigma->0) =     -732.66456882


--------------------------------------------------------------------------------------------------------




--------------------------------------- Iteration      1(   7)  ---------------------------------------


    POTLOK:  cpu time    0.5356: real time    0.5453
    SETDIJ:  cpu time    0.0151: real time    0.0155
    EDDIAG:  cpu time    3.2518: real time    3.2882
  RMM-DIIS:  cpu time   13.3553: real time   13.4762
    ORTHCH:  cpu time    0.3139: real time    0.3146
       DOS:  cpu time    0.0009: real time    0.0009
    CHARGE:  cpu time    1.0041: real time    1.0195
    MIXING:  cpu time    0.0105: real time    0.0115
    --------------------------------------------
      LOOP:  cpu time   18.4873: real time   18.6717

 eigenvalue-minimisations  :  3047
 total energy-change (2. order) : 0.7033099E+02  (-0.5469253E+01)
 number of electron     293.0000005 magnetization       0.6181163
 augmentation part       15.2809146 magnetization       0.6151005

 Broyden mixing:
  rms(total) = 0.32139E+01    rms(broyden)= 0.32138E+01
  rms(prec ) = 0.38675E+01
  weight for this iteration     100.00

 eigenvalues of (default mixing * dielectric matrix)
  average eigenvalue GAMMA=   0.4629
  0.4694  0.4563

 Free energy of the ion-electron system (eV)
  ---------------------------------------------------
  alpha Z        PSCENC =       156.95040625
  Ewald energy   TEWEN  =     30377.16547217
  -Hartree energ DENC   =    -39956.63865862
  -exchange      EXHF   =         0.00000000
  -V(xc)+E(xc)   XCENC  =      1000.84904029
  PAW double counting   =     16729.16891944   -16824.68189397
  entropy T*S    EENTRO =        -0.00008377
  eigenvalues    EBANDS =     -4210.93271200
  atomic energy  EATOM  =     12065.75791449
  Solvation  Ediel_sol  =         0.00000000
  ---------------------------------------------------
  free energy    TOTEN  =      -662.36159572 eV

  energy without entropy =     -662.36151195  energy(sigma->0) =     -662.36155384


--------------------------------------------------------------------------------------------------------




--------------------------------------- Iteration      1(   8)  ---------------------------------------


    POTLOK:  cpu time    0.5284: real time    0.5335
    SETDIJ:  cpu time    0.0153: real time    0.0154
    EDDIAG:  cpu time    3.2246: real time    3.2532
  RMM-DIIS:  cpu time   13.7228: real time   13.8307
    ORTHCH:  cpu time    0.4973: real time    0.4997
       DOS:  cpu time    0.0009: real time    0.0009
    CHARGE:  cpu time    0.9851: real time    0.9970
    MIXING:  cpu time    0.0115: real time    0.0118
    --------------------------------------------
      LOOP:  cpu time   18.9859: real time   19.1422

 eigenvalue-minimisations  :  3129
 total energy-change (2. order) :-0.4901249E-01  (-0.2165370E+01)
 number of electron     292.9999998 magnetization       0.3447907
 augmentation part       11.2312087 magnetization       0.3214704

 Broyden mixing:
  rms(total) = 0.28310E+01    rms(broyden)= 0.28307E+01
  rms(prec ) = 0.34742E+01
  weight for this iteration     100.00

 eigenvalues of (default mixing * dielectric matrix)
  average eigenvalue GAMMA=   0.8532
  1.8809  0.3393  0.3393

 Free energy of the ion-electron system (eV)
  ---------------------------------------------------
  alpha Z        PSCENC =       156.95040625
  Ewald energy   TEWEN  =     30377.16547217
  -Hartree energ DENC   =    -40136.91796116
  -exchange      EXHF   =         0.00000000
  -V(xc)+E(xc)   XCENC  =      1007.55052655
  PAW double counting   =     19625.54875694   -19725.06791125
  entropy T*S    EENTRO =        -0.02814652
  eigenvalues    EBANDS =     -4033.36966568
  atomic energy  EATOM  =     12065.75791449
  Solvation  Ediel_sol  =         0.00000000
  ---------------------------------------------------
  free energy    TOTEN  =      -662.41060821 eV

  energy without entropy =     -662.38246170  energy(sigma->0) =     -662.39653495


--------------------------------------------------------------------------------------------------------




--------------------------------------- Iteration      1(   9)  ---------------------------------------


    POTLOK:  cpu time    0.5337: real time    0.5380
    SETDIJ:  cpu time    0.0147: real time    0.0150
    EDDIAG:  cpu time    3.2355: real time    3.2675
  RMM-DIIS:  cpu time   12.9542: real time   13.0544
    ORTHCH:  cpu time    0.3206: real time    0.3223
       DOS:  cpu time    0.0008: real time    0.0008
    CHARGE:  cpu time    0.9710: real time    0.9820
    MIXING:  cpu time    0.0115: real time    0.0117
    --------------------------------------------
      LOOP:  cpu time   18.0420: real time   18.1917

 eigenvalue-minimisations  :  2970
 total energy-change (2. order) : 0.1522223E+02  (-0.1993385E+01)
 number of electron     293.0000001 magnetization       0.2572828
 augmentation part       12.1862471 magnetization       0.2731801

 Broyden mixing:
  rms(total) = 0.11544E+01    rms(broyden)= 0.11542E+01
  rms(prec ) = 0.13022E+01
  weight for this iteration     100.00

 eigenvalues of (default mixing * dielectric matrix)
  average eigenvalue GAMMA=   0.9167
  2.2197  0.7469  0.3501  0.3501

 Free energy of the ion-electron system (eV)
  ---------------------------------------------------
  alpha Z        PSCENC =       156.95040625
  Ewald energy   TEWEN  =     30377.16547217
  -Hartree energ DENC   =    -40442.22370575
  -exchange      EXHF   =         0.00000000
  -V(xc)+E(xc)   XCENC  =      1020.40488977
  PAW double counting   =     27810.32206841   -27912.61978686
  entropy T*S    EENTRO =        -0.00476597
  eigenvalues    EBANDS =     -3722.94086812
  atomic energy  EATOM  =     12065.75791449
  Solvation  Ediel_sol  =         0.00000000
  ---------------------------------------------------
  free energy    TOTEN  =      -647.18837561 eV

  energy without entropy =     -647.18360964  energy(sigma->0) =     -647.18599263


--------------------------------------------------------------------------------------------------------




--------------------------------------- Iteration      1(  10)  ---------------------------------------


    POTLOK:  cpu time    0.5549: real time    0.5600
    SETDIJ:  cpu time    0.0152: real time    0.0153
    EDDIAG:  cpu time    3.2329: real time    3.2588
  RMM-DIIS:  cpu time   13.1283: real time   13.2467
    ORTHCH:  cpu time    0.3443: real time    0.3450
       DOS:  cpu time    0.0010: real time    0.0009
    CHARGE:  cpu time    0.9775: real time    0.9886
    MIXING:  cpu time    0.0122: real time    0.0122
    --------------------------------------------
      LOOP:  cpu time   18.2663: real time   18.4275

 eigenvalue-minimisations  :  3003
 total energy-change (2. order) :-0.4173668E+00  (-0.3026453E+00)
 number of electron     293.0000004 magnetization       0.2026506
 augmentation part       13.7698040 magnetization       0.2239136

 Broyden mixing:
  rms(total) = 0.14481E+01    rms(broyden)= 0.14476E+01
  rms(prec ) = 0.18044E+01
  weight for this iteration     100.00

 eigenvalues of (default mixing * dielectric matrix)
  average eigenvalue GAMMA=   0.9205
  2.3404  1.0749  0.3470  0.3470  0.4933

 Free energy of the ion-electron system (eV)
  ---------------------------------------------------
  alpha Z        PSCENC =       156.95040625
  Ewald energy   TEWEN  =     30377.16547217
  -Hartree energ DENC   =    -40486.31525100
  -exchange      EXHF   =         0.00000000
  -V(xc)+E(xc)   XCENC  =      1021.36171220
  PAW double counting   =     29335.79611312   -29436.95500676
  entropy T*S    EENTRO =        -0.00205162
  eigenvalues    EBANDS =     -3681.36505121
  atomic energy  EATOM  =     12065.75791449
  Solvation  Ediel_sol  =         0.00000000
  ---------------------------------------------------
  free energy    TOTEN  =      -647.60574236 eV

  energy without entropy =     -647.60369075  energy(sigma->0) =     -647.60471655


--------------------------------------------------------------------------------------------------------




--------------------------------------- Iteration      1(  11)  ---------------------------------------


    POTLOK:  cpu time    0.5605: real time    0.5662
    SETDIJ:  cpu time    0.0205: real time    0.0207
    EDDIAG:  cpu time    3.2639: real time    3.2917
  RMM-DIIS:  cpu time   13.7188: real time   13.8284
    ORTHCH:  cpu time    0.2540: real time    0.2621
       DOS:  cpu time    0.0010: real time    0.0010
    CHARGE:  cpu time    0.9857: real time    0.9979
    MIXING:  cpu time    0.0122: real time    0.0127
    --------------------------------------------
      LOOP:  cpu time   18.8165: real time   18.9807

 eigenvalue-minimisations  :  3126
 total energy-change (2. order) : 0.1023558E+01  (-0.4151477E-01)
 number of electron     293.0000002 magnetization       0.1342715
 augmentation part       12.5277549 magnetization       0.1151995

 Broyden mixing:
  rms(total) = 0.77044E+00    rms(broyden)= 0.76987E+00
  rms(prec ) = 0.82203E+00
  weight for this iteration     100.00

 eigenvalues of (default mixing * dielectric matrix)
  average eigenvalue GAMMA=   0.9766
  2.0732  2.0732  0.6662  0.3447  0.3447  0.3577

 Free energy of the ion-electron system (eV)
  ---------------------------------------------------
  alpha Z        PSCENC =       156.95040625
  Ewald energy   TEWEN  =     30377.16547217
  -Hartree energ DENC   =    -40519.68705398
  -exchange      EXHF   =         0.00000000
  -V(xc)+E(xc)   XCENC  =      1021.80352580
  PAW double counting   =     29996.36800382   -30096.86762269
  entropy T*S    EENTRO =        -0.02842239
  eigenvalues    EBANDS =     -3648.04440781
  atomic energy  EATOM  =     12065.75791449
  Solvation  Ediel_sol  =         0.00000000
  ---------------------------------------------------
  free energy    TOTEN  =      -646.58218435 eV

  energy without entropy =     -646.55376196  energy(sigma->0) =     -646.56797316


--------------------------------------------------------------------------------------------------------




--------------------------------------- Iteration      1(  12)  ---------------------------------------


    POTLOK:  cpu time    0.5295: real time    0.5347
    SETDIJ:  cpu time    0.0153: real time    0.0154
    EDDIAG:  cpu time    3.2507: real time    3.2756
  RMM-DIIS:  cpu time   12.9052: real time   13.0149
    ORTHCH:  cpu time    0.4834: real time    0.4928
       DOS:  cpu time    0.0010: real time    0.0010
    CHARGE:  cpu time    0.9672: real time    0.9774
    MIXING:  cpu time    0.0129: real time    0.0129
    --------------------------------------------
      LOOP:  cpu time   18.1652: real time   18.3248

 eigenvalue-minimisations  :  2944
 total energy-change (2. order) : 0.1604082E+00  (-0.1580628E-01)
 number of electron     293.0000002 magnetization       0.1541712
 augmentation part       12.8405411 magnetization      -0.1686071

 Broyden mixing:
  rms(total) = 0.59077E+00    rms(broyden)= 0.59054E+00
  rms(prec ) = 0.60496E+00
  weight for this iteration     100.00

 eigenvalues of (default mixing * dielectric matrix)
  average eigenvalue GAMMA=   0.8677
  2.1264  2.1264  0.5789  0.3462  0.3462  0.3653  0.1849

 Free energy of the ion-electron system (eV)
  ---------------------------------------------------
  alpha Z        PSCENC =       156.95040625
  Ewald energy   TEWEN  =     30377.16547217
  -Hartree energ DENC   =    -40546.58259510
  -exchange      EXHF   =         0.00000000
  -V(xc)+E(xc)   XCENC  =      1021.40244599
  PAW double counting   =     30449.55540731   -30548.52631041
  entropy T*S    EENTRO =        -0.05758337
  eigenvalues    EBANDS =     -3622.08693345
  atomic energy  EATOM  =     12065.75791449
  Solvation  Ediel_sol  =         0.00000000
  ---------------------------------------------------
  free energy    TOTEN  =      -646.42177612 eV

  energy without entropy =     -646.36419276  energy(sigma->0) =     -646.39298444


--------------------------------------------------------------------------------------------------------




--------------------------------------- Iteration      1(  13)  ---------------------------------------


    POTLOK:  cpu time    0.5299: real time    0.5342
    SETDIJ:  cpu time    0.0154: real time    0.0154
    EDDIAG:  cpu time    3.3487: real time    3.3748
  RMM-DIIS:  cpu time   13.0531: real time   13.1689
    ORTHCH:  cpu time    0.4138: real time    0.4148
       DOS:  cpu time    0.0010: real time    0.0010
    CHARGE:  cpu time    0.9685: real time    0.9785
    MIXING:  cpu time    0.0129: real time    0.0130
    --------------------------------------------
      LOOP:  cpu time   18.3434: real time   18.5007

 eigenvalue-minimisations  :  2986
 total energy-change (2. order) :-0.1009067E+00  (-0.2575207E-02)
 number of electron     293.0000003 magnetization       0.0754725
 augmentation part       12.9327663 magnetization      -0.3968353

 Broyden mixing:
  rms(total) = 0.71795E+00    rms(broyden)= 0.71788E+00
  rms(prec ) = 0.74368E+00
  weight for this iteration     100.00

 eigenvalues of (default mixing * dielectric matrix)
  average eigenvalue GAMMA=   0.8742
  2.1983  2.1983  0.7113  0.3450  0.3450  0.5509  0.3438  0.3007

 Free energy of the ion-electron system (eV)
  ---------------------------------------------------
  alpha Z        PSCENC =       156.95040625
  Ewald energy   TEWEN  =     30377.16547217
  -Hartree energ DENC   =    -40549.23790459
  -exchange      EXHF   =         0.00000000
  -V(xc)+E(xc)   XCENC  =      1021.42627950
  PAW double counting   =     30456.92210227   -30555.79755787
  entropy T*S    EENTRO =        -0.02927839
  eigenvalues    EBANDS =     -3619.68011659
  atomic energy  EATOM  =     12065.75791449
  Solvation  Ediel_sol  =         0.00000000
  ---------------------------------------------------
  free energy    TOTEN  =      -646.52268278 eV

  energy without entropy =     -646.49340438  energy(sigma->0) =     -646.50804358


--------------------------------------------------------------------------------------------------------




--------------------------------------- Iteration      1(  14)  ---------------------------------------


    POTLOK:  cpu time    0.5124: real time    0.5173
    SETDIJ:  cpu time    0.0152: real time    0.0153
    EDDIAG:  cpu time    3.2002: real time    3.2248
  RMM-DIIS:  cpu time   13.0871: real time   13.1904
    ORTHCH:  cpu time    0.2962: real time    0.2969
       DOS:  cpu time    0.0010: real time    0.0010
    CHARGE:  cpu time    0.9402: real time    0.9491
    MIXING:  cpu time    0.0129: real time    0.0129
    --------------------------------------------
      LOOP:  cpu time   18.0652: real time   18.2078

 eigenvalue-minimisations  :  2984
 total energy-change (2. order) : 0.1390070E+00  (-0.2618649E-02)
 number of electron     293.0000003 magnetization       0.0553843
 augmentation part       13.0300557 magnetization      -0.3332423

 Broyden mixing:
  rms(total) = 0.73791E+00    rms(broyden)= 0.73791E+00
  rms(prec ) = 0.78946E+00
  weight for this iteration     100.00

 eigenvalues of (default mixing * dielectric matrix)
  average eigenvalue GAMMA=   0.8226
  2.2259  2.2259  0.7098  0.5345  0.3449  0.3449  0.3465  0.3356  0.3356

 Free energy of the ion-electron system (eV)
  ---------------------------------------------------
  alpha Z        PSCENC =       156.95040625
  Ewald energy   TEWEN  =     30377.16547217
  -Hartree energ DENC   =    -40553.98971029
  -exchange      EXHF   =         0.00000000
  -V(xc)+E(xc)   XCENC  =      1021.47196244
  PAW double counting   =     30528.02553791   -30626.80305829
  entropy T*S    EENTRO =        -0.05108048
  eigenvalues    EBANDS =     -3614.91111997
  atomic energy  EATOM  =     12065.75791449
  Solvation  Ediel_sol  =         0.00000000
  ---------------------------------------------------
  free energy    TOTEN  =      -646.38367578 eV

  energy without entropy =     -646.33259531  energy(sigma->0) =     -646.35813555


--------------------------------------------------------------------------------------------------------




--------------------------------------- Iteration      1(  15)  ---------------------------------------


    POTLOK:  cpu time    0.5201: real time    0.5320
    SETDIJ:  cpu time    0.0153: real time    0.0153
    EDDIAG:  cpu time    3.2334: real time    3.2576
  RMM-DIIS:  cpu time   13.9648: real time   14.0739
    ORTHCH:  cpu time    0.6760: real time    0.6780
       DOS:  cpu time    0.0009: real time    0.0009
    CHARGE:  cpu time    0.9710: real time    0.9893
    MIXING:  cpu time    0.0122: real time    0.0124
    --------------------------------------------
      LOOP:  cpu time   19.3936: real time   19.5595

 eigenvalue-minimisations  :  3159
 total energy-change (2. order) : 0.1117886E-01  (-0.4473702E-03)
 number of electron     293.0000003 magnetization       0.0409165
 augmentation part       13.0290863 magnetization      -0.2158944

 Broyden mixing:
  rms(total) = 0.63377E+00    rms(broyden)= 0.63374E+00
  rms(prec ) = 0.69293E+00
  weight for this iteration     100.00

 eigenvalues of (default mixing * dielectric matrix)
  average eigenvalue GAMMA=   0.8150
  2.2119  2.2119  0.7323  0.5123  0.5123  0.5457  0.3450  0.3450  0.3445  0.3889

 Free energy of the ion-electron system (eV)
  ---------------------------------------------------
  alpha Z        PSCENC =       156.95040625
  Ewald energy   TEWEN  =     30377.16547217
  -Hartree energ DENC   =    -40554.98659725
  -exchange      EXHF   =         0.00000000
  -V(xc)+E(xc)   XCENC  =      1021.48762760
  PAW double counting   =     30527.04197237   -30625.84078868
  entropy T*S    EENTRO =        -0.06843358
  eigenvalues    EBANDS =     -3613.88007029
  atomic energy  EATOM  =     12065.75791449
  Solvation  Ediel_sol  =         0.00000000
  ---------------------------------------------------
  free energy    TOTEN  =      -646.37249693 eV

  energy without entropy =     -646.30406335  energy(sigma->0) =     -646.33828014


--------------------------------------------------------------------------------------------------------




--------------------------------------- Iteration      1(  16)  ---------------------------------------


    POTLOK:  cpu time    0.5204: real time    0.5239
    SETDIJ:  cpu time    0.0152: real time    0.0154
    EDDIAG:  cpu time    3.2904: real time    3.3206
  RMM-DIIS:  cpu time   12.6932: real time   12.7843
    ORTHCH:  cpu time    0.3013: real time    0.3026
       DOS:  cpu time    0.0009: real time    0.0009
    CHARGE:  cpu time    0.9386: real time    0.9469
    MIXING:  cpu time    0.0139: real time    0.0139
    --------------------------------------------
      LOOP:  cpu time   17.7739: real time   17.9085

 eigenvalue-minimisations  :  2945
 total energy-change (2. order) :-0.2508107E-01  (-0.1528046E-02)
 number of electron     293.0000003 magnetization       0.0049313
 augmentation part       12.9694313 magnetization      -0.3019450

 Broyden mixing:
  rms(total) = 0.60588E+00    rms(broyden)= 0.60587E+00
  rms(prec ) = 0.64690E+00
  weight for this iteration     100.00

 eigenvalues of (default mixing * dielectric matrix)
  average eigenvalue GAMMA=   0.7410
  2.2119  2.2119  0.7321  0.5085  0.5085  0.5467  0.3450  0.3450  0.3444  0.3874
  0.0096

 Free energy of the ion-electron system (eV)
  ---------------------------------------------------
  alpha Z        PSCENC =       156.95040625
  Ewald energy   TEWEN  =     30377.16547217
  -Hartree energ DENC   =    -40569.97473925
  -exchange      EXHF   =         0.00000000
  -V(xc)+E(xc)   XCENC  =      1021.71941334
  PAW double counting   =     30489.84993611   -30588.66928685
  entropy T*S    EENTRO =        -0.05247369
  eigenvalues    EBANDS =     -3599.14422055
  atomic energy  EATOM  =     12065.75791449
  Solvation  Ediel_sol  =         0.00000000
  ---------------------------------------------------
  free energy    TOTEN  =      -646.39757800 eV

  energy without entropy =     -646.34510431  energy(sigma->0) =     -646.37134115


--------------------------------------------------------------------------------------------------------




--------------------------------------- Iteration      1(  17)  ---------------------------------------


    POTLOK:  cpu time    0.5324: real time    0.5365
    SETDIJ:  cpu time    0.0151: real time    0.0152
    EDDIAG:  cpu time    3.2339: real time    3.2602
  RMM-DIIS:  cpu time   12.8302: real time   12.9337
    ORTHCH:  cpu time    0.3842: real time    0.3860
       DOS:  cpu time    0.0009: real time    0.0009
    CHARGE:  cpu time    0.9865: real time    0.9992
    MIXING:  cpu time    0.0129: real time    0.0129
    --------------------------------------------
      LOOP:  cpu time   17.9962: real time   18.1448

 eigenvalue-minimisations  :  2957
 total energy-change (2. order) :-0.2179817E-01  (-0.5688024E-02)
 number of electron     293.0000002 magnetization       0.0099451
 augmentation part       12.7659975 magnetization      -0.2913703

 Broyden mixing:
  rms(total) = 0.40861E+00    rms(broyden)= 0.40855E+00
  rms(prec ) = 0.41387E+00
  weight for this iteration     100.00

 eigenvalues of (default mixing * dielectric matrix)
  average eigenvalue GAMMA=   0.8429
  2.2135  2.2135  1.0506  1.0506  0.4375  0.7134  0.6118  0.3440  0.3440  0.3356
  0.4000  0.4000

 Free energy of the ion-electron system (eV)
  ---------------------------------------------------
  alpha Z        PSCENC =       156.95040625
  Ewald energy   TEWEN  =     30377.16547217
  -Hartree energ DENC   =    -40595.43843603
  -exchange      EXHF   =         0.00000000
  -V(xc)+E(xc)   XCENC  =      1022.02903122
  PAW double counting   =     30417.36341234   -30516.09286113
  entropy T*S    EENTRO =        -0.03667734
  eigenvalues    EBANDS =     -3574.11763815
  atomic energy  EATOM  =     12065.75791449
  Solvation  Ediel_sol  =         0.00000000
  ---------------------------------------------------
  free energy    TOTEN  =      -646.41937616 eV

  energy without entropy =     -646.38269883  energy(sigma->0) =     -646.40103750


--------------------------------------------------------------------------------------------------------




--------------------------------------- Iteration      1(  18)  ---------------------------------------


    POTLOK:  cpu time    0.5331: real time    0.5370
    SETDIJ:  cpu time    0.0149: real time    0.0149
    EDDIAG:  cpu time    3.2588: real time    3.2866
  RMM-DIIS:  cpu time   12.9754: real time   13.0881
    ORTHCH:  cpu time    0.3056: real time    0.3063
       DOS:  cpu time    0.0010: real time    0.0010
    CHARGE:  cpu time    0.9753: real time    0.9845
    MIXING:  cpu time    0.0150: real time    0.0150
    --------------------------------------------
      LOOP:  cpu time   18.0790: real time   18.2333

 eigenvalue-minimisations  :  2978
 total energy-change (2. order) :-0.7309474E-01  (-0.5473695E-02)
 number of electron     293.0000003 magnetization      -0.0222810
 augmentation part       12.8716742 magnetization      -0.3854515

 Broyden mixing:
  rms(total) = 0.40583E+00    rms(broyden)= 0.40581E+00
  rms(prec ) = 0.42718E+00
  weight for this iteration     100.00

 eigenvalues of (default mixing * dielectric matrix)
  average eigenvalue GAMMA=   0.9050
  2.2307  2.2307  1.5729  1.5729  0.4443  0.7087  0.6078  0.3444  0.3444  0.5077
  0.5077  0.3723  0.3209

 Free energy of the ion-electron system (eV)
  ---------------------------------------------------
  alpha Z        PSCENC =       156.95040625
  Ewald energy   TEWEN  =     30377.16547217
  -Hartree energ DENC   =    -40613.24860069
  -exchange      EXHF   =         0.00000000
  -V(xc)+E(xc)   XCENC  =      1022.22237264
  PAW double counting   =     30373.64758256   -30472.27468027
  entropy T*S    EENTRO =        -0.03030527
  eigenvalues    EBANDS =     -3556.68263278
  atomic energy  EATOM  =     12065.75791449
  Solvation  Ediel_sol  =         0.00000000
  ---------------------------------------------------
  free energy    TOTEN  =      -646.49247090 eV

  energy without entropy =     -646.46216563  energy(sigma->0) =     -646.47731827


--------------------------------------------------------------------------------------------------------




--------------------------------------- Iteration      1(  19)  ---------------------------------------


    POTLOK:  cpu time    0.4338: real time    0.4379
    SETDIJ:  cpu time    0.0150: real time    0.0151
    EDDIAG:  cpu time    3.2338: real time    3.2587
  RMM-DIIS:  cpu time   13.6368: real time   13.7465
    ORTHCH:  cpu time    0.2604: real time    0.2616
       DOS:  cpu time    0.0010: real time    0.0010
    CHARGE:  cpu time    0.9620: real time    0.9693
    MIXING:  cpu time    0.0149: real time    0.0151
    --------------------------------------------
      LOOP:  cpu time   18.5577: real time   18.7051

 eigenvalue-minimisations  :  3146
 total energy-change (2. order) : 0.2327104E-01  (-0.2603781E-02)
 number of electron     293.0000002 magnetization      -0.0404925
 augmentation part       12.7894028 magnetization      -0.3653173

 Broyden mixing:
  rms(total) = 0.31353E+00    rms(broyden)= 0.31350E+00
  rms(prec ) = 0.31921E+00
  weight for this iteration     100.00

 eigenvalues of (default mixing * dielectric matrix)
  average eigenvalue GAMMA=   0.9363
  2.1885  2.1885  1.8755  1.8755  0.4454  0.7670  0.7670  0.6751  0.3443  0.3443
  0.5115  0.3321  0.3964  0.3964

 Free energy of the ion-electron system (eV)
  ---------------------------------------------------
  alpha Z        PSCENC =       156.95040625
  Ewald energy   TEWEN  =     30377.16547217
  -Hartree energ DENC   =    -40628.03221680
  -exchange      EXHF   =         0.00000000
  -V(xc)+E(xc)   XCENC  =      1022.36113985
  PAW double counting   =     30359.71787278   -30458.24545974
  entropy T*S    EENTRO =        -0.03613926
  eigenvalues    EBANDS =     -3542.10818961
  atomic energy  EATOM  =     12065.75791449
  Solvation  Ediel_sol  =         0.00000000
  ---------------------------------------------------
  free energy    TOTEN  =      -646.46919987 eV

  energy without entropy =     -646.43306060  energy(sigma->0) =     -646.45113023


--------------------------------------------------------------------------------------------------------




--------------------------------------- Iteration      1(  20)  ---------------------------------------


    POTLOK:  cpu time    0.5443: real time    0.5485
    SETDIJ:  cpu time    0.0154: real time    0.0155
    EDDIAG:  cpu time    3.3253: real time    3.3636
  RMM-DIIS:  cpu time   14.0105: real time   14.1145
    ORTHCH:  cpu time    0.3332: real time    0.3339
       DOS:  cpu time    0.0009: real time    0.0009
    CHARGE:  cpu time    0.9567: real time    0.9677
    MIXING:  cpu time    0.0138: real time    0.0141
    --------------------------------------------
      LOOP:  cpu time   19.2001: real time   19.3588

 eigenvalue-minimisations  :  3223
 total energy-change (2. order) : 0.1198820E-01  (-0.6934141E-03)
 number of electron     293.0000002 magnetization      -0.0388196
 augmentation part       12.7580395 magnetization      -0.3429004

 Broyden mixing:
  rms(total) = 0.29421E+00    rms(broyden)= 0.29420E+00
  rms(prec ) = 0.29742E+00
  weight for this iteration     100.00

 eigenvalues of (default mixing * dielectric matrix)
  average eigenvalue GAMMA=   0.8871
  2.1798  2.1798  1.6335  1.6335  0.6029  0.4468  0.7889  0.7889  0.6993  0.3443
  0.3443  0.5043  0.4153  0.4153  0.3302

 Free energy of the ion-electron system (eV)
  ---------------------------------------------------
  alpha Z        PSCENC =       156.95040625
  Ewald energy   TEWEN  =     30377.16547217
  -Hartree energ DENC   =    -40631.46059522
  -exchange      EXHF   =         0.00000000
  -V(xc)+E(xc)   XCENC  =      1022.38856845
  PAW double counting   =     30360.48725844   -30459.02817403
  entropy T*S    EENTRO =        -0.03707687
  eigenvalues    EBANDS =     -3538.68098534
  atomic energy  EATOM  =     12065.75791449
  Solvation  Ediel_sol  =         0.00000000
  ---------------------------------------------------
  free energy    TOTEN  =      -646.45721167 eV

  energy without entropy =     -646.42013479  energy(sigma->0) =     -646.43867323


[...]
  E(xc)   -1111.06999 -1110.74868 -1150.19230    -0.00422     0.00011    -0.00254
  Local  -83775.71334-83729.77608 86093.28188    -0.46793     1.88151     4.58970
  n-local  -289.51857  -286.92512  -269.80007     0.00986    -0.03671     0.03794
  augment    66.60739    64.98904    65.48252     0.00610    -0.00428     0.11263
  Kinetic  4383.52961  4371.19209  4985.50885     0.22301     0.11646     0.18537
  Fock        0.00000     0.00000     0.00000     0.00000     0.00000     0.00000
  vdW        -1.52929    -1.66394    -0.04216    -0.00247     0.00050     0.00540
  -------------------------------------------------------------------------------------
  Total       0.18747     0.34943    -0.70224    -0.01037     0.00891    -0.02373
  in kB       0.10565     0.19693    -0.39576    -0.00584     0.00502    -0.01337
  external pressure =       -0.03 kB  Pullay stress =        0.00 kB


 VOLUME and BASIS-vectors are now :
 -----------------------------------------------------------------------------
  energy-cutoff  :      550.00
  volume of cell :     2842.92
      direct lattice vectors                 reciprocal lattice vectors
    14.861552846  0.003181263  0.000000000     0.067279327  0.039206721  0.000000000
    -7.430776423 12.751325011  0.000000000    -0.000016785  0.078413441  0.000000000
     0.000000000  0.000000000 15.000000000     0.000000000  0.000000000  0.066666667

  length of vectors
    14.861553187 14.758479861 15.000000000     0.077869601  0.078413443  0.066666667


 FORCES acting on ions
    electron-ion (+dipol)            ewald-force                    non-local-force                 convergence-correction
 -----------------------------------------------------------------------------------------------
   0.180E+01 -.191E+01 0.798E+01   -.202E+01 0.203E+01 -.802E+01   0.204E+00 -.122E+00 0.321E-01   0.249E-02 -.440E-02 -.162E-03
   -.109E+01 -.707E+00 0.767E+01   0.114E+01 0.855E+00 -.770E+01   -.506E-01 -.143E+00 0.249E-01   0.149E-02 -.194E-02 -.169E-03
   0.134E+00 -.441E+01 0.733E+01   -.152E+00 0.483E+01 -.735E+01   0.148E-01 -.423E+00 0.227E-01   -.299E-03 -.302E-02 -.197E-03
   -.219E+01 -.141E+00 0.755E+01   0.224E+01 0.435E+00 -.756E+01   -.476E-01 -.303E+00 0.751E-02   0.244E-03 -.243E-02 -.260E-03
   0.129E+00 -.179E+01 0.655E+01   0.366E-01 0.208E+01 -.658E+01   -.146E+00 -.287E+00 0.199E-01   -.237E-02 -.326E-02 -.281E-03
   0.122E+01 -.924E-01 0.688E+01   -.124E+01 0.313E+00 -.688E+01   0.239E-01 -.210E+00 -.103E-02   -.106E-02 -.116E-02 -.346E-03
   -.264E+01 -.296E+00 0.762E+01   0.277E+01 0.323E+00 -.764E+01   -.142E+00 -.220E-01 0.245E-01   -.188E-02 -.293E-02 -.137E-03
   0.107E+01 -.124E-01 0.787E+01   -.119E+01 0.715E-01 -.790E+01   0.105E+00 -.559E-01 0.308E-01   -.160E-02 0.123E-02 -.172E-03
   -.220E+01 -.750E+00 0.760E+01   0.224E+01 0.642E+00 -.761E+01   -.422E-01 0.115E+00 0.127E-01   -.239E-03 -.255E-02 -.154E-03
   -.452E-01 0.508E+00 0.735E+01   0.290E-01 -.650E+00 -.737E+01   0.123E-01 0.143E+00 0.255E-01   -.653E-03 0.129E-02 -.199E-03
   0.325E+01 -.967E+00 0.686E+01   -.335E+01 0.924E+00 -.686E+01   0.109E+00 0.399E-01 0.604E-03   0.254E-02 -.326E-02 -.282E-03
   0.569E+00 0.296E-01 0.653E+01   -.527E+00 -.122E+00 -.655E+01   -.359E-01 0.977E-01 0.205E-01   0.157E-02 0.175E-03 -.288E-03
   0.931E+00 0.347E+01 0.682E+01   -.962E+00 -.353E+01 -.683E+01   0.328E-01 0.578E-01 0.577E-02   0.144E-02 0.477E-04 -.230E-03
   0.144E+01 0.425E+01 0.646E+01   -.129E+01 -.436E+01 -.648E+01   -.132E+00 0.110E+00 0.195E-01   -.596E-03 0.378E-02 -.187E-03
   0.248E+01 0.374E+01 0.863E+01   -.244E+01 -.355E+01 -.864E+01   -.609E-01 -.216E+00 0.156E-01   0.115E-02 -.278E-02 -.252E-03
   -.149E+01 0.708E+01 0.999E+01   0.202E+01 -.681E+01 -.101E+02   -.537E+00 -.274E+00 0.102E+00   -.104E-02 0.342E-03 -.182E-03
   -.341E+00 0.528E+01 0.732E+01   0.367E+00 -.484E+01 -.734E+01   -.156E-01 -.470E+00 0.247E-01   -.111E-02 -.338E-02 -.356E-03
   -.867E+00 0.679E+01 0.626E+01   0.852E+00 -.610E+01 -.588E+01   0.296E-01 -.695E+00 -.394E+00   0.476E-04 -.118E-02 -.232E-03
   -.117E+01 0.395E+01 0.836E+01   0.113E+01 -.381E+01 -.838E+01   0.525E-01 -.145E+00 0.181E-01   -.312E-03 0.698E-03 -.341E-03
   0.212E+01 0.809E+01 0.983E+01   -.271E+01 -.790E+01 -.993E+01   0.571E+00 -.186E+00 0.929E-01   0.312E-02 0.246E-02 -.372E-03
   -.142E+01 0.500E+01 0.777E+01   0.141E+01 -.515E+01 -.778E+01   0.132E-01 0.149E+00 0.742E-02   -.105E-02 0.259E-02 -.184E-03
   -.128E+01 0.522E+01 0.791E+01   0.112E+01 -.541E+01 -.793E+01   0.162E+00 0.202E+00 0.255E-01   -.635E-03 0.613E-02 -.198E-03
   0.121E-01 0.334E+01 0.599E+01   0.168E-01 -.351E+01 -.598E+01   -.274E-01 0.175E+00 -.149E-01   0.594E-04 0.220E-02 -.277E-03
   -.356E+00 0.450E+01 0.600E+01   0.441E+00 -.469E+01 -.603E+01   -.857E-01 0.202E+00 0.209E-01   -.107E-02 0.572E-02 -.281E-03
   0.107E+00 0.424E+01 0.520E+01   0.513E-01 -.450E+01 -.518E+01   -.154E+00 0.241E+00 -.217E-01   -.464E-03 0.431E-02 -.239E-03
   0.222E+01 0.781E+01 0.555E+01   -.158E+01 -.818E+01 -.558E+01   -.623E+00 0.362E+00 0.260E-01   0.538E-04 0.367E-02 -.142E-03
   0.342E+01 0.108E+02 0.694E+01   -.316E+01 -.109E+02 -.691E+01   -.275E+00 0.891E-01 -.284E-01   -.214E-02 0.296E-02 -.171E-03
   0.107E+02 0.695E+01 0.586E+01   -.103E+02 -.693E+01 -.597E+01   -.426E+00 -.123E-01 0.112E+00   -.409E-02 0.363E-02 -.138E-03
   -.126E+01 0.178E+02 0.126E+02   0.153E+01 -.168E+02 -.128E+02   -.281E+00 -.951E+00 0.238E+00   -.996E-03 0.437E-03 -.189E-03
   -.775E+01 0.353E+02 0.259E+02   0.140E+02 -.318E+02 -.250E+02   -.626E+01 -.351E+01 -.898E+00   -.249E-02 -.692E-03 -.944E-03
   0.219E+01 0.186E+02 0.113E+02   -.248E+01 -.176E+02 -.115E+02   0.307E+00 -.963E+00 0.227E+00   0.352E-02 0.833E-03 -.346E-03
   0.839E+01 0.346E+02 0.221E+02   -.147E+02 -.310E+02 -.211E+02   0.637E+01 -.356E+01 -.102E+01   0.526E-02 0.188E-02 -.792E-03
   -.248E+01 0.110E+02 0.786E+01   0.216E+01 -.112E+02 -.783E+01   0.337E+00 0.220E+00 -.376E-01   0.115E-02 0.445E-02 -.232E-03
   -.106E+02 0.103E+02 0.784E+01   0.969E+01 -.105E+02 -.798E+01   0.877E+00 0.205E+00 0.129E+00   0.150E-02 0.326E-02 -.456E-04
   -.148E+01 0.728E+01 0.666E+01   0.141E+01 -.784E+01 -.665E+01   0.658E-01 0.547E+00 -.155E-01   -.979E-03 0.471E-02 -.207E-03
   -.333E+01 0.127E+02 0.762E+01   0.325E+01 -.135E+02 -.766E+01   0.873E-01 0.883E+00 0.392E-01   -.149E-02 0.287E-02 -.967E-04
   -.673E+01 0.913E+01 0.628E+01   0.706E+01 -.105E+02 -.630E+01   -.330E+00 0.139E+01 0.237E-01   -.751E-03 0.468E-03 -.580E-04
   -.239E+02 0.136E+02 0.605E+01   0.293E+02 -.167E+02 -.603E+01   -.542E+01 0.306E+01 -.145E-01   -.443E-03 0.865E-03 0.859E-05
   0.120E+01 0.285E+01 0.404E+01   -.847E+00 -.302E+01 -.400E+01   -.362E+00 0.157E+00 -.392E-01   -.108E-02 0.191E-02 -.154E-03
   0.125E+01 -.104E+01 0.404E+01   -.587E+00 0.766E+00 -.399E+01   -.641E+00 0.289E+00 -.466E-01   -.583E-03 0.986E-03 -.134E-03
   0.244E+02 0.899E+01 0.136E+02   -.234E+02 -.945E+01 -.142E+02   -.935E+00 0.479E+00 0.560E+00   -.484E-02 0.127E-02 -.189E-03
   0.245E+02 -.871E+01 0.136E+02   -.235E+02 0.914E+01 -.141E+02   -.947E+00 -.446E+00 0.532E+00   -.553E-02 0.169E-02 -.235E-03
   -.200E+02 0.107E+02 0.130E+02   0.188E+02 -.113E+02 -.135E+02   0.121E+01 0.590E+00 0.464E+00   0.591E-02 0.128E-02 -.226E-03
   -.201E+02 -.869E+01 0.129E+02   0.186E+02 0.882E+01 -.133E+02   0.149E+01 -.124E+00 0.403E+00   0.576E-02 0.656E-03 -.151E-03
   0.178E+01 0.973E+01 0.678E+01   -.223E+01 -.111E+02 -.677E+01   0.462E+00 0.139E+01 -.656E-02   -.886E-03 0.917E-03 -.168E-03
   0.189E+02 0.132E+02 0.571E+01   -.245E+02 -.163E+02 -.554E+01   0.552E+01 0.308E+01 -.166E+00   -.112E-02 0.265E-03 -.129E-03
   -.406E+01 -.562E+01 0.890E+01   0.404E+01 0.597E+01 -.905E+01   0.237E-01 -.343E+00 0.153E+00   -.177E-02 -.115E-02 -.174E-03
   -.168E+01 -.298E+02 0.675E+01   0.159E+01 0.361E+02 -.678E+01   0.938E-01 -.629E+01 0.281E-01   -.989E-03 -.758E-03 -.133E-04
   -.750E+01 -.286E+01 0.530E+01   0.892E+01 0.330E+01 -.531E+01   -.143E+01 -.460E+00 0.940E-02   0.107E-02 -.801E-03 -.656E-04
   -.575E+01 -.719E+01 0.523E+01   0.654E+01 0.765E+01 -.522E+01   -.783E+00 -.465E+00 -.209E-01   0.179E-03 -.738E-03 -.117E-03
   0.985E+01 -.557E+01 0.598E+01   -.937E+01 0.548E+01 -.609E+01   -.477E+00 0.872E-01 0.111E+00   -.390E-02 -.146E-02 -.748E-04
   0.201E+01 -.110E+02 0.710E+01   -.160E+01 0.110E+02 -.706E+01   -.423E+00 -.330E-01 -.312E-01   -.359E-02 -.239E-02 -.100E-03
   -.815E+01 -.345E+02 0.259E+02   0.144E+02 0.309E+02 -.251E+02   -.627E+01 0.357E+01 -.865E+00   -.394E-02 0.135E-02 -.114E-02
   -.179E+01 -.186E+02 0.123E+02   0.206E+01 0.176E+02 -.126E+02   -.291E+00 0.983E+00 0.238E+00   -.227E-02 -.395E-03 -.193E-03
   0.989E+01 -.327E+02 0.216E+02   -.164E+02 0.289E+02 -.206E+02   0.653E+01 0.374E+01 -.985E+00   0.685E-02 -.116E-03 -.920E-03
   0.386E+01 -.188E+02 0.112E+02   -.430E+01 0.177E+02 -.114E+02   0.455E+00 0.104E+01 0.217E+00   0.560E-02 0.668E-03 -.302E-03
   -.670E+00 -.521E+01 0.733E+01   -.996E+00 0.549E+01 -.744E+01   0.169E+01 -.295E+00 0.113E+00   0.974E-03 -.533E-03 -.207E-05
   0.296E+01 -.142E+02 0.808E+01   -.391E+01 0.146E+02 -.802E+01   0.982E+00 -.449E+00 -.547E-01   0.912E-03 -.958E-03 -.102E-03
   0.296E+01 -.132E+02 0.806E+01   -.405E+01 0.142E+02 -.810E+01   0.109E+01 -.978E+00 0.325E-01   -.147E-02 -.210E-02 -.447E-04
   0.102E+01 -.698E+01 0.773E+01   -.104E+01 0.767E+01 -.774E+01   0.461E-02 -.676E+00 0.560E-02   0.332E-03 -.262E-02 -.138E-03
   -.391E+01 -.124E+02 0.618E+01   0.494E+01 0.134E+02 -.620E+01   -.104E+01 -.980E+00 0.225E-01   0.123E-03 -.172E-02 -.121E-03
   -.262E+01 -.544E+01 0.601E+01   0.264E+01 0.616E+01 -.599E+01   -.101E-01 -.700E+00 -.179E-01   -.123E-02 -.203E-02 -.222E-03
   -.211E+01 -.522E+01 0.650E+01   0.259E+01 0.550E+01 -.653E+01   -.464E+00 -.285E+00 0.203E-01   -.241E-02 -.427E-02 -.114E-03
   -.364E+00 -.540E+01 0.681E+01   0.439E+00 0.562E+01 -.682E+01   -.786E-01 -.214E+00 0.510E-02   -.232E-02 -.349E-02 -.191E-03
   -.259E+01 -.749E+01 0.101E+02   0.320E+01 0.726E+01 -.102E+02   -.607E+00 0.231E+00 0.101E+00   -.300E-02 -.272E-02 -.120E-03
   0.140E+01 -.512E+01 0.861E+01   -.131E+01 0.500E+01 -.863E+01   -.973E-01 0.138E+00 0.195E-01   -.162E-02 -.235E-02 -.163E-03
   0.247E+00 -.688E+01 0.596E+01   -.317E+00 0.619E+01 -.557E+01   0.824E-01 0.663E+00 -.391E+00   0.140E-02 -.650E-03 -.135E-03
   0.319E+00 -.672E+01 0.735E+01   -.350E+00 0.634E+01 -.739E+01   0.324E-01 0.400E+00 0.291E-01   0.984E-03 -.117E-02 -.215E-03
   0.594E+01 -.929E+01 0.100E+02   -.690E+01 0.925E+01 -.101E+02   0.935E+00 0.323E-01 0.889E-01   0.527E-02 -.285E-02 -.232E-03
   -.178E+00 -.568E+01 0.842E+01   0.263E-01 0.570E+01 -.843E+01   0.160E+00 -.142E-01 0.438E-02   0.365E-02 -.375E-02 -.251E-03
   -.260E+00 -.131E+01 -.626E+03   0.698E+00 0.121E+01 0.607E+03   -.468E+00 0.103E+00 0.181E+02   -.494E-03 0.113E-02 0.121E-02
 -----------------------------------------------------------------------------------------------
   0.269E+00 0.423E-01 -.175E+02   0.212E-12 -.451E-12 -.114E-12   -.259E+00 -.388E-01 0.175E+02   -.612E-02 0.114E-02 -.147E-01
 
 
 POSITION                                       TOTAL-FORCE (eV/Angst)
 -----------------------------------------------------------------------------------
     -7.42513     12.74436      7.46437        -0.013888      0.002810     -0.001614
      0.00310      1.41729      7.46580         0.003252      0.002874      0.000206
      2.48125      0.02166      7.46315        -0.002639     -0.006179     -0.000676
      2.47981      1.44531      7.47385         0.002567     -0.010281      0.001661
      4.94988      0.02161      7.46613         0.017339      0.004472     -0.003700
      4.95321      1.44463      7.47585        -0.003173      0.010499     -0.001884
     -0.00014     12.75100      7.46599        -0.006727      0.003768     -0.000611
      7.43122      1.42216      7.46471        -0.010202      0.003467     -0.000615
      2.47984     12.72467      7.47375         0.003026      0.003366      0.001579
      9.91206      1.39601      7.46310        -0.003947      0.001005     -0.000463
      4.95695     12.72532      7.47585         0.008635     -0.007805     -0.001659
     12.38545      1.39593      7.46617         0.007575      0.003956     -0.003026
     13.61882      2.11366      7.46726         0.003425     -0.002983     -0.003896
     -1.24928      3.53203      7.47730         0.018385      0.004799     -0.002586
      1.23979      2.14283      7.47573        -0.014906     -0.023756      0.002375
      1.23676      3.56716      7.50124        -0.009039     -0.007261      0.000266
      3.71678      2.17057      7.49093         0.009287     -0.025453     -0.003462
      3.71698      3.59019      7.53697         0.014354      0.009381     -0.004805
      6.19536      2.14526      7.47605         0.002335     -0.008909     -0.002467
      6.19954      3.57190      7.50060        -0.023765      0.005113     -0.002546
      8.67713      2.11444      7.46289         0.001727      0.010542     -0.000178
      8.68091      3.53309      7.47047        -0.002818      0.014994      0.000936
     11.14878      2.10696      7.46423         0.001384      0.007610     -0.002652
     11.14916      3.52844      7.46631        -0.001974      0.014483     -0.006026
     12.37760      4.24526      7.47473         0.003558     -0.012740     -0.007354
     -2.49149      5.66922      7.48159         0.010263     -0.010783     -0.006248
     -0.01604      4.24668      7.50026        -0.013850     -0.019901      0.002063
     -0.04186      5.66221      7.52600         0.001256      0.005394      0.002433
      2.47361      4.30820      7.55021        -0.002461     -0.000705      0.003068
      2.42688      5.72141      7.64173        -0.026289     -0.002437      0.006879
      4.96223      4.31311      7.55358         0.004453      0.011580      0.005047
      5.00969      5.72592      7.64880         0.000567      0.016444      0.014924
      7.45212      4.25287      7.49457         0.020484     -0.016486     -0.000627
      7.47842      5.67282      7.51748        -0.004819     -0.022659     -0.004437
      9.91643      4.24183      7.46843        -0.005142     -0.007424     -0.003724
      9.92247      5.66063      7.47332         0.006177      0.020327     -0.000707
     -3.72302      6.38360      7.47426        -0.000467      0.009476     -0.004335
     -3.72606      7.80332      7.47498         0.010984      0.000726     -0.000596
     -1.27085      6.37627      7.50454        -0.010583     -0.005667     -0.001161
     -1.27882      7.79487      7.50445         0.017010      0.013734     -0.000017
      1.17870      6.36810      7.57939        -0.001149      0.007528      0.007289
      1.17449      7.80362      7.57909         0.000890     -0.015675      0.004189
      6.26020      6.37128      7.57811         0.017798      0.006650      0.000976
      6.26907      7.80254      7.57789        -0.018828      0.007061      0.005172
      8.71198      6.38708      7.49267         0.012238      0.007082      0.003397
      8.71579      7.80507      7.49438         0.003894      0.003278      0.004709
     -4.93877      8.50833      7.47471         0.009025      0.005275      0.005805
     -4.94544      9.91885      7.46873        -0.000189     -0.012131      0.000078
     -2.50091      8.51369      7.48203        -0.022224     -0.017282     -0.002732
     -2.48038      9.93494      7.47471         0.000940     -0.002975     -0.005144
     -0.04781      8.50901      7.52546         0.000924      0.006315      0.001013
     -0.01670      9.92349      7.49980        -0.021850      0.013890      0.001182
      2.42288      8.45042      7.64095        -0.009231      0.007411      0.004624
      2.47304      9.86139      7.55081        -0.010383      0.000811      0.002240
      5.01819      8.44811      7.64821        -0.010191     -0.012899      0.025839
      4.96357      9.85866      7.55372         0.010953     -0.000597      0.007881
      7.48844      8.51472      7.51777         0.027314     -0.012550     -0.003410
      7.44772      9.92788      7.49407         0.028063      0.002355     -0.000414
     -6.17541     10.62671      7.47025         0.003650     -0.012249      0.000546
     -6.17750     12.05028      7.46289        -0.016988      0.016798     -0.001908
     -3.71655     10.63290      7.46613        -0.012132     -0.016569     -0.004688
     -3.72000     12.05876      7.46420         0.016453      0.019610     -0.003450
     -1.25027     10.64024      7.47709         0.014249     -0.004389     -0.003332
     -1.24543     12.06013      7.46729        -0.004520     -0.002653     -0.004345
      1.23515     10.60289      7.50104        -0.006783     -0.000419      0.000465
      1.23800     12.02686      7.47577        -0.012241      0.019837      0.002000
      3.71822     10.58027      7.53771         0.014687     -0.028202     -0.001874
      3.71814     11.99933      7.49098         0.003046      0.015622     -0.002002
      6.20078     10.60322      7.49992        -0.015663     -0.003585     -0.005086
      6.19782     12.02902      7.47576         0.009034      0.002284     -0.004457
      3.70930      7.08572      8.32076        -0.022140      0.010979     -0.003929
 -----------------------------------------------------------------------------------
    total drift:                                0.003344      0.004641     -0.027440


--------------------------------------------------------------------------------------------------------



  FREE ENERGIE OF THE ION-ELECTRON SYSTEM (eV)
  ---------------------------------------------------
  free  energy   TOTEN  =      -653.45026635 eV

  energy  without entropy=     -653.41668851  energy(sigma->0) =     -653.43347743
 
 d Force = 0.6875850E-03[ 0.811E-04, 0.129E-02]  d Energy = 0.6899166E-03-0.233E-05
 d Force =-0.4707881E+00[-0.475E+00,-0.467E+00]  d Ewald  =-0.8579636E+01 0.811E+01


--------------------------------------------------------------------------------------------------------


    POTLOK:  cpu time    0.5463: real time    0.5485


--------------------------------------------------------------------------------------------------------


 Conjugate gradient step on ions:
 trial-energy change:   -0.000690  1 .order   -0.000718   -0.001425   -0.000012
  (g-gl).g = 0.180E-02      g.g   = 0.176E-02  gl.gl    = 0.385E-02
 g(Force)  = 0.157E-02   g(Stress)= 0.183E-03 ortho     =-0.395E-04
 gamma     =   0.46876
 trial     =   0.81968
 opt step  =   0.82659  (harmonic =   0.82659) maximal distance =0.00161127
 next E    =  -653.450295   (d E  =  -0.00072)


--------------------------------------------------------------------------------------------------------


  
 reached required accuracy - stopping structural energy minimisation
     LOOP+:  cpu time  107.4375: real time  108.3277
    4ORBIT:  cpu time    0.0000: real time    0.0000

 total amount of memory used by VASP MPI-rank0   135435. kBytes
=======================================================================

   base      :      30000. kBytes
   nonlr-proj:      10446. kBytes
   fftplans  :      14072. kBytes
   grid      :      39398. kBytes
   one-center:        186. kBytes
   wavefun   :      41333. kBytes
 
  
  
 General timing and accounting informations for this job:
 ========================================================
  
                  Total CPU time used (sec):     2831.643
                            User time (sec):     2805.451
                          System time (sec):       26.192
                         Elapsed time (sec):     2861.263
  
                   Maximum memory used (kb):      608504.
                   Average memory used (kb):           0.
  
                          Minor page faults:      4920484
                          Major page faults:           46
                 Voluntary context switches:        24022
