 vasp.5.4.4.18Apr17-6-g9f103f2a35 (build Nov  8 2022 18:58:45) complex           
 executed on             LinuxGNU date 2023.04.13  15:54:37
 running on   48 total cores
 distrk:  each k-point on   48 cores,    1 groups
 distr:  one band on NCORES_PER_BAND=  12 cores,    4 groups


--------------------------------------------------------------------------------------------------------


 INCAR:
 POTCAR:    PAW_PBE C 08Apr2002                   
 POTCAR:    PAW_PBE N 08Apr2002                   
 POTCAR:    PAW_PBE Ge_d 03Jul2007                
 POTCAR:    PAW_PBE C 08Apr2002                   
 POTCAR:    PAW_PBE O 08Apr2002                   
 POTCAR:    PAW_PBE C 08Apr2002                   
   SHA256 =  253f7b50bb8d59471dbedb8285d89021f4a42ed1a2c5d38a03a736e69125dd95 C/
   COPYR  = (c) Copyright 08Apr2002 Georg Kresse                                
   COPYR  = This file is part of the software VASP. Any use, copying, and all ot
   COPYR  = If you do not have a valid VASP license, you may not use, copy or di
   VRHFIN =C: s2p2                                                              
   LEXCH  = PE                                                                  
   EATOM  =   147.1560 eV,   10.8157 Ry                                         
                                                                                
   TITEL  = PAW_PBE C 08Apr2002                                                 
   LULTRA =        F    use ultrasoft PP ?                                      
   IUNSCR =        1    unscreen: 0-lin 1-nonlin 2-no                           
   RPACOR =    1.200    partial core radius                                     
   POMASS =   12.011; ZVAL   =    4.000    mass and valenz                      
   RCORE  =    1.500    outmost cutoff radius                                   
   RWIGS  =    1.630; RWIGS  =    0.863    wigner-seitz radius (au A)           
   ENMAX  =  400.000; ENMIN  =  300.000 eV                                      
   ICORE  =        2    local potential                                         
   LCOR   =        T    correct aug charges                                     
   LPAW   =        T    paw PP                                                  
   EAUG   =  644.873                                                            
   DEXC   =    0.000                                                            
   RMAX   =    1.529    core radius for proj-oper                               
   RAUG   =    1.300    factor for augmentation sphere                          
   RDEP   =    1.501    radius for radial grids                                 
   RDEPT  =    1.300    core radius for aug-charge                              
                                                                                
   Atomic configuration                                                         
    4 entries                                                                   
     n  l   j            E        occ.                                          
     1  0  0.50      -273.3789   2.0000                                         
     2  0  0.50       -13.7508   2.0000                                         
     2  1  0.50        -5.2854   2.0000                                         
     3  2  1.50        -5.4423   0.0000                                         
   Description                                                                  
     l       E           TYP  RCUT    TYP  RCUT                                 
     0    -13.7508458     23  1.200                                             
     0     -8.2022199     23  1.200                                             
     1     -5.2854383     23  1.500                                             
     1     34.0145650     23  1.500                                             
     2     -5.4423304      7  1.500                                             
  local pseudopotential read in
  partial core-charges read in
  partial kinetic energy density read in
  atomic valenz-charges read in
  non local Contribution for L=           0  read in
    real space projection operators read in
  non local Contribution for L=           0  read in
    real space projection operators read in
  non local Contribution for L=           1  read in
    real space projection operators read in
  non local Contribution for L=           1  read in
    real space projection operators read in
    PAW grid and wavefunctions read in

   number of l-projection  operators is LMAX  =           4
   number of lm-projection operators is LMMAX =           8

 POTCAR:    PAW_PBE N 08Apr2002                   
   SHA256 =  e053789ff3a61a86a1b75d8a110fcc91f86041011e7b0817c7c99e4e8a6349d7 N/
   COPYR  = (c) Copyright 08Apr2002 Georg Kresse                                
   COPYR  = This file is part of the software VASP. Any use, copying, and all ot
   COPYR  = If you do not have a valid VASP license, you may not use, copy or di
   VRHFIN =N: s2p3                                                              
   LEXCH  = PE                                                                  
   EATOM  =   264.5486 eV,   19.4438 Ry                                         
                                                                                
   TITEL  = PAW_PBE N 08Apr2002                                                 
   LULTRA =        F    use ultrasoft PP ?                                      
   IUNSCR =        1    unscreen: 0-lin 1-nonlin 2-no                           
   RPACOR =    1.200    partial core radius                                     
   POMASS =   14.001; ZVAL   =    5.000    mass and valenz                      
   RCORE  =    1.500    outmost cutoff radius                                   
   RWIGS  =    1.400; RWIGS  =    0.741    wigner-seitz radius (au A)           
   ENMAX  =  400.000; ENMIN  =  300.000 eV                                      
   ICORE  =        2    local potential                                         
   LCOR   =        T    correct aug charges                                     
   LPAW   =        T    paw PP                                                  
   EAUG   =  627.112                                                            
   DEXC   =    0.000                                                            
   RMAX   =    1.529    core radius for proj-oper                               
   RAUG   =    1.300    factor for augmentation sphere                          
   RDEP   =    1.514    radius for radial grids                                 
   RDEPT  =    1.338    core radius for aug-charge                              
                                                                                
   Atomic configuration                                                         
    4 entries                                                                   
     n  l   j            E        occ.                                          
     1  0  0.50      -384.7179   2.0000                                         
     2  0  0.50       -18.5828   2.0000                                         
     2  1  0.50        -7.0898   3.0000                                         
     3  2  1.50        -6.8029   0.0000                                         
   Description                                                                  
     l       E           TYP  RCUT    TYP  RCUT                                 
     0    -18.5828119     23  1.200                                             
     0    -13.5018863     23  1.200                                             
     1     -7.0897853     23  1.500                                             
     1      9.5240782     23  1.500                                             
     2     -6.8029130      7  1.500                                             
  local pseudopotential read in
  partial core-charges read in
  partial kinetic energy density read in
  atomic valenz-charges read in
  non local Contribution for L=           0  read in
    real space projection operators read in
  non local Contribution for L=           0  read in
    real space projection operators read in
  non local Contribution for L=           1  read in
    real space projection operators read in
  non local Contribution for L=           1  read in
    real space projection operators read in
    PAW grid and wavefunctions read in

   number of l-projection  operators is LMAX  =           4
   number of lm-projection operators is LMMAX =           8

 POTCAR:    PAW_PBE Ge_d 03Jul2007                
   SHA256 =  944b26c40d2d7c4f4eb1ff3a2e8dbfdd7129146276cd341854bfd5c0e57780ed Ge
   COPYR  = (c) Copyright 03Jul2007 Georg Kresse                                
   COPYR  = This file is part of the software VASP. Any use, copying, and all ot
   COPYR  = If you do not have a valid VASP license, you may not use, copy or di
   VRHFIN =Ge: 3d4s4p                                                           
   LEXCH  = PE                                                                  
   EATOM  =  2596.2402 eV,  190.8183 Ry                                         
                                                                                
   TITEL  = PAW_PBE Ge_d 03Jul2007                                              
   LULTRA =        F    use ultrasoft PP ?                                      
   IUNSCR =        1    unscreen: 0-lin 1-nonlin 2-no                           
   RPACOR =    2.000    partial core radius                                     
   POMASS =   72.610; ZVAL   =   14.000    mass and valenz                      
   RCORE  =    2.300    outmost cutoff radius                                   
   RWIGS  =    2.300; RWIGS  =    1.217    wigner-seitz radius (au A)           
   ENMAX  =  310.294; ENMIN  =  232.720 eV                                      
   ICORE  =        3    local potential                                         
   LCOR   =        T    correct aug charges                                     
   LPAW   =        T    paw PP                                                  
   EAUG   =  531.356                                                            
   DEXC   =    0.000                                                            
   RMAX   =    2.342    core radius for proj-oper                               
   RAUG   =    1.300    factor for augmentation sphere                          
   RDEP   =    2.318    radius for radial grids                                 
   RDEPT  =    1.783    core radius for aug-charge                              
                                                                                
   Atomic configuration                                                         
    9 entries                                                                   
     n  l   j            E        occ.                                          
     1  0  0.50    -10959.8463   2.0000                                         
     2  0  0.50     -1371.6056   2.0000                                         
     2  1  1.50     -1198.4791   6.0000                                         
     3  0  0.50      -168.4733   2.0000                                         
     3  1  1.50      -115.6019   6.0000                                         
     3  2  2.50       -29.3106  10.0000                                         
     4  0  0.50       -11.7309   2.0000                                         
     4  1  0.50        -3.8952   2.0000                                         
     4  3  2.50        -4.0817   0.0000                                         
   Description                                                                  
     l       E           TYP  RCUT    TYP  RCUT                                 
     2    -29.3105938     23  2.200                                             
     2    -13.6058260     23  2.200                                             
     0    -11.7309493     23  2.300                                             
     0     -7.4578696     23  2.300                                             
     1     -3.8952261     23  2.300                                             
     1      6.1178114     23  2.300                                             
     3     -1.3605826     23  2.300                                             
  local pseudopotential read in
  partial core-charges read in
  partial kinetic energy density read in
  atomic valenz-charges read in
  non local Contribution for L=           2  read in
    real space projection operators read in
  non local Contribution for L=           2  read in
    real space projection operators read in
  non local Contribution for L=           0  read in
    real space projection operators read in
  non local Contribution for L=           0  read in
    real space projection operators read in
  non local Contribution for L=           1  read in
    real space projection operators read in
  non local Contribution for L=           1  read in
    real space projection operators read in
    PAW grid and wavefunctions read in

   number of l-projection  operators is LMAX  =           6
   number of lm-projection operators is LMMAX =          18

 POTCAR:    PAW_PBE C 08Apr2002                   
   SHA256 =  253f7b50bb8d59471dbedb8285d89021f4a42ed1a2c5d38a03a736e69125dd95 C/
   COPYR  = (c) Copyright 08Apr2002 Georg Kresse                                
   COPYR  = This file is part of the software VASP. Any use, copying, and all ot
   COPYR  = If you do not have a valid VASP license, you may not use, copy or di
   VRHFIN =C: s2p2                                                              
   LEXCH  = PE                                                                  
   EATOM  =   147.1560 eV,   10.8157 Ry                                         
                                                                                
   TITEL  = PAW_PBE C 08Apr2002                                                 
   LULTRA =        F    use ultrasoft PP ?                                      
   IUNSCR =        1    unscreen: 0-lin 1-nonlin 2-no                           
   RPACOR =    1.200    partial core radius                                     
   POMASS =   12.011; ZVAL   =    4.000    mass and valenz                      
   RCORE  =    1.500    outmost cutoff radius                                   
   RWIGS  =    1.630; RWIGS  =    0.863    wigner-seitz radius (au A)           
   ENMAX  =  400.000; ENMIN  =  300.000 eV                                      
   ICORE  =        2    local potential                                         
   LCOR   =        T    correct aug charges                                     
   LPAW   =        T    paw PP                                                  
   EAUG   =  644.873                                                            
   DEXC   =    0.000                                                            
   RMAX   =    1.529    core radius for proj-oper                               
   RAUG   =    1.300    factor for augmentation sphere                          
   RDEP   =    1.501    radius for radial grids                                 
   RDEPT  =    1.300    core radius for aug-charge                              
                                                                                
   Atomic configuration                                                         
    4 entries                                                                   
     n  l   j            E        occ.                                          
     1  0  0.50      -273.3789   2.0000                                         
     2  0  0.50       -13.7508   2.0000                                         
     2  1  0.50        -5.2854   2.0000                                         
     3  2  1.50        -5.4423   0.0000                                         
   Description                                                                  
     l       E           TYP  RCUT    TYP  RCUT                                 
     0    -13.7508458     23  1.200                                             
     0     -8.2022199     23  1.200                                             
     1     -5.2854383     23  1.500                                             
     1     34.0145650     23  1.500                                             
     2     -5.4423304      7  1.500                                             
  local pseudopotential read in
  partial core-charges read in
  partial kinetic energy density read in
  atomic valenz-charges read in
  non local Contribution for L=           0  read in
    real space projection operators read in
  non local Contribution for L=           0  read in
    real space projection operators read in
  non local Contribution for L=           1  read in
    real space projection operators read in
  non local Contribution for L=           1  read in
    real space projection operators read in
    PAW grid and wavefunctions read in

   number of l-projection  operators is LMAX  =           4
   number of lm-projection operators is LMMAX =           8

 POTCAR:    PAW_PBE O 08Apr2002                   
   SHA256 =  818f92134a0a090dccd8ba1447fa70422a3b330e708bb4f08108d8ae51209ddf O/
   COPYR  = (c) Copyright 08Apr2002 Georg Kresse                                
   COPYR  = This file is part of the software VASP. Any use, copying, and all ot
   COPYR  = If you do not have a valid VASP license, you may not use, copy or di
   VRHFIN =O: s2p4                                                              
   LEXCH  = PE                                                                  
   EATOM  =   432.3788 eV,   31.7789 Ry                                         
                                                                                
   TITEL  = PAW_PBE O 08Apr2002                                                 
   LULTRA =        F    use ultrasoft PP ?                                      
   IUNSCR =        1    unscreen: 0-lin 1-nonlin 2-no                           
   RPACOR =    1.200    partial core radius                                     
   POMASS =   16.000; ZVAL   =    6.000    mass and valenz                      
   RCORE  =    1.520    outmost cutoff radius                                   
   RWIGS  =    1.550; RWIGS  =    0.820    wigner-seitz radius (au A)           
   ENMAX  =  400.000; ENMIN  =  300.000 eV                                      
   ICORE  =        2    local potential                                         
   LCOR   =        T    correct aug charges                                     
   LPAW   =        T    paw PP                                                  
   EAUG   =  605.392                                                            
   DEXC   =    0.000                                                            
   RMAX   =    1.553    core radius for proj-oper                               
   RAUG   =    1.300    factor for augmentation sphere                          
   RDEP   =    1.550    radius for radial grids                                 
   RDEPT  =    1.329    core radius for aug-charge                              
                                                                                
   Atomic configuration                                                         
    4 entries                                                                   
     n  l   j            E        occ.                                          
     1  0  0.50      -514.6923   2.0000                                         
     2  0  0.50       -23.9615   2.0000                                         
     2  1  0.50        -9.0305   4.0000                                         
     3  2  1.50        -9.5241   0.0000                                         
   Description                                                                  
     l       E           TYP  RCUT    TYP  RCUT                                 
     0    -23.9615318     23  1.200                                             
     0     -9.5240782     23  1.200                                             
     1     -9.0304911     23  1.520                                             
     1      8.1634956     23  1.520                                             
     2     -9.5240782      7  1.500                                             
  local pseudopotential read in
  partial core-charges read in
  partial kinetic energy density read in
  kinetic energy density of atom read in
  atomic valenz-charges read in
  non local Contribution for L=           0  read in
    real space projection operators read in
  non local Contribution for L=           0  read in
    real space projection operators read in
  non local Contribution for L=           1  read in
    real space projection operators read in
  non local Contribution for L=           1  read in
    real space projection operators read in
    PAW grid and wavefunctions read in

   number of l-projection  operators is LMAX  =           4
   number of lm-projection operators is LMMAX =           8


 ----------------------------------------------------------------------------- 
|                                                                             |
|  ADVICE TO THIS USER RUNNING 'VASP/VAMP'   (HEAR YOUR MASTER'S VOICE ...):  |
|                                                                             |
|      You have a (more or less) 'large supercell' and for larger cells       |
|      it might be more efficient to use real space projection opertators     |
|      So try LREAL= Auto  in the INCAR   file.                               |
|      Mind:          For very  accurate calculation you might also keep the  |
|      reciprocal projection scheme          (i.e. LREAL=.FALSE.)             |
|                                                                             |
 ----------------------------------------------------------------------------- 

  PAW_PBE C 08Apr2002                   :
 energy of atom  1       EATOM= -147.1560
 kinetic energy error for atom=    0.0132 (will be added to EATOM!!)
  PAW_PBE N 08Apr2002                   :
 energy of atom  2       EATOM= -264.5486
 kinetic energy error for atom=    0.0298 (will be added to EATOM!!)
  PAW_PBE Ge_d 03Jul2007                :
 energy of atom  3       EATOM=-2596.2402
 kinetic energy error for atom=    0.0090 (will be added to EATOM!!)
  PAW_PBE C 08Apr2002                   :
 energy of atom  4       EATOM= -147.1560
 kinetic energy error for atom=    0.0132 (will be added to EATOM!!)
  PAW_PBE O 08Apr2002                   :
 energy of atom  5       EATOM= -432.3788
 kinetic energy error for atom=    0.0458 (will be added to EATOM!!)


 POSCAR: POSCAR-c3n4                             
  positions in cartesian coordinates
  No initial velocities read in
 exchange correlation table for  LEXCH =        8
   RHO(1)=    0.500       N(1)  =     2000
   RHO(2)=  100.500       N(2)  =     4000



--------------------------------------------------------------------------------------------------------


 ion  position               nearest neighbor table
   1  0.106  0.214  0.436-  26 1.21  46 1.21  25 1.27   6 2.03  16 2.03
   2  0.288  0.399  0.443-  29 1.19  35 1.25  25 1.29   5 2.06
   3  0.104  0.392  0.437-  44 1.19  39 1.24  25 1.29  17 2.05
   4  0.447  0.064  0.516-  30 1.19  27 1.20  48 1.27  13 2.04   8 2.04
   5  0.453  0.401  0.422-  28 1.20  29 1.21  56 1.28  15 2.04   2 2.06
   6  0.112  0.053  0.459-  26 1.19  31 1.20  32 1.26   9 2.02   1 2.03
   7  0.096  0.712  0.494-  54 1.20  34 1.22  33 1.26  12 2.02  22 2.05
   8  0.284  0.890  0.511-  27 1.20  37 1.22  33 1.27   4 2.04  11 2.05
   9  0.109  0.895  0.508-  31 1.19  52 1.21  33 1.29   6 2.02  23 2.03
  10  0.448  0.548  0.512-  38 1.19  56 1.22  35 1.22  19 2.02  57 2.46
  11  0.445  0.885  0.499-  37 1.20  36 1.20  48 1.25  21 2.05   8 2.05
  12  0.087  0.542  0.491-  34 1.19  40 1.21  39 1.22   7 2.02  57 2.46
  13  0.616  0.223  0.483-  42 1.21  30 1.22  41 1.26   4 2.04  18 2.04
  14  0.780  0.390  0.410-  45 1.21  51 1.23  41 1.26  17 2.02  22 2.02
  15  0.610  0.394  0.445-  28 1.21  55 1.21  41 1.31  24 2.03   5 2.04
  16  0.940  0.052  0.471-  46 1.19  43 1.20  32 1.26  20 2.02   1 2.03
  17  0.941  0.387  0.404-  45 1.19  44 1.21  40 1.28  14 2.02   3 2.05
  18  0.623  0.066  0.522-  42 1.20  47 1.21  48 1.27  13 2.04  21 2.04
  19  0.613  0.711  0.541-  50 1.19  38 1.23  49 1.27  10 2.02  24 2.05
  20  0.790  0.897  0.533-  43 1.19  53 1.21  49 1.30  16 2.02  23 2.03
  21  0.609  0.892  0.531-  47 1.20  36 1.21  49 1.29  18 2.04  11 2.05
  22  0.938  0.563  0.430-  51 1.18  54 1.21  40 1.28  14 2.02   7 2.05
  23  0.954  0.902  0.545-  52 1.21  53 1.21  32 1.26  20 2.03   9 2.03
  24  0.621  0.555  0.500-  55 1.19  50 1.20  56 1.27  15 2.03  19 2.05
  25  0.167  0.335  0.435-   1 1.27   3 1.29   2 1.29
  26  0.165  0.161  0.431-   6 1.19   1 1.21
  27  0.336  0.002  0.532-   8 1.20   4 1.20
  28  0.512  0.352  0.402-   5 1.20  15 1.21
  29  0.345  0.361  0.400-   2 1.19   5 1.21
  30  0.506  0.177  0.503-   4 1.19  13 1.22
  31  0.159  0.988  0.457-   9 1.19   6 1.20
  32  0.002  0.002  0.493-  16 1.26  23 1.26   6 1.26
  33  0.165  0.831  0.510-   7 1.26   8 1.27   9 1.29
  34  0.134  0.645  0.528-  12 1.19   7 1.22
  35  0.334  0.491  0.501-  10 1.22   2 1.25  57 1.86
  36  0.503  0.831  0.500-  11 1.20  21 1.21
  37  0.333  0.829  0.489-  11 1.20   8 1.22
  38  0.499  0.648  0.555-  10 1.19  19 1.23
  39  0.142  0.484  0.495-  12 1.22   3 1.24  57 1.87
  40  0.988  0.496  0.446-  12 1.21  22 1.28  17 1.28
  41  0.667  0.330  0.439-  13 1.26  14 1.26  15 1.31
  42  0.680  0.178  0.505-  18 1.20  13 1.21
  43  0.827  0.986  0.478-  20 1.19  16 1.20
  44  0.011  0.348  0.389-   3 1.19  17 1.21
  45  0.830  0.330  0.389-  17 1.19  14 1.21
  46  0.993  0.161  0.445-  16 1.19   1 1.21
  47  0.669  0.005  0.549-  21 1.20  18 1.21
  48  0.505  0.004  0.508-  11 1.25  18 1.27   4 1.27
  49  0.668  0.832  0.544-  19 1.27  21 1.29  20 1.30
  50  0.675  0.666  0.522-  19 1.19  24 1.20
  51  0.832  0.507  0.406-  22 1.18  14 1.23
  52  0.016  0.853  0.559-  23 1.21   9 1.21
  53  0.849  0.860  0.576-  20 1.21  23 1.21
  54  0.004  0.677  0.444-   7 1.20  22 1.21
  55  0.668  0.491  0.494-  24 1.19  15 1.21
  56  0.506  0.502  0.477-  10 1.22  24 1.27   5 1.28
  57  0.287  0.593  0.568-  35 1.86  39 1.87  10 2.46  12 2.46
  58  0.287  0.593  0.966-  59 1.04
  59  0.232  0.530  0.023-  58 1.04


IMPORTANT INFORMATION: All symmetrisations will be switched off!
NOSYMM: (Re-)initialisation of all symmetry stuff for point group C_1.



 KPOINTS: K-Points                                

Automatic generation of k-mesh.
Space group operators:
 irot       det(A)        alpha          n_x          n_y          n_z        tau_x        tau_y        tau_z
    1     1.000000     0.000000     1.000000     0.000000     0.000000     0.000000     0.000000     0.000000
 
 Subroutine IBZKPT returns following result:
 ===========================================
 
 Found      5 irreducible k-points:
 
 Following reciprocal coordinates:
            Coordinates               Weight
  0.000000  0.000000  0.000000      1.000000
  0.333333  0.000000  0.000000      2.000000
  0.000000  0.333333  0.000000      2.000000
  0.333333  0.333333  0.000000      2.000000
 -0.333333  0.333333  0.000000      2.000000
 
 Following cartesian coordinates:
            Coordinates               Weight
  0.000000  0.000000  0.000000      1.000000
  0.024277  0.014368  0.000000      2.000000
  0.000396  0.028736  0.000000      2.000000
  0.024673  0.043104  0.000000      2.000000
 -0.023881  0.014368  0.000000      2.000000
 
 TETIRR: Found     24 inequivalent tetrahedra from       54


--------------------------------------------------------------------------------------------------------




 Dimension of arrays:
   k-points           NKPTS =      5   k-points in BZ     NKDIM =      5   number of bands    NBANDS=    172
   number of dos      NEDOS =   4000   number of ions     NIONS =     59
   non local maximal  LDIM  =      6   non local SUM 2l+1 LMDIM =     18
   total plane-waves  NPLWV = 286720
   max r-space proj   IRMAX =      1   max aug-charges    IRDMAX=   5690
   dimension x,y,z NGX =    64 NGY =   64 NGZ =   70
   dimension x,y,z NGXF=   128 NGYF=  128 NGZF=  140
   support grid    NGXF=   128 NGYF=  128 NGZF=  140
   ions per type =              24  32   1   1   1
   NGX,Y,Z   is equivalent  to a cutoff of   8.54,  8.70,  8.62 a.u.
   NGXF,Y,Z  is equivalent  to a cutoff of  17.08, 17.40, 17.24 a.u.

 SYSTEM =  unknown system                          
 POSCAR =  POSCAR-c3n4                             

 Startparameter for this run:
   NWRITE =      2    write-flag & timer
   PREC   = normal    normal or accurate (medium, high low for compatibility)
   ISTART =      0    job   : 0-new  1-cont  2-samecut
   ICHARG =      2    charge: 1-file 2-atom 10-const
   ISPIN  =      2    spin polarized calculation?
   LNONCOLLINEAR =      F non collinear calculations
   LSORBIT =      F    spin-orbit coupling
   INIWAV =      1    electr: 0-lowe 1-rand  2-diag
   LASPH  =      F    aspherical Exc in radial PAW
   METAGGA=      F    non-selfconsistent MetaGGA calc.

 Electronic Relaxation 1
   ENCUT  =  440.0 eV  32.34 Ry    5.69 a.u.  21.31 20.92 23.09*2*pi/ulx,y,z
   ENINI  =  440.0     initial cutoff
   ENAUG  =  644.9 eV  augmentation charge cutoff
   NELM   =    100;   NELMIN=  2; NELMDL= -5     # of ELM steps 
   EDIFF  = 0.1E-03   stopping-criterion for ELM
   LREAL  =      F    real-space projection
   NLSPLINE    = F    spline interpolate recip. space projectors
   LCOMPAT=      F    compatible to vasp.4.4
   GGA_COMPAT  = T    GGA compatible to vasp.4.4-vasp.4.6
   LMAXPAW     = -100 max onsite density
   LMAXMIX     =    2 max onsite mixed and CHGCAR
   VOSKOWN=      0    Vosko Wilk Nusair interpolation
   ROPT   =    0.00000   0.00000   0.00000   0.00000
   ROPT   =    0.00000
 Ionic relaxation
   EDIFFG = -.1E-01   stopping-criterion for IOM
   NSW    =      0    number of steps for IOM
   NBLOCK =      1;   KBLOCK =      1    inner block; outer block 
   IBRION =     -1    ionic relax: 0-MD 1-quasi-New 2-CG
   NFREE  =      0    steps in history (QN), initial steepest desc. (CG)
   ISIF   =      2    stress and relaxation
   IWAVPR =     10    prediction:  0-non 1-charg 2-wave 3-comb
   ISYM   =      0    0-nonsym 1-usesym 2-fastsym
   LCORR  =      T    Harris-Foulkes like correction to forces

   POTIM  = 0.5000    time-step for ionic-motion
   TEIN   =    0.0    initial temperature
   TEBEG  =    0.0;   TEEND  =   0.0 temperature during run
   SMASS  =  -3.00    Nose mass-parameter (am)
   estimated Nose-frequenzy (Omega)   =  0.10E-29 period in steps =****** mass=  -0.355E-26a.u.
   SCALEE = 1.0000    scale energy and forces
   NPACO  =    256;   APACO  = 16.0  distance and # of slots for P.C.
   PSTRESS=    0.0 pullay stress

  Mass of Ions in am
   POMASS =  12.01 14.00 72.61 12.01 16.00
  Ionic Valenz
   ZVAL   =   4.00  5.00 14.00  4.00  6.00
  Atomic Wigner-Seitz radii
   RWIGS  =  -1.00 -1.00 -1.00 -1.00 -1.00
  virtual crystal weights 
   VCA    =   1.00  1.00  1.00  1.00  1.00
   NELECT =     280.0000    total number of electrons
   NUPDOWN=      -1.0000    fix difference up-down

 DOS related values:
   EMIN   = -14.00;   EMAX   =  6.00  energy-range for DOS
   EFERMI =   0.00
   ISMEAR =    -5;   SIGMA  =   0.20  broadening in eV -4-tet -1-fermi 0-gaus

 Electronic relaxation 2 (details)
   IALGO  =     38    algorithm
   LDIAG  =      T    sub-space diagonalisation (order eigenvalues)
   LSUBROT=      F    optimize rotation matrix (better conditioning)
   TURBO    =      0    0=normal 1=particle mesh
   IRESTART =      0    0=no restart 2=restart with 2 vectors
   NREBOOT  =      0    no. of reboots
   NMIN     =      0    reboot dimension
   EREF     =   0.00    reference energy to select bands
   IMIX   =      4    mixing-type and parameters
     AMIX     =   0.25;   BMIX     =  0.00
     AMIX_MAG =   1.00;   BMIX_MAG =  0.00
     AMIN     =   0.10
     WC   =   100.;   INIMIX=   1;  MIXPRE=   1;  MAXMIX= -45

 Intra band minimization:
   WEIMIN = 0.0000     energy-eigenvalue tresh-hold
   EBREAK =  0.15E-06  absolut break condition
   DEPER  =   0.30     relativ break condition  

   TIME   =   0.40     timestep for ELM

  volume/ion in A,a.u.               =      29.76       200.84
  Fermi-wavevector in a.u.,A,eV,Ry     =   0.887748  1.677600 10.722701  0.788096
  Thomas-Fermi vector in A             =   2.009087

 Write flags
   LWAVE        =      F    write WAVECAR
   LDOWNSAMPLE  =      F    k-point downsampling of WAVECAR
   LCHARG       =      F    write CHGCAR
   LVTOT        =      F    write LOCPOT, total local potential
   LVHAR        =      F    write LOCPOT, Hartree potential only
   LELF         =      F    write electronic localiz. function (ELF)
   LORBIT       =     11    0 simple, 1 ext, 2 COOP (PROOUT), +10 PAW based schemes


 Dipole corrections
   LMONO  =      F    monopole corrections only (constant potential shift)
   LDIPOL =      F    correct potential (dipole corrections)
   IDIPOL =      0    1-x, 2-y, 3-z, 4-all directions 
   EPSILON=  1.0000000 bulk dielectric constant

 Exchange correlation treatment:
   GGA     =    --    GGA type
   LEXCH   =     8    internal setting for exchange type
   VOSKOWN=      0    Vosko Wilk Nusair interpolation
   LHFCALC =     F    Hartree Fock is set to
   LHFONE  =     F    Hartree Fock one center treatment
   AEXX    =    0.0000 exact exchange contribution

 Linear response parameters
   LEPSILON=     F    determine dielectric tensor
   LRPA    =     F    only Hartree local field effects (RPA)
   LNABLA  =     F    use nabla operator in PAW spheres
   LVEL    =     F    velocity operator in full k-point grid
   LINTERFAST=   F  fast interpolation
   KINTER  =     0    interpolate to denser k-point grid
   CSHIFT  =0.1000    complex shift for real part using Kramers Kronig
   OMEGAMAX=  -1.0    maximum frequency
   DEG_THRESHOLD= 0.2000000E-02 threshold for treating states as degnerate
   RTIME   =   -0.100 relaxation time in fs
  (WPLASMAI=    0.000 imaginary part of plasma frequency in eV, 0.658/RTIME)
   DFIELD  = 0.0000000 0.0000000 0.0000000 field for delta impulse in time

 Orbital magnetization related:
   ORBITALMAG=     F  switch on orbital magnetization
   LCHIMAG   =     F  perturbation theory with respect to B field
   DQ        =  0.001000  dq finite difference perturbation B field
   LLRAUG    =     F  two centre corrections for induced B field



--------------------------------------------------------------------------------------------------------


 Static calculation
 charge density and potential will be updated during run
 spin polarized calculation
 Variant of blocked Davidson
 Davidson routine will perform the subspace rotation
 perform sub-space diagonalisation
    after iterative eigenvector-optimisation
 modified Broyden-mixing scheme, WC =      100.0
 initial mixing is a Kerker type mixing with AMIX =  0.2500 and BMIX =      0.0001
 Hartree-type preconditioning will be used
 using additional bands           32
 reciprocal scheme for non local part
 use partial core corrections
 calculate Harris-corrections to forces   (improved forces if not selfconsistent)
 use gradient corrections 
 use of overlap-Matrix (Vanderbilt PP)
 Fermi weights with tetrahedron method with Bloechl corrections


--------------------------------------------------------------------------------------------------------


  energy-cutoff  :      440.00
  volume of cell :     1755.96
      direct lattice vectors                 reciprocal lattice vectors
    12.459081811 -0.171666427  0.000000000     0.080922633  0.047893460 -0.000000000
    -6.229540906 10.525671895  0.000000000     0.001319792  0.095786921 -0.000000000
     0.000000000  0.000000000 13.500000000    -0.000000000 -0.000000000  0.074074074

  length of vectors
    12.460264401 12.230983146 13.500000000     0.094033271  0.095796013  0.074074074



 k-points in units of 2pi/SCALE and weight: K-Points                                
   0.00000000  0.00000000  0.00000000       0.111
   0.02427679  0.01436804  0.00000000       0.222
   0.00039594  0.02873608  0.00000000       0.222
   0.02467273  0.04310411  0.00000000       0.222
  -0.02388085  0.01436804  0.00000000       0.222

 k-points in reciprocal lattice and weights: K-Points                                
   0.00000000  0.00000000  0.00000000       0.111
   0.33333333  0.00000000  0.00000000       0.222
   0.00000000  0.33333333  0.00000000       0.222
   0.33333333  0.33333333  0.00000000       0.222
  -0.33333333  0.33333333  0.00000000       0.222

 position of ions in fractional coordinates (direct lattice) 
   0.10567936  0.21351909  0.43638452
   0.28750403  0.39866334  0.44307848
   0.10379301  0.39177313  0.43720774
   0.44732828  0.06383887  0.51561413
   0.45258916  0.40124889  0.42244582
   0.11203481  0.05273921  0.45860169
   0.09638015  0.71191070  0.49382164
   0.28433946  0.89006364  0.51112159
   0.10941441  0.89537413  0.50804572
   0.44792521  0.54827090  0.51182417
   0.44544784  0.88520183  0.49889037
   0.08690842  0.54210436  0.49059155
   0.61614813  0.22292684  0.48262487
   0.78023735  0.38968276  0.40980308
   0.61037743  0.39432339  0.44538198
   0.93951642  0.05229783  0.47062057
   0.94071854  0.38652888  0.40380040
   0.62278394  0.06558106  0.52195204
   0.61322902  0.71118454  0.54116914
   0.78984871  0.89727295  0.53280047
   0.60944297  0.89248269  0.53124739
   0.93832005  0.56283419  0.43042990
   0.95436023  0.90171878  0.54458488
   0.62130548  0.55465507  0.49978063
   0.16668926  0.33545237  0.43494871
   0.16473950  0.16097029  0.43087242
   0.33626584  0.00180669  0.53207802
   0.51175722  0.35246859  0.40230650
   0.34471728  0.36074551  0.39967324
   0.50565751  0.17673507  0.50307206
   0.15873210  0.98821904  0.45657691
   0.00214731  0.00186372  0.49276218
   0.16462634  0.83083069  0.51017993
   0.13400723  0.64526801  0.52770834
   0.33371346  0.49116238  0.50147098
   0.50288345  0.83078126  0.49964378
   0.33307237  0.82932770  0.48929409
   0.49902190  0.64803204  0.55475412
   0.14173676  0.48364631  0.49503647
   0.98839512  0.49595573  0.44590834
   0.66736443  0.33015381  0.43923807
   0.67970142  0.17802103  0.50515807
   0.82720183  0.98622484  0.47776955
   0.01097216  0.34809993  0.38872280
   0.83047981  0.33016544  0.38944898
   0.99296173  0.16101876  0.44505124
   0.66886761  0.00524437  0.54940128
   0.50484899  0.00388347  0.50822952
   0.66830364  0.83227641  0.54411956
   0.67536455  0.66551462  0.52238502
   0.83211404  0.50666912  0.40566699
   0.01584380  0.85299492  0.55859758
   0.84924332  0.85956436  0.57597004
   0.00424175  0.67726383  0.44447513
   0.66753141  0.49127771  0.49374111
   0.50565566  0.50179634  0.47708161
   0.28676550  0.59288202  0.56771515
   0.28676550  0.59288202  0.96638181
   0.23209909  0.52992702  0.02273763

 position of ions in cartesian coordinates  (Angst):
  -0.01345807  2.22929024  5.89119097
   1.09854661  4.14684471  5.98155945
  -1.14740120  4.10585766  5.90230443
   5.17561280  0.59515572  6.96079076
   3.13924892  4.14571983  5.70301863
   1.06730981  0.53588304  6.19112276
  -3.23406867  7.47679323  6.66659209
  -2.00207929  9.31970628  6.90014142
  -4.21456675  9.40563155  6.85861726
   2.16526088  5.69402589  6.90962632
   0.03547010  9.24087560  6.73501999
  -2.29426224  5.69109342  6.62298594
   6.28790809  2.24068284  6.51543577
   7.29349624  3.96773235  5.53234163
   5.14828859  4.04573735  6.01265669
  11.37972052  0.38918634  6.35337765
   9.31259181  3.90698641  5.45130535
   7.35077616  0.58337358  7.04635256
   3.20991739  7.38042432  7.30578342
   4.25119112  9.30881020  7.19280634
   2.03334237  9.28935903  7.17183972
   8.18440764  5.76313000  5.81080372
   6.27315810  9.32736443  7.35189586
   4.28564939  5.73146002  6.74703852
  -0.01291913  3.50224665  5.87180762
   1.04973195  1.66604018  5.81677771
   4.17830872 -0.03870895  7.18305329
   4.18030763  3.62211717  5.43113774
   2.04758185  3.73791250  5.39558871
   5.19904989  1.77345099  6.79147284
  -4.17849478 10.37442042  6.16378825
   0.01514341  0.01924828  6.65228940
  -3.12460065  8.71679040  6.88742902
  -2.35011642  6.76887479  7.12406261
   1.09804722  5.11252662  6.76985828
   1.09008023  8.65820270  6.74519102
  -1.01655494  8.67205391  6.60547018
   2.18041259  6.73530733  7.48918057
  -1.24698459  5.06637088  6.68299230
   9.22491918  5.05059306  6.01976261
   6.25804137  3.36052664  5.92971389
   7.35946636  1.75710902  6.81963400
   4.16244734 10.23867628  6.44988895
  -2.03179972  3.66210205  5.24775786
   8.29023675  3.33264759  5.25756117
  11.36831843  1.52437244  6.00819174
   8.30080634 -0.05962164  7.41691729
   6.26576266 -0.04578949  6.86109858
   3.14174985  8.64554310  7.34561404
   4.26857159  6.88905113  7.05219781
   7.21106084  5.19018690  5.47650442
  -5.11636759  8.97562483  7.54106729
   5.22610065  8.90170591  7.77559559
  -4.16619447  7.12792872  6.00041432
   5.25639380  5.05643527  6.66550501
   3.17404438  5.19493957  6.44060176
  -0.12054800  6.19125366  7.66415449
  -0.12054800  6.19125366 13.04615449
  -0.40946055  5.53799433  0.30695796



--------------------------------------------------------------------------------------------------------


 k-point  1 :   0.0000 0.0000 0.0000  plane waves:   36771
 k-point  2 :   0.3333 0.0000 0.0000  plane waves:   36762
 k-point  3 :   0.0000 0.3333 0.0000  plane waves:   36808
 k-point  4 :   0.3333 0.3333 0.0000  plane waves:   36787
 k-point  5 :  -0.3333 0.3333 0.0000  plane waves:   36785

 maximum and minimum number of plane-waves per node :      3089     3039

 maximum number of plane-waves:     36808
 maximum index in each direction: 
   IXMAX=   21   IYMAX=   20   IZMAX=   23
   IXMIN=  -21   IYMIN=  -21   IZMIN=  -23


 parallel 3D FFT for wavefunctions:
    minimum data exchange during FFTs selected (reduces bandwidth)
 parallel 3D FFT for charge:
    minimum data exchange during FFTs selected (reduces bandwidth)


 total amount of memory used by VASP MPI-rank0    75962. kBytes
=======================================================================

   base      :      30000. kBytes
   nonl-proj :      13922. kBytes
   fftplans  :       2626. kBytes
   grid      :       7821. kBytes
   one-center:        155. kBytes
   wavefun   :      21438. kBytes

     INWAV:  cpu time    0.0001: real time    0.0001
 Broyden mixing: mesh for mixing (old mesh)
   NGX = 43   NGY = 41   NGZ = 47
  (NGX  =128   NGY  =128   NGZ  =140)
  gives a total of  82861 points

 initial charge density was supplied:
 charge density of overlapping atoms calculated
 number of electron     280.0000000 magnetization       2.0000000
 keeping initial charge density in first step


--------------------------------------------------------------------------------------------------------


 Maximum index for augmentation-charges          177 (set IRDMAX)


--------------------------------------------------------------------------------------------------------


 First call to EWALD:  gamma=   0.147
 Maximum number of real-space cells 3x 3x 3
 Maximum number of reciprocal cells 3x 3x 3

    FEWALD:  cpu time    0.0022: real time    0.0022


--------------------------------------- Iteration      1(   1)  ---------------------------------------


    POTLOK:  cpu time    0.0664: real time    0.0905
    SETDIJ:  cpu time    0.0088: real time    0.0088
     EDDAV:  cpu time    7.9936: real time    8.0206
 BZINTS: Fermi energy: 11.315041;280.000000 electrons
         Band energy:***********;  BLOECHL correction: -0.029475
       DOS:  cpu time    0.2902: real time    0.2902
    --------------------------------------------
      LOOP:  cpu time    8.3590: real time    8.4101

 eigenvalue-minimisations  :  4016
 total energy-change (2. order) : 0.2904719E+04  (-0.1165239E+05)
 number of electron     280.0000000 magnetization       2.0000000
 augmentation part      280.0000000 magnetization       2.0000000

 Free energy of the ion-electron system (eV)
  ---------------------------------------------------
  alpha Z        PSCENC =       212.20360122
  Ewald energy   TEWEN  =     28606.71283243
  -Hartree energ DENC   =    -40068.95255947
  -exchange      EXHF   =         0.00000000
  -V(xc)+E(xc)   XCENC  =      1112.34021378
  PAW double counting   =     11453.83848114   -11942.90478952
  entropy T*S    EENTRO =         0.00000000
  eigenvalues    EBANDS =     -1640.25454333
  atomic energy  EATOM  =     15171.73615219
  Solvation  Ediel_sol  =         0.00000000
  ---------------------------------------------------
  free energy    TOTEN  =      2904.71938844 eV

  energy without entropy =     2904.71938844  energy(sigma->0) =     2904.71938844


--------------------------------------------------------------------------------------------------------




--------------------------------------- Iteration      1(   2)  ---------------------------------------


     EDDAV:  cpu time    8.8177: real time    8.8290
 BZINTS: Fermi energy:  0.303732;280.000000 electrons
         Band energy:***********;  BLOECHL correction:  0.000000
       DOS:  cpu time    0.0146: real time    0.0146
    --------------------------------------------
      LOOP:  cpu time    8.8323: real time    8.8436

 eigenvalue-minimisations  :  4584
 total energy-change (2. order) :-0.2936594E+04  (-0.2837120E+04)
 number of electron     280.0000000 magnetization       2.0000000
 augmentation part      280.0000000 magnetization       2.0000000

 Free energy of the ion-electron system (eV)
  ---------------------------------------------------
  alpha Z        PSCENC =       212.20360122
  Ewald energy   TEWEN  =     28606.71283243
  -Hartree energ DENC   =    -40068.95255947
  -exchange      EXHF   =         0.00000000
  -V(xc)+E(xc)   XCENC  =      1112.34021378
  PAW double counting   =     11453.83848114   -11942.90478952
  entropy T*S    EENTRO =         0.00000000
  eigenvalues    EBANDS =     -4576.84856976
  atomic energy  EATOM  =     15171.73615219
  Solvation  Ediel_sol  =         0.00000000
  ---------------------------------------------------
  free energy    TOTEN  =       -31.87463800 eV

  energy without entropy =      -31.87463800  energy(sigma->0) =      -31.87463800


--------------------------------------------------------------------------------------------------------




--------------------------------------- Iteration      1(   3)  ---------------------------------------


     EDDAV:  cpu time    8.0057: real time    8.0261
 BZINTS: Fermi energy: -3.474316;280.000000 electrons
         Band energy:***********;  BLOECHL correction: -0.006295
       DOS:  cpu time    0.0227: real time    0.0227
    --------------------------------------------
      LOOP:  cpu time    8.0284: real time    8.0488

 eigenvalue-minimisations  :  4056
 total energy-change (2. order) :-0.4605258E+03  (-0.4569892E+03)
 number of electron     280.0000000 magnetization       2.0000000
 augmentation part      280.0000000 magnetization       2.0000000

 Free energy of the ion-electron system (eV)
  ---------------------------------------------------
  alpha Z        PSCENC =       212.20360122
  Ewald energy   TEWEN  =     28606.71283243
  -Hartree energ DENC   =    -40068.95255947
  -exchange      EXHF   =         0.00000000
  -V(xc)+E(xc)   XCENC  =      1112.34021378
  PAW double counting   =     11453.83848114   -11942.90478952
  entropy T*S    EENTRO =         0.00000000
  eigenvalues    EBANDS =     -5037.37438640
  atomic energy  EATOM  =     15171.73615219
  Solvation  Ediel_sol  =         0.00000000
  ---------------------------------------------------
  free energy    TOTEN  =      -492.40045463 eV

  energy without entropy =     -492.40045463  energy(sigma->0) =     -492.40045463


--------------------------------------------------------------------------------------------------------




--------------------------------------- Iteration      1(   4)  ---------------------------------------


     EDDAV:  cpu time    8.1301: real time    8.1445
 BZINTS: Fermi energy: -3.861215;280.000000 electrons
         Band energy:***********;  BLOECHL correction:  0.000000
       DOS:  cpu time    0.0156: real time    0.0155
    --------------------------------------------
      LOOP:  cpu time    8.1457: real time    8.1600

 eigenvalue-minimisations  :  4136
 total energy-change (2. order) :-0.1598833E+02  (-0.1561127E+02)
 number of electron     280.0000000 magnetization       2.0000000
 augmentation part      280.0000000 magnetization       2.0000000

 Free energy of the ion-electron system (eV)
  ---------------------------------------------------
  alpha Z        PSCENC =       212.20360122
  Ewald energy   TEWEN  =     28606.71283243
  -Hartree energ DENC   =    -40068.95255947
  -exchange      EXHF   =         0.00000000
  -V(xc)+E(xc)   XCENC  =      1112.34021378
  PAW double counting   =     11453.83848114   -11942.90478952
  entropy T*S    EENTRO =         0.00000000
  eigenvalues    EBANDS =     -5053.36271814
  atomic energy  EATOM  =     15171.73615219
  Solvation  Ediel_sol  =         0.00000000
  ---------------------------------------------------
  free energy    TOTEN  =      -508.38878637 eV

  energy without entropy =     -508.38878637  energy(sigma->0) =     -508.38878637


--------------------------------------------------------------------------------------------------------




--------------------------------------- Iteration      1(   5)  ---------------------------------------


     EDDAV:  cpu time    8.7091: real time    8.7262
 BZINTS: Fermi energy: -3.886222;280.000000 electrons
         Band energy:***********;  BLOECHL correction:  0.000000
       DOS:  cpu time    0.0165: real time    0.0165
    CHARGE:  cpu time    0.1335: real time    0.1349
    MIXING:  cpu time    0.0021: real time    0.0022
    --------------------------------------------
      LOOP:  cpu time    8.8612: real time    8.8798

 eigenvalue-minimisations  :  4536
 total energy-change (2. order) :-0.6195321E+00  (-0.6125880E+00)
 number of electron     279.9999945 magnetization       0.0000001
 augmentation part       22.9159777 magnetization       0.0243729

 Broyden mixing:
  rms(total) = 0.55085E+01    rms(broyden)= 0.55059E+01
  rms(prec ) = 0.61327E+01
  weight for this iteration     100.00

 Free energy of the ion-electron system (eV)
  ---------------------------------------------------
  alpha Z        PSCENC =       212.20360122
  Ewald energy   TEWEN  =     28606.71283243
  -Hartree energ DENC   =    -40068.95255947
  -exchange      EXHF   =         0.00000000
  -V(xc)+E(xc)   XCENC  =      1112.34021378
  PAW double counting   =     11453.83848114   -11942.90478952
  entropy T*S    EENTRO =         0.00000000
  eigenvalues    EBANDS =     -5053.98225025
  atomic energy  EATOM  =     15171.73615219
  Solvation  Ediel_sol  =         0.00000000
  ---------------------------------------------------
  free energy    TOTEN  =      -509.00831849 eV

  energy without entropy =     -509.00831849  energy(sigma->0) =     -509.00831849


--------------------------------------------------------------------------------------------------------




--------------------------------------- Iteration      1(   6)  ---------------------------------------


    POTLOK:  cpu time    0.0705: real time    0.0718
    SETDIJ:  cpu time    0.0088: real time    0.0088
     EDDAV:  cpu time    8.7706: real time    8.7784
 BZINTS: Fermi energy: -2.674669;280.000000 electrons
         Band energy:***********;  BLOECHL correction:  0.000000
       DOS:  cpu time    0.0154: real time    0.0154
    CHARGE:  cpu time    0.1281: real time    0.1281
    MIXING:  cpu time    0.0023: real time    0.0108
    --------------------------------------------
      LOOP:  cpu time    8.9958: real time    9.0133

 eigenvalue-minimisations  :  4600
 total energy-change (2. order) : 0.4680923E+02  (-0.5749515E+01)
 number of electron     279.9999956 magnetization      -0.0000001
 augmentation part       21.8179843 magnetization       0.0141806

 Broyden mixing:
  rms(total) = 0.36620E+01    rms(broyden)= 0.36618E+01
  rms(prec ) = 0.39699E+01
  weight for this iteration     100.00

 eigenvalues of (default mixing * dielectric matrix)
  average eigenvalue GAMMA=   1.7853
  1.7853

 Free energy of the ion-electron system (eV)
  ---------------------------------------------------
  alpha Z        PSCENC =       212.20360122
  Ewald energy   TEWEN  =     28606.71283243
  -Hartree energ DENC   =    -40580.65905780
  -exchange      EXHF   =         0.00000000
  -V(xc)+E(xc)   XCENC  =      1132.47895115
  PAW double counting   =     16894.94440142   -17389.31996100
  entropy T*S    EENTRO =         0.00000000
  eigenvalues    EBANDS =     -4510.29601114
  atomic energy  EATOM  =     15171.73615219
  Solvation  Ediel_sol  =         0.00000000
  ---------------------------------------------------
  free energy    TOTEN  =      -462.19909153 eV

  energy without entropy =     -462.19909153  energy(sigma->0) =     -462.19909153


--------------------------------------------------------------------------------------------------------




--------------------------------------- Iteration      1(   7)  ---------------------------------------


    POTLOK:  cpu time    0.0769: real time    0.0778
    SETDIJ:  cpu time    0.0088: real time    0.0088
     EDDAV:  cpu time    8.1305: real time    8.1393
 BZINTS: Fermi energy: -1.300575;280.000000 electrons
         Band energy:***********;  BLOECHL correction:  0.000000
       DOS:  cpu time    0.0147: real time    0.0147
    CHARGE:  cpu time    0.1301: real time    0.1310
    MIXING:  cpu time    0.0014: real time    0.0014
    --------------------------------------------
      LOOP:  cpu time    8.3624: real time    8.3729

 eigenvalue-minimisations  :  4136
 total energy-change (2. order) : 0.1770344E+02  (-0.8788720E+01)
 number of electron     279.9999947 magnetization      -0.0000000
 augmentation part       20.8925705 magnetization      -0.0013056

 Broyden mixing:
  rms(total) = 0.20248E+01    rms(broyden)= 0.20243E+01
  rms(prec ) = 0.21504E+01
  weight for this iteration     100.00

 eigenvalues of (default mixing * dielectric matrix)
  average eigenvalue GAMMA=   1.7733
  1.0027  2.5439

 Free energy of the ion-electron system (eV)
  ---------------------------------------------------
  alpha Z        PSCENC =       212.20360122
  Ewald energy   TEWEN  =     28606.71283243
  -Hartree energ DENC   =    -41197.92805974
  -exchange      EXHF   =         0.00000000
  -V(xc)+E(xc)   XCENC  =      1156.02116017
  PAW double counting   =     27828.42842850   -28331.94698774
  entropy T*S    EENTRO =         0.00000000
  eigenvalues    EBANDS =     -3889.72278291
  atomic energy  EATOM  =     15171.73615219
  Solvation  Ediel_sol  =         0.00000000
  ---------------------------------------------------
  free energy    TOTEN  =      -444.49565589 eV

  energy without entropy =     -444.49565589  energy(sigma->0) =     -444.49565589


--------------------------------------------------------------------------------------------------------




--------------------------------------- Iteration      1(   8)  ---------------------------------------


    POTLOK:  cpu time    0.0778: real time    0.0787
    SETDIJ:  cpu time    0.0089: real time    0.0089
     EDDAV:  cpu time    8.2245: real time    8.2335
 BZINTS: Fermi energy: -0.715429;280.000000 electrons
         Band energy:***********;  BLOECHL correction:  0.000000
       DOS:  cpu time    0.0155: real time    0.0155
    CHARGE:  cpu time    0.1269: real time    0.1269
    MIXING:  cpu time    0.0015: real time    0.0015
    --------------------------------------------
      LOOP:  cpu time    8.4550: real time    8.4649

 eigenvalue-minimisations  :  4208
 total energy-change (2. order) : 0.1851542E+01  (-0.1700153E+01)
 number of electron     279.9999955 magnetization       0.0000000
 augmentation part       20.6727924 magnetization      -0.0005267

 Broyden mixing:
  rms(total) = 0.14485E+01    rms(broyden)= 0.14484E+01
  rms(prec ) = 0.15033E+01
  weight for this iteration     100.00

 eigenvalues of (default mixing * dielectric matrix)
  average eigenvalue GAMMA=   1.8284
  3.2869  1.4123  0.7860

 Free energy of the ion-electron system (eV)
  ---------------------------------------------------
  alpha Z        PSCENC =       212.20360122
  Ewald energy   TEWEN  =     28606.71283243
  -Hartree energ DENC   =    -41315.16470924
  -exchange      EXHF   =         0.00000000
  -V(xc)+E(xc)   XCENC  =      1160.88689152
  PAW double counting   =     33429.17556068   -33936.21384886
  entropy T*S    EENTRO =         0.00000000
  eigenvalues    EBANDS =     -3771.98059432
  atomic energy  EATOM  =     15171.73615219
  Solvation  Ediel_sol  =         0.00000000
  ---------------------------------------------------
  free energy    TOTEN  =      -442.64411438 eV

  energy without entropy =     -442.64411438  energy(sigma->0) =     -442.64411438


--------------------------------------------------------------------------------------------------------




--------------------------------------- Iteration      1(   9)  ---------------------------------------


    POTLOK:  cpu time    0.0712: real time    0.0722
    SETDIJ:  cpu time    0.0087: real time    0.0087
     EDDAV:  cpu time   10.0667: real time   10.0791
 BZINTS: Fermi energy: -0.674169;280.000000 electrons
         Band energy:***********;  BLOECHL correction:  0.000000
       DOS:  cpu time    0.0142: real time    0.0142
    CHARGE:  cpu time    0.1314: real time    0.1323
    MIXING:  cpu time    0.0015: real time    0.0015
    --------------------------------------------
      LOOP:  cpu time   10.2937: real time   10.3080

 eigenvalue-minimisations  :  5464
 total energy-change (2. order) :-0.2009252E+00  (-0.1293612E+01)
 number of electron     279.9999958 magnetization       0.0000000
 augmentation part       20.7780390 magnetization       0.0007356

 Broyden mixing:
  rms(total) = 0.70440E+00    rms(broyden)= 0.70413E+00
  rms(prec ) = 0.87146E+00
  weight for this iteration     100.00

 eigenvalues of (default mixing * dielectric matrix)
  average eigenvalue GAMMA=   1.7796
  3.7856  1.6522  0.8403  0.8403

 Free energy of the ion-electron system (eV)
  ---------------------------------------------------
  alpha Z        PSCENC =       212.20360122
  Ewald energy   TEWEN  =     28606.71283243
  -Hartree energ DENC   =    -41327.97163009
  -exchange      EXHF   =         0.00000000
  -V(xc)+E(xc)   XCENC  =      1161.86594955
  PAW double counting   =     40555.88592253   -41068.22676071
  entropy T*S    EENTRO =         0.00000000
  eigenvalues    EBANDS =     -3755.05110665
  atomic energy  EATOM  =     15171.73615219
  Solvation  Ediel_sol  =         0.00000000
  ---------------------------------------------------
  free energy    TOTEN  =      -442.84503954 eV

  energy without entropy =     -442.84503954  energy(sigma->0) =     -442.84503954


--------------------------------------------------------------------------------------------------------




--------------------------------------- Iteration      1(  10)  ---------------------------------------


    POTLOK:  cpu time    0.0818: real time    0.0867
    SETDIJ:  cpu time    0.0087: real time    0.0087
     EDDAV:  cpu time    9.7467: real time    9.7594
 BZINTS: Fermi energy: -0.445361;280.000000 electrons
         Band energy:***********;  BLOECHL correction:  0.000000
       DOS:  cpu time    0.0147: real time    0.0147
    CHARGE:  cpu time    0.1309: real time    0.1309
    MIXING:  cpu time    0.0018: real time    0.0018
    --------------------------------------------
      LOOP:  cpu time    9.9847: real time   10.0022

 eigenvalue-minimisations  :  5192
 total energy-change (2. order) : 0.6408524E+00  (-0.7705370E+00)
 number of electron     279.9999952 magnetization      -0.0000000
 augmentation part       20.7608488 magnetization       0.0004587

 Broyden mixing:
  rms(total) = 0.35159E+00    rms(broyden)= 0.35118E+00
  rms(prec ) = 0.40286E+00
  weight for this iteration     100.00

 eigenvalues of (default mixing * dielectric matrix)
  average eigenvalue GAMMA=   1.6564
  3.9970  1.8994  1.0638  0.6608  0.6608

 Free energy of the ion-electron system (eV)
  ---------------------------------------------------
  alpha Z        PSCENC =       212.20360122
  Ewald energy   TEWEN  =     28606.71283243
  -Hartree energ DENC   =    -41323.40837581
  -exchange      EXHF   =         0.00000000
  -V(xc)+E(xc)   XCENC  =      1162.23278058
  PAW double counting   =     43225.97041087   -43737.95505971
  entropy T*S    EENTRO =         0.00000000
  eigenvalues    EBANDS =     -3759.69652888
  atomic energy  EATOM  =     15171.73615219
  Solvation  Ediel_sol  =         0.00000000
  ---------------------------------------------------
  free energy    TOTEN  =      -442.20418711 eV

  energy without entropy =     -442.20418711  energy(sigma->0) =     -442.20418711


--------------------------------------------------------------------------------------------------------




--------------------------------------- Iteration      1(  11)  ---------------------------------------


    POTLOK:  cpu time    0.0825: real time    0.0854
    SETDIJ:  cpu time    0.0092: real time    0.0092
     EDDAV:  cpu time    9.0611: real time    9.0674
 BZINTS: Fermi energy: -0.564141;280.000000 electrons
         Band energy:***********;  BLOECHL correction:  0.000000
       DOS:  cpu time    0.0144: real time    0.0144
    CHARGE:  cpu time    0.1293: real time    0.1293
    MIXING:  cpu time    0.0018: real time    0.0018
    --------------------------------------------
      LOOP:  cpu time    9.2984: real time    9.3075

 eigenvalue-minimisations  :  4736
 total energy-change (2. order) : 0.1048931E+00  (-0.1304002E+00)
 number of electron     279.9999954 magnetization      -0.0000000
 augmentation part       20.7630883 magnetization       0.0001864

 Broyden mixing:
  rms(total) = 0.17065E+00    rms(broyden)= 0.17058E+00
  rms(prec ) = 0.19622E+00
  weight for this iteration     100.00

 eigenvalues of (default mixing * dielectric matrix)
  average eigenvalue GAMMA=   1.5881
  3.9557  1.9894  1.3334  0.9574  0.6463  0.6463

 Free energy of the ion-electron system (eV)
  ---------------------------------------------------
  alpha Z        PSCENC =       212.20360122
  Ewald energy   TEWEN  =     28606.71283243
  -Hartree energ DENC   =    -41292.29097920
  -exchange      EXHF   =         0.00000000
  -V(xc)+E(xc)   XCENC  =      1161.41595625
  PAW double counting   =     44607.39081419   -45118.75114254
  entropy T*S    EENTRO =         0.00000000
  eigenvalues    EBANDS =     -3790.51652853
  atomic energy  EATOM  =     15171.73615219
  Solvation  Ediel_sol  =         0.00000000
  ---------------------------------------------------
  free energy    TOTEN  =      -442.09929400 eV

  energy without entropy =     -442.09929400  energy(sigma->0) =     -442.09929400


--------------------------------------------------------------------------------------------------------




--------------------------------------- Iteration      1(  12)  ---------------------------------------


    POTLOK:  cpu time    0.0720: real time    0.0753
    SETDIJ:  cpu time    0.0092: real time    0.0092
     EDDAV:  cpu time    8.3789: real time    8.3867
 BZINTS: Fermi energy: -0.620405;280.000000 electrons
         Band energy:***********;  BLOECHL correction:  0.000000
       DOS:  cpu time    0.0144: real time    0.0144
    CHARGE:  cpu time    0.1309: real time    0.1309
    MIXING:  cpu time    0.0019: real time    0.0019
    --------------------------------------------
      LOOP:  cpu time    8.6075: real time    8.6185

 eigenvalue-minimisations  :  4352
 total energy-change (2. order) : 0.3268043E-01  (-0.4080762E-01)
 number of electron     279.9999952 magnetization      -0.0000000
 augmentation part       20.7678580 magnetization       0.0000343

 Broyden mixing:
  rms(total) = 0.10709E+00    rms(broyden)= 0.10704E+00
  rms(prec ) = 0.13177E+00
  weight for this iteration     100.00

 eigenvalues of (default mixing * dielectric matrix)
  average eigenvalue GAMMA=   1.5814
  3.9111  2.3735  1.6309  0.9529  0.9529  0.6242  0.6242

 Free energy of the ion-electron system (eV)
  ---------------------------------------------------
  alpha Z        PSCENC =       212.20360122
  Ewald energy   TEWEN  =     28606.71283243
  -Hartree energ DENC   =    -41274.28708016
  -exchange      EXHF   =         0.00000000
  -V(xc)+E(xc)   XCENC  =      1160.84417448
  PAW double counting   =     44806.43015227   -45317.21562219
  entropy T*S    EENTRO =         0.00000000
  eigenvalues    EBANDS =     -3808.49082380
  atomic energy  EATOM  =     15171.73615219
  Solvation  Ediel_sol  =         0.00000000
  ---------------------------------------------------
  free energy    TOTEN  =      -442.06661357 eV

  energy without entropy =     -442.06661357  energy(sigma->0) =     -442.06661357


--------------------------------------------------------------------------------------------------------




--------------------------------------- Iteration      1(  13)  ---------------------------------------


    POTLOK:  cpu time    0.0624: real time    0.0739
    SETDIJ:  cpu time    0.0091: real time    0.0091
     EDDAV:  cpu time    8.1604: real time    8.1672
 BZINTS: Fermi energy: -0.655414;280.000000 electrons
         Band energy:***********;  BLOECHL correction:  0.000000
       DOS:  cpu time    0.0143: real time    0.0143
    CHARGE:  cpu time    0.1287: real time    0.1287
    MIXING:  cpu time    0.0020: real time    0.0020
    --------------------------------------------
      LOOP:  cpu time    8.3767: real time    8.3950

 eigenvalue-minimisations  :  4200
 total energy-change (2. order) : 0.1648357E-01  (-0.2223387E-01)
 number of electron     279.9999954 magnetization       0.0000000
 augmentation part       20.7741540 magnetization      -0.0000188

 Broyden mixing:
  rms(total) = 0.46348E-01    rms(broyden)= 0.46255E-01
  rms(prec ) = 0.56043E-01
  weight for this iteration     100.00

 eigenvalues of (default mixing * dielectric matrix)
  average eigenvalue GAMMA=   1.5493
  3.8996  2.5876  1.7379  1.0398  0.9354  0.9354  0.6293  0.6293

 Free energy of the ion-electron system (eV)
  ---------------------------------------------------
  alpha Z        PSCENC =       212.20360122
  Ewald energy   TEWEN  =     28606.71283243
  -Hartree energ DENC   =    -41263.21168264
  -exchange      EXHF   =         0.00000000
  -V(xc)+E(xc)   XCENC  =      1160.46207715
  PAW double counting   =     44957.27139726   -45467.90240106
  entropy T*S    EENTRO =         0.00000000
  eigenvalues    EBANDS =     -3819.32210654
  atomic energy  EATOM  =     15171.73615219
  Solvation  Ediel_sol  =         0.00000000
  ---------------------------------------------------
  free energy    TOTEN  =      -442.05012999 eV

  energy without entropy =     -442.05012999  energy(sigma->0) =     -442.05012999


--------------------------------------------------------------------------------------------------------




--------------------------------------- Iteration      1(  14)  ---------------------------------------


    POTLOK:  cpu time    0.0735: real time    0.0745
    SETDIJ:  cpu time    0.0097: real time    0.0097
     EDDAV:  cpu time    8.3197: real time    8.3305
 BZINTS: Fermi energy: -0.660415;280.000000 electrons
         Band energy:***********;  BLOECHL correction:  0.000000
       DOS:  cpu time    0.0151: real time    0.0151
    CHARGE:  cpu time    0.1289: real time    0.1289
    MIXING:  cpu time    0.0021: real time    0.0021
    --------------------------------------------
      LOOP:  cpu time    8.5490: real time    8.5609

 eigenvalue-minimisations  :  4272
 total energy-change (2. order) : 0.5197734E-03  (-0.4998072E-02)
 number of electron     279.9999953 magnetization       0.0000000
 augmentation part       20.7751797 magnetization      -0.0000006

 Broyden mixing:
  rms(total) = 0.32248E-01    rms(broyden)= 0.32233E-01
  rms(prec ) = 0.35357E-01
  weight for this iteration     100.00

 eigenvalues of (default mixing * dielectric matrix)
  average eigenvalue GAMMA=   1.4998
  3.8687  2.6208  1.6724  1.1425  0.9700  0.9700  0.9890  0.6322  0.6322

 Free energy of the ion-electron system (eV)
  ---------------------------------------------------
  alpha Z        PSCENC =       212.20360122
  Ewald energy   TEWEN  =     28606.71283243
  -Hartree energ DENC   =    -41261.98808854
  -exchange      EXHF   =         0.00000000
  -V(xc)+E(xc)   XCENC  =      1160.40200865
  PAW double counting   =     45019.75237960   -45530.27614416
  entropy T*S    EENTRO =         0.00000000
  eigenvalues    EBANDS =     -3820.59235162
  atomic energy  EATOM  =     15171.73615219
  Solvation  Ediel_sol  =         0.00000000
  ---------------------------------------------------
  free energy    TOTEN  =      -442.04961022 eV

  energy without entropy =     -442.04961022  energy(sigma->0) =     -442.04961022


--------------------------------------------------------------------------------------------------------




--------------------------------------- Iteration      1(  15)  ---------------------------------------


    POTLOK:  cpu time    0.0733: real time    0.0741
    SETDIJ:  cpu time    0.0092: real time    0.0093
     EDDAV:  cpu time    9.3527: real time    9.3671
 BZINTS: Fermi energy: -0.655414;280.000000 electrons
         Band energy:***********;  BLOECHL correction:  0.000000
       DOS:  cpu time    0.0149: real time    0.0149
    CHARGE:  cpu time    0.1288: real time    0.1288
    MIXING:  cpu time    0.0022: real time    0.0022
    --------------------------------------------
      LOOP:  cpu time    9.5812: real time    9.5964

 eigenvalue-minimisations  :  4960
 total energy-change (2. order) : 0.4355149E-03  (-0.7023680E-03)
 number of electron     279.9999953 magnetization      -0.0000000
 augmentation part       20.7760136 magnetization       0.0000054

 Broyden mixing:
  rms(total) = 0.21035E-01    rms(broyden)= 0.21032E-01
  rms(prec ) = 0.21639E-01
  weight for this iteration     100.00

 eigenvalues of (default mixing * dielectric matrix)
  average eigenvalue GAMMA=   1.5488
  3.7832  2.6396  2.0557  1.5518  1.5518  0.9701  0.8349  0.8349  0.6333  0.6333

 Free energy of the ion-electron system (eV)
  ---------------------------------------------------
  alpha Z        PSCENC =       212.20360122
  Ewald energy   TEWEN  =     28606.71283243
  -Hartree energ DENC   =    -41262.92772221
  -exchange      EXHF   =         0.00000000
  -V(xc)+E(xc)   XCENC  =      1160.41339307
  PAW double counting   =     45020.52885349   -45531.12608352
  entropy T*S    EENTRO =         0.00000000
  eigenvalues    EBANDS =     -3819.59020137
  atomic energy  EATOM  =     15171.73615219
  Solvation  Ediel_sol  =         0.00000000
  ---------------------------------------------------
  free energy    TOTEN  =      -442.04917470 eV

  energy without entropy =     -442.04917470  energy(sigma->0) =     -442.04917470


--------------------------------------------------------------------------------------------------------




--------------------------------------- Iteration      1(  16)  ---------------------------------------


    POTLOK:  cpu time    0.0688: real time    0.0704
    SETDIJ:  cpu time    0.0090: real time    0.0090
     EDDAV:  cpu time    8.2684: real time    8.2781
 BZINTS: Fermi energy: -0.650413;280.000000 electrons
         Band energy:***********;  BLOECHL correction:  0.000000
       DOS:  cpu time    0.0142: real time    0.0142
    CHARGE:  cpu time    0.1294: real time    0.1294
    MIXING:  cpu time    0.0023: real time    0.0023
    --------------------------------------------
      LOOP:  cpu time    8.4921: real time    8.5033

 eigenvalue-minimisations  :  4280
 total energy-change (2. order) : 0.2937711E-04  (-0.1271104E-03)
 number of electron     279.9999953 magnetization       0.0000000
 augmentation part       20.7753310 magnetization      -0.0000031

 Broyden mixing:
  rms(total) = 0.11465E-01    rms(broyden)= 0.11464E-01
  rms(prec ) = 0.11681E-01
  weight for this iteration     100.00

 eigenvalues of (default mixing * dielectric matrix)
  average eigenvalue GAMMA=   1.6259
  3.6766  3.6766  2.4542  1.5292  1.5292  1.1647  0.8657  0.8657  0.8546  0.6342
  0.6342

 Free energy of the ion-electron system (eV)
  ---------------------------------------------------
  alpha Z        PSCENC =       212.20360122
  Ewald energy   TEWEN  =     28606.71283243
  -Hartree energ DENC   =    -41264.29929287
  -exchange      EXHF   =         0.00000000
  -V(xc)+E(xc)   XCENC  =      1160.44412427
  PAW double counting   =     45015.10766470   -45525.71684666
  entropy T*S    EENTRO =         0.00000000
  eigenvalues    EBANDS =     -3818.23738061
  atomic energy  EATOM  =     15171.73615219
  Solvation  Ediel_sol  =         0.00000000
  ---------------------------------------------------
  free energy    TOTEN  =      -442.04914533 eV

  energy without entropy =     -442.04914533  energy(sigma->0) =     -442.04914533


--------------------------------------------------------------------------------------------------------




--------------------------------------- Iteration      1(  17)  ---------------------------------------


    POTLOK:  cpu time    0.0737: real time    0.0745
    SETDIJ:  cpu time    0.0091: real time    0.0091
     EDDAV:  cpu time    5.5485: real time    5.5546
 BZINTS: Fermi energy: -0.650413;280.000000 electrons
         Band energy:***********;  BLOECHL correction:  0.000000
       DOS:  cpu time    0.0149: real time    0.0149
    --------------------------------------------
      LOOP:  cpu time    5.6461: real time    5.6531

 eigenvalue-minimisations  :  2432
 total energy-change (2. order) :-0.3135727E-04  (-0.3168404E-04)
 number of electron     279.9999953 magnetization       0.0000000
 augmentation part       20.7753310 magnetization      -0.0000031

 Free energy of the ion-electron system (eV)
  ---------------------------------------------------
  alpha Z        PSCENC =       212.20360122
  Ewald energy   TEWEN  =     28606.71283243
  -Hartree energ DENC   =    -41264.75772549
  -exchange      EXHF   =         0.00000000
  -V(xc)+E(xc)   XCENC  =      1160.45212081
  PAW double counting   =     45022.61716742   -45533.21216710
  entropy T*S    EENTRO =         0.00000000
  eigenvalues    EBANDS =     -3817.80115816
  atomic energy  EATOM  =     15171.73615219
  Solvation  Ediel_sol  =         0.00000000
  ---------------------------------------------------
  free energy    TOTEN  =      -442.04917668 eV

  energy without entropy =     -442.04917668  energy(sigma->0) =     -442.04917668


--------------------------------------------------------------------------------------------------------




 average (electrostatic) potential at core
  the test charge radii are     0.6991  0.7089  0.9911  0.6991  0.7215
  (the norm of the test charge is              1.0000)
       1 -59.1788       2 -59.6042       3 -59.6016       4 -59.3196       5 -59.2912
       6 -59.3451       7 -59.3795       8 -59.1765       9 -59.0870      10 -60.1584
      11 -59.4978      12 -60.1460      13 -59.1895      14 -59.2028      15 -58.9238
      16 -59.3718      17 -59.3326      18 -59.2827      19 -59.4959      20 -59.1627
      21 -59.1795      22 -59.4380      23 -59.3479      24 -59.4196      25 -73.4560
      26 -70.9603      27 -70.9526      28 -71.1969      29 -71.2980      30 -71.0746
      31 -70.9995      32 -74.2585      33 -72.9811      34 -71.5514      35 -72.8198
      36 -71.1558      37 -71.1646      38 -71.6202      39 -72.7593      40 -74.4035
      41 -73.1877      42 -71.1730      43 -71.0477      44 -71.3504      45 -71.4022
      46 -71.0118      47 -71.0065      48 -74.1268      49 -73.1952      50 -71.3523
      51 -71.2549      52 -70.9614      53 -70.9029      54 -71.2815      55 -71.2370
      56 -74.4496      57 -80.1459      58 -58.7611      59 -81.4403



 E-fermi :  -0.6504     XC(G=0):  -3.7789     alpha+bet : -3.1872


 spin component 1

 k-point     1 :       0.0000    0.0000    0.0000
  band No.  band energies     occupation 
      1     -28.4828      1.00000
      2     -28.3514      1.00000
      3     -28.1171      1.00000
      4     -28.0761      1.00000
      5     -27.9816      1.00000
      6     -26.7978      1.00000
      7     -26.6366      1.00000
      8     -26.5674      1.00000
      9     -25.8767      1.00000
     10     -25.5984      1.00000
     11     -25.4969      1.00000
     12     -25.4864      1.00000
     13     -25.4413      1.00000
     14     -25.4163      1.00000
     15     -25.3558      1.00000
     16     -25.3344      1.00000
     17     -25.2786      1.00000
     18     -25.2755      1.00000
     19     -25.1536      1.00000
     20     -24.1851      1.00000
     21     -23.9576      1.00000
     22     -23.9192      1.00000
     23     -22.9456      1.00000
     24     -22.8844      1.00000
     25     -22.4877      1.00000
     26     -22.3678      1.00000
     27     -22.2996      1.00000
     28     -22.2590      1.00000
     29     -22.1815      1.00000
     30     -22.0851      1.00000
     31     -22.0176      1.00000
     32     -21.9788      1.00000
     33     -21.8489      1.00000
     34     -21.1968      1.00000
     35     -21.1748      1.00000
     36     -21.0236      1.00000
     37     -20.8684      1.00000
     38     -20.4346      1.00000
     39     -18.2526      1.00000
     40     -18.1939      1.00000
     41     -18.0306      1.00000
     42     -17.8159      1.00000
     43     -17.6615      1.00000
     44     -17.5948      1.00000
     45     -17.1340      1.00000
     46     -16.9050      1.00000
     47     -16.0912      1.00000
     48     -15.9384      1.00000
     49     -15.8752      1.00000
     50     -15.7317      1.00000
     51     -15.6083      1.00000
     52     -15.4384      1.00000
     53     -15.0998      1.00000
     54     -14.9734      1.00000
     55     -14.6509      1.00000
     56     -14.5297      1.00000
     57     -14.4647      1.00000
     58     -14.2996      1.00000
     59     -14.2049      1.00000
     60     -14.0839      1.00000
     61     -13.9444      1.00000
     62     -13.8701      1.00000
     63     -13.7220      1.00000
     64     -13.2422      1.00000
     65     -13.1433      1.00000
     66     -12.9273      1.00000
     67     -12.7754      1.00000
     68     -12.6645      1.00000
     69     -12.5157      1.00000
     70     -12.3198      1.00000
     71     -12.2523      1.00000
     72     -12.0868      1.00000
     73     -11.9920      1.00000
     74     -11.7891      1.00000
     75     -11.7041      1.00000
     76     -11.5115      1.00000
     77     -11.3585      1.00000
     78     -11.3476      1.00000
     79     -11.2721      1.00000
     80     -10.9426      1.00000
     81     -10.7983      1.00000
     82     -10.7123      1.00000
     83     -10.3471      1.00000
     84     -10.2224      1.00000
     85     -10.0531      1.00000
     86     -10.0512      1.00000
[...]
   -.202E+02 0.640E+02 0.227E+03   0.204E+02 -.668E+02 -.230E+03   -.390E+00 0.374E+01 0.219E+01   -.170E-01 0.221E-01 0.188E-01
   -.747E+02 -.198E+02 0.109E+03   0.781E+02 0.212E+02 -.111E+03   -.341E+01 -.173E+01 0.136E+01   0.119E-02 0.119E-01 0.137E-02
   0.505E+02 -.323E+02 -.387E+02   -.505E+02 0.325E+02 0.396E+02   0.686E+00 0.252E+01 0.868E+00   0.554E-02 0.136E-01 0.240E-02
   0.294E+02 -.226E+02 -.561E+02   -.292E+02 0.222E+02 0.560E+02   -.289E+01 -.197E+01 0.494E+00   0.335E-02 -.732E-02 0.698E-02
   -.606E+01 -.345E+01 -.687E+02   0.563E+01 0.272E+01 0.690E+02   0.327E+01 -.163E+01 0.330E+00   0.408E-02 0.583E-03 0.148E-02
   -.325E+02 0.205E+02 -.824E+02   0.305E+02 -.191E+02 0.841E+02   0.117E+01 -.196E+01 -.130E+01   0.879E-02 -.141E-01 -.109E-01
   -.421E+01 0.214E+02 0.546E+02   0.423E+01 -.256E+02 -.548E+02   0.891E-01 0.371E+01 -.648E+00   0.702E-02 -.201E-01 0.117E-01
   0.412E+02 0.185E+02 -.756E+02   -.392E+02 -.170E+02 0.777E+02   -.130E+01 -.241E+01 -.875E+00   0.228E-01 0.183E-01 0.977E-02
   -.398E+01 -.178E+02 -.185E+02   0.435E+01 0.169E+02 0.178E+02   -.171E+00 0.362E+01 -.720E+00   -.216E-01 0.480E-03 0.945E-03
   0.452E+02 0.335E+02 0.220E+03   -.451E+02 -.335E+02 -.220E+03   -.312E+01 -.136E+01 -.968E+00   -.251E-01 0.705E-02 0.630E-02
   -.144E+02 0.252E+02 0.986E+02   0.143E+02 -.261E+02 -.986E+02   0.330E+01 -.132E+01 -.507E+00   -.439E-01 0.174E-01 0.441E-02
   0.772E+02 -.182E+02 0.751E+02   -.807E+02 0.195E+02 -.761E+02   0.344E+01 -.182E+01 0.714E+00   0.361E-02 -.679E-02 0.500E-02
   0.793E+01 0.907E+02 0.242E+03   -.708E+01 -.936E+02 -.245E+03   -.109E+00 0.357E+01 0.204E+01   0.139E-01 0.529E-02 0.105E-02
   -.761E+02 -.704E+02 -.113E+03   0.798E+02 0.720E+02 0.114E+03   -.339E+01 -.177E+01 -.547E+00   -.310E-02 -.243E-01 0.528E-02
   -.433E+02 -.306E+02 -.161E+03   0.424E+02 0.314E+02 0.162E+03   -.372E+00 0.253E+01 0.922E+00   -.379E-02 -.156E-01 -.671E-02
   0.986E+01 -.461E+01 -.125E+03   -.976E+01 0.390E+01 0.126E+03   -.335E+01 -.154E+01 0.575E+00   -.817E-02 -.145E-01 0.105E-02
   -.326E+02 -.171E+02 -.101E+03   0.327E+02 0.167E+02 0.101E+03   0.286E+01 -.209E+01 0.105E+01   0.187E-02 -.245E-01 0.457E-02
   0.892E+02 -.817E+02 0.157E+03   -.915E+02 0.852E+02 -.157E+03   0.342E+01 -.249E+01 0.305E+00   -.341E-03 0.218E-01 0.686E-02
   -.123E+02 0.513E+02 -.217E+03   0.124E+02 -.552E+02 0.219E+03   -.670E-01 0.397E+01 -.173E+01   -.885E-02 -.141E-02 0.226E-03
   -.102E+03 -.298E+02 -.699E+02   0.105E+03 0.313E+02 0.716E+02   -.377E+01 -.125E+01 -.136E+01   -.359E-01 -.141E-01 -.694E-02
   -.173E+02 0.483E+02 0.189E+03   0.179E+02 -.492E+02 -.193E+03   -.345E+00 0.138E+01 0.302E+01   0.631E-01 0.211E-01 0.115E-01
   -.232E+03 -.350E+02 0.257E+03   0.271E+03 0.562E+02 -.274E+03   -.316E+02 -.165E+02 0.128E+02   0.629E-02 0.284E-01 0.481E-02
   0.187E+03 -.183E+03 -.275E+03   -.226E+03 0.204E+03 0.291E+03   0.309E+02 -.166E+02 -.107E+02   0.947E-03 -.124E-01 0.262E-02
   0.289E+01 0.205E+03 0.456E+03   0.367E+00 -.241E+03 -.486E+03   -.202E+01 0.291E+02 0.223E+02   -.346E-01 0.450E-01 0.312E-01
   -.468E+02 0.170E+03 0.478E+03   0.446E+02 -.203E+03 -.512E+03   0.192E+01 0.276E+02 0.253E+02   0.108E-01 0.404E-01 0.385E-01
   0.230E+03 -.118E+03 -.131E+03   -.267E+03 0.143E+03 0.132E+03   0.300E+02 -.194E+02 -.333E-01   -.202E-01 0.616E-02 -.736E-03
   -.173E+03 -.951E+02 0.294E+03   0.211E+03 0.107E+03 -.320E+03   -.304E+02 -.100E+02 0.196E+02   0.450E-03 0.240E-02 0.497E-02
   -.528E+01 -.585E+00 -.286E+02   0.564E+01 0.330E+00 0.300E+02   -.198E+00 0.122E+00 -.105E+01   -.268E-02 -.609E-03 0.328E-02
   0.215E+02 -.287E+02 -.112E+03   -.215E+02 0.297E+02 0.118E+03   0.245E+00 -.766E+00 -.401E+01   0.873E-02 -.130E-02 0.566E-02
   0.389E+00 -.734E+02 -.351E+03   0.268E+02 0.911E+02 0.382E+03   -.224E+02 -.139E+02 -.236E+02   0.281E-01 0.182E-01 0.826E-02
   0.768E+01 0.799E+02 -.888E+02   -.329E+02 -.755E+02 0.102E+03   0.191E+02 -.415E+01 -.105E+02   0.159E-01 0.605E-02 -.602E-03
   -.209E+02 0.132E+03 0.144E+03   0.246E+02 -.175E+03 -.158E+03   -.244E+01 0.340E+02 0.978E+01   0.235E-02 -.334E-01 0.153E-01
   0.511E+00 0.128E+03 0.160E+03   -.316E+01 -.171E+03 -.174E+03   0.163E+01 0.339E+02 0.986E+01   0.154E-01 -.191E-01 0.181E-01
   0.451E+02 -.716E+02 -.382E+03   -.780E+02 0.899E+02 0.407E+03   0.269E+02 -.144E+02 -.179E+02   -.123E-01 -.254E-01 -.142E-01
   -.102E+01 0.911E+02 -.126E+03   0.240E+02 -.875E+02 0.145E+03   -.175E+02 -.356E+01 -.142E+02   0.548E-01 0.264E-01 0.218E-01
   0.621E+02 0.217E+02 0.827E+02   -.680E+02 -.258E+02 -.828E+02   0.393E+01 0.280E+01 -.352E+00   0.141E-01 0.271E-01 0.105E-01
   0.175E+02 0.464E+02 0.172E+03   -.201E+02 -.484E+02 -.177E+03   0.199E+01 0.161E+01 0.400E+01   -.668E-01 0.193E-01 0.584E-02
   -.226E+03 -.124E+03 -.143E+03   0.264E+03 0.148E+03 0.145E+03   -.302E+02 -.185E+02 -.965E+00   -.690E-02 -.184E-01 0.107E-01
   0.177E+03 -.804E+02 0.228E+03   -.217E+03 0.922E+02 -.251E+03   0.315E+02 -.971E+01 0.166E+02   -.268E-03 -.238E-01 0.112E-01
   0.156E+02 0.196E+03 0.493E+03   -.103E+02 -.232E+03 -.524E+03   -.439E+01 0.286E+02 0.230E+02   0.437E-01 -.477E-02 -.412E-02
   0.734E+01 0.282E+03 0.413E+03   -.962E+01 -.325E+03 -.428E+03   0.919E+00 0.340E+02 0.108E+02   -.346E-02 -.116E-01 -.696E-02
   0.233E+03 -.363E+02 0.155E+03   -.273E+03 0.591E+02 -.163E+03   0.320E+02 -.176E+02 0.634E+01   0.245E-01 -.179E-02 0.625E-02
   -.170E+03 -.188E+03 -.338E+03   0.207E+03 0.209E+03 0.357E+03   -.295E+02 -.163E+02 -.137E+02   0.115E-02 -.346E-01 0.424E-02
   0.899E+00 -.413E+02 -.145E+02   -.779E+00 0.430E+02 0.114E+02   -.155E+00 -.111E+01 0.212E+01   -.181E-02 -.249E-01 0.873E-02
   -.210E+02 -.317E+02 -.218E+03   0.204E+02 0.343E+02 0.225E+03   0.171E+00 -.206E+01 -.539E+01   -.646E-02 -.236E-01 -.120E-02
   -.269E+03 -.785E+02 -.107E+03   0.308E+03 0.102E+03 0.108E+03   -.309E+02 -.183E+02 -.124E+01   -.334E-01 -.229E-01 -.440E-02
   0.213E+03 -.175E+03 0.350E+03   -.253E+03 0.195E+03 -.361E+03   0.309E+02 -.166E+02 0.657E+01   -.305E-01 0.208E-01 0.621E-02
   0.136E+01 0.176E+03 -.446E+03   0.437E+01 -.212E+03 0.476E+03   -.422E+01 0.287E+02 -.228E+02   -.979E-03 0.321E-02 -.798E-03
   -.421E+02 0.136E+03 -.501E+03   0.404E+02 -.169E+03 0.535E+03   0.119E+01 0.272E+02 -.262E+02   -.181E-01 -.610E-02 -.586E-02
   0.227E+03 -.153E+03 0.272E+03   -.258E+03 0.182E+03 -.288E+03   0.245E+02 -.225E+02 0.121E+02   0.680E-02 0.223E-01 0.997E-02
   -.200E+03 -.869E+02 -.217E+03   0.241E+03 0.979E+02 0.235E+03   -.321E+02 -.970E+01 -.141E+02   -.617E-01 -.356E-02 -.120E-01
   -.582E+02 0.250E+02 0.497E+02   0.624E+02 -.284E+02 -.532E+02   -.267E+01 0.215E+01 0.210E+01   -.144E-01 -.119E-01 -.579E-02
   0.526E+02 -.136E+03 -.113E+04   -.545E+02 0.158E+03 0.116E+04   0.143E+01 -.192E+02 -.253E+02   0.123E+00 0.156E-01 -.592E-01
   -.749E+02 -.171E+03 0.161E+03   0.872E+02 0.199E+03 -.193E+03   -.776E+01 -.175E+02 0.204E+02   0.264E-02 -.642E-03 -.514E-02
   0.621E+02 0.140E+03 -.847E+02   -.851E+02 -.192E+03 0.145E+03   0.185E+02 0.419E+02 -.487E+02   0.697E-02 0.434E-02 -.108E-01
 -----------------------------------------------------------------------------------------------
   -.774E+01 -.283E+02 0.329E+02   0.242E-12 -.199E-12 0.796E-12   0.763E+01 0.283E+02 -.330E+02   0.110E+00 0.140E-01 0.187E+00


 POSITION                                       TOTAL-FORCE (eV/Angst)
 -----------------------------------------------------------------------------------
     -0.01346      2.22929      5.89119        -0.023142      3.493465     -1.190086
      1.09855      4.14684      5.98156        -3.914251      0.379708     -0.004254
     -1.14740      4.10586      5.90230         3.813132      0.400163      0.409209
      5.17561      0.59516      6.96079        -0.064991     -0.428605      0.718826
      3.13925      4.14572      5.70302        -0.283512      0.938162     -0.568949
      1.06731      0.53588      6.19112        -0.019899     -0.346195     -0.287072
     -3.23407      7.47679      6.66659         0.730503      2.755271      1.701228
     -2.00208      9.31971      6.90014        -2.642882     -2.435533      0.407089
     -4.21457      9.40563      6.85862         2.846391     -2.354484      0.683024
      2.16526      5.69403      6.90963        -0.858753     -0.578014      0.385149
      0.03547      9.24088      6.73502         0.113907     -0.528365     -0.802431
     -2.29426      5.69109      6.62299         0.732001     -0.921555      1.193098
      6.28791      2.24068      6.51544         0.178030      2.738628     -1.433936
      7.29350      3.96773      5.53234        -3.072493     -1.331826     -0.713927
      5.14829      4.04574      6.01266         3.174554     -2.200063     -0.515251
     11.37972      0.38919      6.35338        -0.105394     -0.533528     -0.318141
      9.31259      3.90699      5.45131         0.752993      0.662284     -0.856985
      7.35078      0.58337      7.04635         0.296629     -0.190088      0.642885
      3.20992      7.38042      7.30578        -1.262970      3.315231      1.663681
      4.25119      9.30881      7.19281        -3.256356     -2.268009      1.673744
      2.03334      9.28936      7.17184         3.015120     -2.548146      1.159143
      8.18441      5.76313      5.81080         1.150277      1.038625     -0.239439
      6.27316      9.32736      7.35190         0.003824      0.043765      0.992233
      4.28565      5.73146      6.74704        -0.804645      0.291844      0.342187
     -0.01292      3.50225      5.87181         0.299346      0.565735     -0.667874
      1.04973      1.66604      5.81678         7.861810      4.634758     -3.787856
      4.17831     -0.03871      7.18305        -7.707294      4.408688      4.797528
      4.18031      3.62212      5.43114         1.216471     -7.371467     -7.291727
      2.04758      3.73791      5.39559        -0.330860     -6.065792     -7.968505
      5.19905      1.77345      6.79147        -7.759853      6.438598      1.170338
     -4.17849     10.37442      6.16379         7.749911      2.311389     -6.514262
      0.01514      0.01925      6.65229         0.157655     -0.125036      0.426519
     -3.12460      8.71679      6.88743         0.235549      0.200308      1.400223
     -2.35012      6.76887      7.12406         4.854521      3.744364      7.838875
      1.09805      5.11253      6.76986        -6.059164      0.310157      2.795001
      1.09008      8.65820      6.74519         1.222957     -8.837200     -3.781133
     -1.01655      8.67205      6.60547        -1.014135     -8.807279     -3.799796
      2.18041      6.73531      7.48918        -6.026168      3.897600      6.822721
     -1.24698      5.06637      6.68299         5.492519      0.066073      4.379567
      9.22492      5.05059      6.01976        -1.917289     -1.249494     -0.369545
      6.25804      3.36053      5.92971        -0.625717     -0.375752     -1.611485
      7.35947      1.75711      6.81963         7.957987      6.192331      0.762359
      4.16245     10.23868      6.44989        -8.087248      2.068199     -6.037843
     -2.03180      3.66210      5.24776         0.883296     -6.403888     -7.964891
      8.29024      3.33265      5.25756        -1.370411     -9.546219     -4.343766
     11.36832      1.52437      6.00819        -8.150149      5.169768     -1.967477
      8.30081     -0.05962      7.41692         7.041830      4.491948      5.590478
      6.26576     -0.04579      6.86110        -0.042818      0.543353     -0.921991
      3.14175      8.64554      7.34561        -0.359846      0.533871      1.916316
      4.26857      6.88905      7.05220         8.562781      4.751276      0.204372
      7.21106      5.19019      5.47650        -9.074356      3.246841     -4.420159
     -5.11637      8.97562      7.54107         1.521935     -7.166218      7.119839
      5.22610      8.90171      7.77560        -0.499702     -5.782905      8.423527
     -4.16619      7.12793      6.00041        -6.829876      5.935650     -4.505730
      5.25639      5.05644      6.66551         9.104825      1.310113      4.815459
      3.17404      5.19494      6.44060         1.472300     -1.200131     -1.378835
     -0.12055      6.19125      7.66415        -0.279127      2.715476      3.837426
     -0.12055      6.19125     13.04615         4.557654     10.298407    -11.992052
     -0.40946      5.53799      0.30696        -4.557407    -10.296254     11.983352
 -----------------------------------------------------------------------------------
    total drift:                                0.000428      0.002336      0.020970


--------------------------------------------------------------------------------------------------------



  FREE ENERGIE OF THE ION-ELECTRON SYSTEM (eV)
  ---------------------------------------------------
  free  energy   TOTEN  =      -446.38568236 eV

  energy  without entropy=     -446.38568236  energy(sigma->0) =     -446.38568236



--------------------------------------------------------------------------------------------------------


    POTLOK:  cpu time    0.0744: real time    0.0744


--------------------------------------------------------------------------------------------------------


     LOOP+:  cpu time  154.0368: real time  154.3509
    4ORBIT:  cpu time    0.0000: real time    0.0000



 total charge     

# of ion       s       p       d       tot
------------------------------------------
    1        0.966   2.117   0.000   3.083
    2        0.949   2.094   0.000   3.043
    3        0.953   2.105   0.000   3.058
    4        0.980   2.133   0.000   3.113
    5        0.967   2.125   0.000   3.092
    6        0.985   2.146   0.000   3.131
    7        0.966   2.110   0.000   3.077
    8        0.964   2.103   0.000   3.067
    9        0.971   2.106   0.000   3.077
   10        0.988   2.174   0.000   3.163
   11        0.982   2.138   0.000   3.119
   12        0.995   2.187   0.000   3.182
   13        0.963   2.103   0.000   3.066
   14        0.959   2.104   0.000   3.063
   15        0.956   2.104   0.000   3.060
   16        0.987   2.152   0.000   3.139
   17        0.970   2.138   0.000   3.108
   18        0.975   2.130   0.000   3.106
   19        0.964   2.106   0.000   3.070
   20        0.967   2.101   0.000   3.068
   21        0.959   2.093   0.000   3.052
   22        0.976   2.134   0.000   3.110
   23        0.976   2.119   0.000   3.095
   24        0.982   2.153   0.000   3.136
   25        1.285   3.053   0.000   4.338
   26        1.329   2.958   0.000   4.287
   27        1.326   2.952   0.000   4.278
   28        1.326   2.920   0.000   4.246
   29        1.328   2.945   0.000   4.273
   30        1.324   2.948   0.000   4.271
   31        1.336   2.948   0.000   4.284
   32        1.311   3.095   0.000   4.405
   33        1.298   3.071   0.000   4.369
   34        1.324   2.963   0.000   4.287
   35        1.302   2.975   0.000   4.277
   36        1.321   2.944   0.000   4.265
   37        1.320   2.943   0.000   4.263
   38        1.319   2.952   0.000   4.272
   39        1.304   2.981   0.000   4.285
   40        1.312   3.112   0.000   4.423
   41        1.293   3.052   0.000   4.346
   42        1.321   2.935   0.000   4.256
   43        1.334   2.955   0.000   4.289
   44        1.328   2.945   0.000   4.272
   45        1.326   2.922   0.000   4.247
   46        1.330   2.964   0.000   4.294
   47        1.325   2.942   0.000   4.267
   48        1.307   3.098   0.000   4.405
   49        1.290   3.035   0.000   4.325
   50        1.330   2.957   0.000   4.287
   51        1.325   2.943   0.000   4.269
   52        1.323   2.930   0.000   4.252
   53        1.324   2.934   0.000   4.258
   54        1.321   2.939   0.000   4.260
   55        1.334   2.940   0.000   4.274
   56        1.309   3.103   0.000   4.412
   57        1.312   0.996  10.157  12.465
   58        1.079   1.663   0.000   2.742
   59        1.671   3.700   0.000   5.372
--------------------------------------------------
tot         69.545 152.689  10.157 232.390



 magnetization (x)

# of ion       s       p       d       tot
------------------------------------------
    1        0.000   0.000   0.000   0.000
    2        0.000   0.000   0.000   0.000
    3       -0.000  -0.000   0.000  -0.000
    4       -0.000  -0.000   0.000  -0.000
    5        0.000   0.000   0.000   0.000
    6       -0.000  -0.000   0.000  -0.000
    7        0.000  -0.000   0.000  -0.000
    8       -0.000  -0.000   0.000  -0.000
    9        0.000  -0.000   0.000  -0.000
   10        0.000  -0.000   0.000  -0.000
   11       -0.000  -0.000   0.000  -0.000
   12        0.000   0.000   0.000   0.000
   13        0.000  -0.000   0.000  -0.000
   14       -0.000  -0.000   0.000  -0.000
   15        0.000   0.000   0.000   0.000
   16        0.000   0.000   0.000   0.000
   17       -0.000  -0.000   0.000  -0.000
   18       -0.000  -0.000   0.000  -0.000
   19        0.000   0.000   0.000   0.000
   20       -0.000  -0.000   0.000  -0.000
   21        0.000   0.000   0.000   0.000
   22       -0.000  -0.000   0.000  -0.000
   23        0.000  -0.000   0.000  -0.000
   24        0.000   0.000   0.000   0.000
   25        0.000  -0.000   0.000  -0.000
   26        0.000  -0.000   0.000   0.000
   27       -0.000   0.000   0.000   0.000
   28        0.000  -0.000   0.000  -0.000
   29        0.000  -0.000   0.000  -0.000
   30        0.000  -0.000   0.000  -0.000
   31        0.000   0.000   0.000   0.000
   32       -0.000   0.000   0.000   0.000
   33       -0.000  -0.000   0.000  -0.000
   34       -0.000   0.000   0.000   0.000
   35        0.000   0.000   0.000   0.000
   36        0.000   0.000   0.000   0.000
   37       -0.000   0.000   0.000   0.000
   38        0.000   0.000   0.000   0.000
   39        0.000   0.000   0.000   0.000
   40        0.000  -0.000   0.000  -0.000
   41       -0.000  -0.000   0.000  -0.000
   42        0.000   0.000   0.000   0.000
   43        0.000  -0.000   0.000   0.000
   44        0.000  -0.000   0.000  -0.000
   45       -0.000  -0.000   0.000  -0.000
   46        0.000   0.000   0.000   0.000
   47       -0.000   0.000   0.000   0.000
   48       -0.000  -0.000   0.000  -0.000
   49        0.000  -0.000   0.000  -0.000
   50        0.000  -0.000   0.000  -0.000
   51       -0.000  -0.000   0.000  -0.000
   52        0.000   0.000   0.000   0.000
   53        0.000   0.000   0.000   0.000
   54        0.000  -0.000   0.000  -0.000
   55        0.000  -0.000   0.000   0.000
   56        0.000   0.000   0.000   0.000
   57       -0.000  -0.000   0.000  -0.000
   58        0.000   0.000   0.000   0.000
   59        0.000  -0.000   0.000  -0.000
--------------------------------------------------
tot          0.000  -0.000   0.000   0.000

 BZINTS: Fermi energy: -0.650413;280.000000 electrons
         Band energy:***********;  BLOECHL correction:  0.000000

 total amount of memory used by VASP MPI-rank0    75962. kBytes
=======================================================================

   base      :      30000. kBytes
   nonl-proj :      13922. kBytes
   fftplans  :       2626. kBytes
   grid      :       7821. kBytes
   one-center:        155. kBytes
   wavefun   :      21438. kBytes

  
  
 General timing and accounting informations for this job:
 ========================================================
  
                  Total CPU time used (sec):      164.847
                            User time (sec):      164.024
                          System time (sec):        0.823
                         Elapsed time (sec):      165.954
  
                   Maximum memory used (kb):      160068.
                   Average memory used (kb):           0.
  
                          Minor page faults:        41841
                          Major page faults:            6
                 Voluntary context switches:          879
