       N       E                     dE             d eps       ncg     rms          rms(c)
DAV:   1     0.312950178105E+04    0.31295E+04   -0.12698E+05  4248   0.134E+03
DAV:   2     0.488856491385E+02   -0.30806E+04   -0.29787E+04  4320   0.392E+02
DAV:   3    -0.336254787821E+03   -0.38514E+03   -0.38067E+03  4008   0.157E+02
DAV:   4    -0.349131165420E+03   -0.12876E+02   -0.12447E+02  4048   0.376E+01
DAV:   5    -0.349581081083E+03   -0.44992E+00   -0.44548E+00  4232   0.567E+00    0.755E+01
DAV:   6    -0.253773275756E+03    0.95808E+02   -0.10278E+02  5160   0.690E+01    0.531E+01
DAV:   7    -0.208549255960E+03    0.45224E+02   -0.15582E+02  4320   0.440E+01    0.288E+01
DAV:   8    -0.208125507877E+03    0.42375E+00   -0.23097E+01  4632   0.243E+01    0.194E+01
DAV:   9    -0.207421988998E+03    0.70352E+00   -0.67928E+00  4544   0.111E+01    0.703E+00
DAV:  10    -0.207375683155E+03    0.46306E-01   -0.16612E+00  4128   0.591E+00    0.252E+00
DAV:  11    -0.207317741738E+03    0.57941E-01   -0.30882E-01  4240   0.227E+00    0.162E+00
DAV:  12    -0.207289248689E+03    0.28493E-01   -0.14259E-01  5048   0.224E+00    0.612E-01
DAV:  13    -0.207288707138E+03    0.54155E-03   -0.20824E-02  4408   0.584E-01    0.286E-01
DAV:  14    -0.207288441491E+03    0.26565E-03   -0.38577E-03  4984   0.341E-01    0.153E-01
DAV:  15    -0.207288451091E+03   -0.96005E-05   -0.90388E-04  3992   0.149E-01
   1 F= -.21275991E+03 E0= -.21275991E+03  d E =0.000000E+00  mag=    -0.0000
