 vasp.5.4.4.18Apr17-6-g9f103f2a35 (build Jan 14 2022 15:04:31) complex          
  
 executed on             LinuxIFC date 2023.01.27  22:54:36
 running on   48 total cores
 distrk:  each k-point on   48 cores,    1 groups
 distr:  one band on NCORES_PER_BAND=  12 cores,    4 groups


--------------------------------------------------------------------------------------------------------


 INCAR:
 POTCAR:    PAW_PBE C 08Apr2002                   
 POTCAR:    PAW_PBE N 08Apr2002                   
 POTCAR:    PAW_PBE C 08Apr2002                   
 POTCAR:    PAW_PBE Cr_pv 02Aug2007               
 POTCAR:    PAW_PBE C 08Apr2002                   
 POTCAR:    PAW_PBE O 08Apr2002                   
 POTCAR:    PAW_PBE C 08Apr2002                   
   SHA256 =  253f7b50bb8d59471dbedb8285d89021f4a42ed1a2c5d38a03a736e69125dd95 C/
   COPYR  = (c) Copyright 08Apr2002 Georg Kresse                                
   COPYR  = This file is part of the software VASP. Any use, copying, and all ot
   COPYR  = If you do not have a valid VASP license, you may not use, copy or di
   VRHFIN =C: s2p2                                                              
   LEXCH  = PE                                                                  
   EATOM  =   147.1560 eV,   10.8157 Ry                                         
                                                                                
   TITEL  = PAW_PBE C 08Apr2002                                                 
   LULTRA =        F    use ultrasoft PP ?                                      
   IUNSCR =        1    unscreen: 0-lin 1-nonlin 2-no                           
   RPACOR =    1.200    partial core radius                                     
   POMASS =   12.011; ZVAL   =    4.000    mass and valenz                      
   RCORE  =    1.500    outmost cutoff radius                                   
   RWIGS  =    1.630; RWIGS  =    0.863    wigner-seitz radius (au A)           
   ENMAX  =  400.000; ENMIN  =  300.000 eV                                      
   ICORE  =        2    local potential                                         
   LCOR   =        T    correct aug charges                                     
   LPAW   =        T    paw PP                                                  
   EAUG   =  644.873                                                            
   DEXC   =    0.000                                                            
   RMAX   =    1.529    core radius for proj-oper                               
   RAUG   =    1.300    factor for augmentation sphere                          
   RDEP   =    1.501    radius for radial grids                                 
   RDEPT  =    1.300    core radius for aug-charge                              
                                                                                
   Atomic configuration                                                         
    4 entries                                                                   
     n  l   j            E        occ.                                          
     1  0  0.50      -273.3789   2.0000                                         
     2  0  0.50       -13.7508   2.0000                                         
     2  1  0.50        -5.2854   2.0000                                         
     3  2  1.50        -5.4423   0.0000                                         
   Description                                                                  
     l       E           TYP  RCUT    TYP  RCUT                                 
     0    -13.7508458     23  1.200                                             
     0     -8.2022199     23  1.200                                             
     1     -5.2854383     23  1.500                                             
     1     34.0145650     23  1.500                                             
     2     -5.4423304      7  1.500                                             
  local pseudopotential read in
  partial core-charges read in
  partial kinetic energy density read in
  atomic valenz-charges read in
  non local Contribution for L=           0  read in
    real space projection operators read in
  non local Contribution for L=           0  read in
    real space projection operators read in
  non local Contribution for L=           1  read in
    real space projection operators read in
  non local Contribution for L=           1  read in
    real space projection operators read in
    PAW grid and wavefunctions read in
 
   number of l-projection  operators is LMAX  =           4
   number of lm-projection operators is LMMAX =           8
 
 POTCAR:    PAW_PBE N 08Apr2002                   
   SHA256 =  e053789ff3a61a86a1b75d8a110fcc91f86041011e7b0817c7c99e4e8a6349d7 N/
   COPYR  = (c) Copyright 08Apr2002 Georg Kresse                                
   COPYR  = This file is part of the software VASP. Any use, copying, and all ot
   COPYR  = If you do not have a valid VASP license, you may not use, copy or di
   VRHFIN =N: s2p3                                                              
   LEXCH  = PE                                                                  
   EATOM  =   264.5486 eV,   19.4438 Ry                                         
                                                                                
   TITEL  = PAW_PBE N 08Apr2002                                                 
   LULTRA =        F    use ultrasoft PP ?                                      
   IUNSCR =        1    unscreen: 0-lin 1-nonlin 2-no                           
   RPACOR =    1.200    partial core radius                                     
   POMASS =   14.001; ZVAL   =    5.000    mass and valenz                      
   RCORE  =    1.500    outmost cutoff radius                                   
   RWIGS  =    1.400; RWIGS  =    0.741    wigner-seitz radius (au A)           
   ENMAX  =  400.000; ENMIN  =  300.000 eV                                      
   ICORE  =        2    local potential                                         
   LCOR   =        T    correct aug charges                                     
   LPAW   =        T    paw PP                                                  
   EAUG   =  627.112                                                            
   DEXC   =    0.000                                                            
   RMAX   =    1.529    core radius for proj-oper                               
   RAUG   =    1.300    factor for augmentation sphere                          
   RDEP   =    1.514    radius for radial grids                                 
   RDEPT  =    1.338    core radius for aug-charge                              
                                                                                
   Atomic configuration                                                         
    4 entries                                                                   
     n  l   j            E        occ.                                          
     1  0  0.50      -384.7179   2.0000                                         
     2  0  0.50       -18.5828   2.0000                                         
     2  1  0.50        -7.0898   3.0000                                         
     3  2  1.50        -6.8029   0.0000                                         
   Description                                                                  
     l       E           TYP  RCUT    TYP  RCUT                                 
     0    -18.5828119     23  1.200                                             
     0    -13.5018863     23  1.200                                             
     1     -7.0897853     23  1.500                                             
     1      9.5240782     23  1.500                                             
     2     -6.8029130      7  1.500                                             
  local pseudopotential read in
  partial core-charges read in
  partial kinetic energy density read in
  atomic valenz-charges read in
  non local Contribution for L=           0  read in
    real space projection operators read in
  non local Contribution for L=           0  read in
    real space projection operators read in
  non local Contribution for L=           1  read in
    real space projection operators read in
  non local Contribution for L=           1  read in
    real space projection operators read in
    PAW grid and wavefunctions read in
 
   number of l-projection  operators is LMAX  =           4
   number of lm-projection operators is LMMAX =           8
 
 POTCAR:    PAW_PBE C 08Apr2002                   
   SHA256 =  253f7b50bb8d59471dbedb8285d89021f4a42ed1a2c5d38a03a736e69125dd95 C/
   COPYR  = (c) Copyright 08Apr2002 Georg Kresse                                
   COPYR  = This file is part of the software VASP. Any use, copying, and all ot
   COPYR  = If you do not have a valid VASP license, you may not use, copy or di
   VRHFIN =C: s2p2                                                              
   LEXCH  = PE                                                                  
   EATOM  =   147.1560 eV,   10.8157 Ry                                         
                                                                                
   TITEL  = PAW_PBE C 08Apr2002                                                 
   LULTRA =        F    use ultrasoft PP ?                                      
   IUNSCR =        1    unscreen: 0-lin 1-nonlin 2-no                           
   RPACOR =    1.200    partial core radius                                     
   POMASS =   12.011; ZVAL   =    4.000    mass and valenz                      
   RCORE  =    1.500    outmost cutoff radius                                   
   RWIGS  =    1.630; RWIGS  =    0.863    wigner-seitz radius (au A)           
   ENMAX  =  400.000; ENMIN  =  300.000 eV                                      
   ICORE  =        2    local potential                                         
   LCOR   =        T    correct aug charges                                     
   LPAW   =        T    paw PP                                                  
   EAUG   =  644.873                                                            
   DEXC   =    0.000                                                            
   RMAX   =    1.529    core radius for proj-oper                               
   RAUG   =    1.300    factor for augmentation sphere                          
   RDEP   =    1.501    radius for radial grids                                 
   RDEPT  =    1.300    core radius for aug-charge                              
                                                                                
   Atomic configuration                                                         
    4 entries                                                                   
     n  l   j            E        occ.                                          
     1  0  0.50      -273.3789   2.0000                                         
     2  0  0.50       -13.7508   2.0000                                         
     2  1  0.50        -5.2854   2.0000                                         
     3  2  1.50        -5.4423   0.0000                                         
   Description                                                                  
     l       E           TYP  RCUT    TYP  RCUT                                 
     0    -13.7508458     23  1.200                                             
     0     -8.2022199     23  1.200                                             
     1     -5.2854383     23  1.500                                             
     1     34.0145650     23  1.500                                             
     2     -5.4423304      7  1.500                                             
  local pseudopotential read in
  partial core-charges read in
  partial kinetic energy density read in
  atomic valenz-charges read in
  non local Contribution for L=           0  read in
    real space projection operators read in
  non local Contribution for L=           0  read in
    real space projection operators read in
  non local Contribution for L=           1  read in
    real space projection operators read in
  non local Contribution for L=           1  read in
    real space projection operators read in
    PAW grid and wavefunctions read in
 
   number of l-projection  operators is LMAX  =           4
   number of lm-projection operators is LMMAX =           8
 
 POTCAR:    PAW_PBE Cr_pv 02Aug2007               
   SHA256 =  c9a7df34d3cdbacf1090e328ef39c0b420964e11c23f63548d1ac9dd218cdba0 Cr
   COPYR  = (c) Copyright 02Aug2007 Georg Kresse                                
   COPYR  = This file is part of the software VASP. Any use, copying, and all ot
   COPYR  = If you do not have a valid VASP license, you may not use, copy or di
   VRHFIN =Cr : p6d5s1                                                          
   LEXCH  = PE                                                                  
   EATOM  =  1647.9177 eV,  121.1185 Ry                                         
                                                                                
   TITEL  = PAW_PBE Cr_pv 02Aug2007                                             
   LULTRA =        F    use ultrasoft PP ?                                      
   IUNSCR =        1    unscreen: 0-lin 1-nonlin 2-no                           
   RPACOR =    2.080    partial core radius                                     
   POMASS =   51.996; ZVAL   =   12.000    mass and valenz                      
   RCORE  =    2.300    outmost cutoff radius                                   
   RWIGS  =    2.500; RWIGS  =    1.323    wigner-seitz radius (au A)           
   ENMAX  =  265.681; ENMIN  =  199.261 eV                                      
   ICORE  =        3    local potential                                         
   LCOR   =        T    correct aug charges                                     
   LPAW   =        T    paw PP                                                  
   EAUG   =  519.424                                                            
   DEXC   =    0.000                                                            
   RMAX   =    2.356    core radius for proj-oper                               
   RAUG   =    1.300    factor for augmentation sphere                          
   RDEP   =    2.447    radius for radial grids                                 
   RDEPT  =    1.882    core radius for aug-charge                              
                                                                                
   Atomic configuration                                                         
    8 entries                                                                   
     n  l   j            E        occ.                                          
     1  0  0.50     -5880.4963   2.0000                                         
     2  0  0.50      -667.0865   2.0000                                         
     2  1  1.50      -560.6250   6.0000                                         
     3  0  0.50       -73.9860   2.0000                                         
     3  1  1.50       -45.4378   6.0000                                         
     3  2  2.50        -2.9137   5.0000                                         
     4  0  0.50        -4.0071   1.0000                                         
     4  3  2.50        -1.3606   0.0000                                         
   Description                                                                  
     l       E           TYP  RCUT    TYP  RCUT                                 
     1    -45.4377911     23  2.000                                             
     1      1.3605826     23  2.000                                             
     2     -2.9136672     23  2.300                                             
     2     -4.2742498     23  2.300                                             
     0     -4.0071320     23  2.300                                             
     0      9.4498803     23  2.300                                             
     3      2.7211652     23  2.300                                             
  local pseudopotential read in
  partial core-charges read in
  partial kinetic energy density read in
  atomic valenz-charges read in
  non local Contribution for L=           1  read in
    real space projection operators read in
  non local Contribution for L=           1  read in
    real space projection operators read in
  non local Contribution for L=           2  read in
    real space projection operators read in
  non local Contribution for L=           2  read in
    real space projection operators read in
  non local Contribution for L=           0  read in
    real space projection operators read in
  non local Contribution for L=           0  read in
    real space projection operators read in
    PAW grid and wavefunctions read in
 
   number of l-projection  operators is LMAX  =           6
   number of lm-projection operators is LMMAX =          18
 
 POTCAR:    PAW_PBE C 08Apr2002                   
   SHA256 =  253f7b50bb8d59471dbedb8285d89021f4a42ed1a2c5d38a03a736e69125dd95 C/
   COPYR  = (c) Copyright 08Apr2002 Georg Kresse                                
   COPYR  = This file is part of the software VASP. Any use, copying, and all ot
   COPYR  = If you do not have a valid VASP license, you may not use, copy or di
   VRHFIN =C: s2p2                                                              
   LEXCH  = PE                                                                  
   EATOM  =   147.1560 eV,   10.8157 Ry                                         
                                                                                
   TITEL  = PAW_PBE C 08Apr2002                                                 
   LULTRA =        F    use ultrasoft PP ?                                      
   IUNSCR =        1    unscreen: 0-lin 1-nonlin 2-no                           
   RPACOR =    1.200    partial core radius                                     
   POMASS =   12.011; ZVAL   =    4.000    mass and valenz                      
   RCORE  =    1.500    outmost cutoff radius                                   
   RWIGS  =    1.630; RWIGS  =    0.863    wigner-seitz radius (au A)           
   ENMAX  =  400.000; ENMIN  =  300.000 eV                                      
   ICORE  =        2    local potential                                         
   LCOR   =        T    correct aug charges                                     
   LPAW   =        T    paw PP                                                  
   EAUG   =  644.873                                                            
   DEXC   =    0.000                                                            
   RMAX   =    1.529    core radius for proj-oper                               
   RAUG   =    1.300    factor for augmentation sphere                          
   RDEP   =    1.501    radius for radial grids                                 
   RDEPT  =    1.300    core radius for aug-charge                              
                                                                                
   Atomic configuration                                                         
    4 entries                                                                   
     n  l   j            E        occ.                                          
     1  0  0.50      -273.3789   2.0000                                         
     2  0  0.50       -13.7508   2.0000                                         
     2  1  0.50        -5.2854   2.0000                                         
     3  2  1.50        -5.4423   0.0000                                         
   Description                                                                  
     l       E           TYP  RCUT    TYP  RCUT                                 
     0    -13.7508458     23  1.200                                             
     0     -8.2022199     23  1.200                                             
     1     -5.2854383     23  1.500                                             
     1     34.0145650     23  1.500                                             
     2     -5.4423304      7  1.500                                             
  local pseudopotential read in
  partial core-charges read in
  partial kinetic energy density read in
  atomic valenz-charges read in
  non local Contribution for L=           0  read in
    real space projection operators read in
  non local Contribution for L=           0  read in
    real space projection operators read in
  non local Contribution for L=           1  read in
    real space projection operators read in
  non local Contribution for L=           1  read in
    real space projection operators read in
    PAW grid and wavefunctions read in
 
   number of l-projection  operators is LMAX  =           4
   number of lm-projection operators is LMMAX =           8
 
 POTCAR:    PAW_PBE O 08Apr2002                   
   SHA256 =  818f92134a0a090dccd8ba1447fa70422a3b330e708bb4f08108d8ae51209ddf O/
   COPYR  = (c) Copyright 08Apr2002 Georg Kresse                                
   COPYR  = This file is part of the software VASP. Any use, copying, and all ot
   COPYR  = If you do not have a valid VASP license, you may not use, copy or di
   VRHFIN =O: s2p4                                                              
   LEXCH  = PE                                                                  
   EATOM  =   432.3788 eV,   31.7789 Ry                                         
                                                                                
   TITEL  = PAW_PBE O 08Apr2002                                                 
   LULTRA =        F    use ultrasoft PP ?                                      
   IUNSCR =        1    unscreen: 0-lin 1-nonlin 2-no                           
   RPACOR =    1.200    partial core radius                                     
   POMASS =   16.000; ZVAL   =    6.000    mass and valenz                      
   RCORE  =    1.520    outmost cutoff radius                                   
   RWIGS  =    1.550; RWIGS  =    0.820    wigner-seitz radius (au A)           
   ENMAX  =  400.000; ENMIN  =  300.000 eV                                      
   ICORE  =        2    local potential                                         
   LCOR   =        T    correct aug charges                                     
   LPAW   =        T    paw PP                                                  
   EAUG   =  605.392                                                            
   DEXC   =    0.000                                                            
   RMAX   =    1.553    core radius for proj-oper                               
   RAUG   =    1.300    factor for augmentation sphere                          
   RDEP   =    1.550    radius for radial grids                                 
   RDEPT  =    1.329    core radius for aug-charge                              
                                                                                
   Atomic configuration                                                         
    4 entries                                                                   
     n  l   j            E        occ.                                          
     1  0  0.50      -514.6923   2.0000                                         
     2  0  0.50       -23.9615   2.0000                                         
     2  1  0.50        -9.0305   4.0000                                         
     3  2  1.50        -9.5241   0.0000                                         
   Description                                                                  
     l       E           TYP  RCUT    TYP  RCUT                                 
     0    -23.9615318     23  1.200                                             
     0     -9.5240782     23  1.200                                             
     1     -9.0304911     23  1.520                                             
     1      8.1634956     23  1.520                                             
     2     -9.5240782      7  1.500                                             
  local pseudopotential read in
  partial core-charges read in
  partial kinetic energy density read in
  kinetic energy density of atom read in
  atomic valenz-charges read in
  non local Contribution for L=           0  read in
    real space projection operators read in
  non local Contribution for L=           0  read in
    real space projection operators read in
  non local Contribution for L=           1  read in
    real space projection operators read in
  non local Contribution for L=           1  read in
    real space projection operators read in
    PAW grid and wavefunctions read in
 
   number of l-projection  operators is LMAX  =           4
   number of lm-projection operators is LMMAX =           8
 

 ----------------------------------------------------------------------------- 
|                                                                             |
|  ADVICE TO THIS USER RUNNING 'VASP/VAMP'   (HEAR YOUR MASTER'S VOICE ...):  |
|                                                                             |
|      You have a (more or less) 'large supercell' and for larger cells       |
|      it might be more efficient to use real space projection opertators     |
|      So try LREAL= Auto  in the INCAR   file.                               |
|      Mind:          For very  accurate calculation you might also keep the  |
|      reciprocal projection scheme          (i.e. LREAL=.FALSE.)             |
|                                                                             |
 ----------------------------------------------------------------------------- 

  PAW_PBE C 08Apr2002                   :
 energy of atom  1       EATOM= -147.1560
 kinetic energy error for atom=    0.0132 (will be added to EATOM!!)
  PAW_PBE N 08Apr2002                   :
 energy of atom  2       EATOM= -264.5486
 kinetic energy error for atom=    0.0298 (will be added to EATOM!!)
  PAW_PBE C 08Apr2002                   :
 energy of atom  3       EATOM= -147.1560
 kinetic energy error for atom=    0.0132 (will be added to EATOM!!)
  PAW_PBE Cr_pv 02Aug2007               :
 energy of atom  4       EATOM=-1647.9177
 kinetic energy error for atom=    0.0134 (will be added to EATOM!!)
  PAW_PBE C 08Apr2002                   :
 energy of atom  5       EATOM= -147.1560
 kinetic energy error for atom=    0.0132 (will be added to EATOM!!)
  PAW_PBE O 08Apr2002                   :
 energy of atom  6       EATOM= -432.3788
 kinetic energy error for atom=    0.0458 (will be added to EATOM!!)
 
 
 POSCAR: POSCAR-clean                            
  positions in cartesian coordinates
  No initial velocities read in
 exchange correlation table for  LEXCH =        8
   RHO(1)=    0.500       N(1)  =     2000
   RHO(2)=  100.500       N(2)  =     4000

 VTST: version 3.2, (02/03/18)

 CHAIN: initializing optimizer
 
 OPT: Using VASP Dynamics algorithm
 CHAIN: Read ICHAIN            0
 
 POSCAR: POSCAR-clean                            
  positions in cartesian coordinates
  No initial velocities read in
 


--------------------------------------------------------------------------------------------------------


 ion  position               nearest neighbor table
   1  0.000  0.000  0.484-  60 1.42   2 1.42  70 1.43
   2  0.056  0.112  0.484-  13 1.42   1 1.42  15 1.44
   3  0.168  0.002  0.484-   4 1.42  62 1.42  60 1.43
   4  0.223  0.113  0.484-   3 1.42  15 1.42  17 1.43
   5  0.334  0.002  0.484-  62 1.42   6 1.42  64 1.43
   6  0.390  0.114  0.484-  19 1.42   5 1.42  17 1.44
   7  0.500  1.000  0.484-  64 1.42   8 1.42  66 1.43
   8  0.556  0.112  0.484-  21 1.42   7 1.42  19 1.44
   9  0.666  0.998  0.484-  10 1.42  66 1.42  68 1.43
  10  0.721  0.109  0.483-   9 1.42  23 1.43  21 1.43
  11  0.832  0.998  0.484-  12 1.42  70 1.42  68 1.43
  12  0.888  0.109  0.484-  11 1.42  23 1.43  13 1.43
  13  0.999  0.166  0.484-  14 1.42   2 1.42  12 1.43
  14  0.055  0.277  0.484-  13 1.42  25 1.43  27 1.43
  15  0.168  0.168  0.484-  16 1.42   4 1.42   2 1.44
  16  0.223  0.279  0.486-  15 1.42  27 1.42  29 1.43
  17  0.335  0.171  0.485-  18 1.42   4 1.43   6 1.44
  18  0.390  0.282  0.488-  29 1.42  17 1.42  31 1.43
  19  0.501  0.169  0.484-  20 1.42   6 1.42   8 1.44
  20  0.556  0.280  0.486-  19 1.42  33 1.43  31 1.46
  21  0.666  0.166  0.483-  22 1.42   8 1.42  10 1.43
  22  0.722  0.277  0.484-  21 1.42  35 1.43  33 1.43
  23  0.832  0.165  0.483-  24 1.42  12 1.43  10 1.43
  24  0.888  0.277  0.484-  23 1.42  35 1.42  25 1.43
  25  0.999  0.332  0.484-  26 1.42  24 1.43  14 1.43
  26  0.055  0.444  0.485-  39 1.42  37 1.42  25 1.42
  27  0.166  0.333  0.486-  28 1.42  16 1.42  14 1.43
  28  0.219  0.444  0.487-  41 1.41  27 1.42  39 1.42
  29  0.334  0.337  0.490-  30 1.40  18 1.42  16 1.43
  30  0.387  0.446  0.498-  29 1.40  41 1.41  71 2.00
  31  0.501  0.339  0.489-  32 1.42  18 1.43  20 1.46
  32  0.561  0.450  0.494-  43 1.41  31 1.42  71 1.98
  33  0.667  0.333  0.486-  34 1.42  20 1.43  22 1.43
  34  0.725  0.444  0.487-  43 1.41  33 1.42  45 1.42
  35  0.833  0.332  0.484-  36 1.42  24 1.42  22 1.43
  36  0.890  0.444  0.484-  45 1.42  37 1.42  35 1.42
  37  0.000  0.500  0.484-  26 1.42  36 1.42  38 1.42
  38  0.056  0.611  0.484-  47 1.42  49 1.42  37 1.42
  39  0.165  0.500  0.486-  28 1.42  26 1.42  40 1.42
  40  0.221  0.611  0.486-  49 1.42  51 1.42  39 1.42
  41  0.329  0.498  0.491-  28 1.41  30 1.41  42 1.44
  42  0.386  0.610  0.491-  53 1.41  51 1.42  41 1.44
  43  0.671  0.500  0.490-  34 1.41  32 1.41  44 1.43
  44  0.727  0.612  0.491-  55 1.41  57 1.41  43 1.43
  45  0.835  0.500  0.486-  36 1.42  46 1.42  34 1.42
  46  0.891  0.611  0.486-  47 1.42  45 1.42  57 1.42
  47  0.002  0.667  0.484-  46 1.42  38 1.42  48 1.42
  48  0.057  0.779  0.484-  47 1.42  61 1.42  59 1.43
  49  0.167  0.667  0.485-  40 1.42  38 1.42  50 1.42
  50  0.223  0.779  0.484-  49 1.42  63 1.42  61 1.42
  51  0.332  0.666  0.488-  42 1.42  52 1.42  40 1.42
  52  0.388  0.778  0.486-  51 1.42  65 1.42  63 1.43
  53  0.496  0.662  0.494-  42 1.41  54 1.42  71 1.98
  54  0.553  0.773  0.489-  53 1.42  67 1.44  65 1.44
  55  0.668  0.663  0.496-  44 1.41  56 1.42  71 2.00
  56  0.721  0.773  0.490-  55 1.42  67 1.43  69 1.44
  57  0.837  0.667  0.488-  44 1.41  58 1.42  46 1.42
  58  0.891  0.778  0.486-  57 1.42  69 1.42  59 1.43
  59  0.001  0.835  0.484-  60 1.42  48 1.43  58 1.43
  60  0.057  0.946  0.483-  59 1.42   1 1.42   3 1.43
  61  0.168  0.835  0.484-  62 1.42  48 1.42  50 1.42
  62  0.223  0.946  0.484-  61 1.42   5 1.42   3 1.42
  63  0.333  0.834  0.484-  64 1.42  50 1.42  52 1.43
  64  0.389  0.946  0.484-  63 1.42   7 1.42   5 1.43
  65  0.499  0.831  0.486-  52 1.42  66 1.43  54 1.44
  66  0.555  0.943  0.484-   9 1.42  65 1.43   7 1.43
  67  0.665  0.830  0.488-  68 1.42  56 1.43  54 1.44
  68  0.721  0.941  0.485-  67 1.42   9 1.43  11 1.43
  69  0.833  0.832  0.486-  58 1.42  70 1.42  56 1.44
  70  0.889  0.943  0.484-  69 1.42  11 1.42   1 1.43
  71  0.527  0.555  0.541-  32 1.98  53 1.98  55 2.00  30 2.00
  72  0.527  0.555  0.940-  73 1.16
  73  0.477  0.498  0.996-  72 1.16
 

IMPORTANT INFORMATION: All symmetrisations will be switched off!
NOSYMM: (Re-)initialisation of all symmetry stuff for point group C_1.

 
 
 KPOINTS: K-Points                                

Automatic generation of k-mesh.
Space group operators:
 irot       det(A)        alpha          n_x          n_y          n_z        tau_x        tau_y        tau_z
    1     1.000000     0.000001     1.000000     0.000000     0.000000     0.000000     0.000000     0.000000
 
 Subroutine IBZKPT returns following result:
 ===========================================
 
 Found      5 irreducible k-points:
 
 Following reciprocal coordinates:
            Coordinates               Weight
  0.000000  0.000000  0.000000      1.000000
  0.333333 -0.000000  0.000000      2.000000
  0.000000  0.333333  0.000000      2.000000
  0.333333  0.333333  0.000000      2.000000
 -0.333333  0.333333  0.000000      2.000000
 
 Following cartesian coordinates:
            Coordinates               Weight
  0.000000  0.000000  0.000000      1.000000
  0.022421  0.013068  0.000000      2.000000
 -0.000041  0.026137  0.000000      2.000000
  0.022380  0.039205  0.000000      2.000000
 -0.022463  0.013068  0.000000      2.000000
 
 TETIRR: Found     24 inequivalent tetrahedra from       54


--------------------------------------------------------------------------------------------------------




 Dimension of arrays:
   k-points           NKPTS =      5   k-points in BZ     NKDIM =      5   number of bands    NBANDS=    192
   number of dos      NEDOS =   4000   number of ions     NIONS =     73
   non local maximal  LDIM  =      6   non local SUM 2l+1 LMDIM =     18
   total plane-waves  NPLWV = 512000
   max r-space proj   IRMAX =      1   max aug-charges    IRDMAX=   6469
   dimension x,y,z NGX =    80 NGY =   80 NGZ =   80
   dimension x,y,z NGXF=   160 NGYF=  160 NGZF=  160
   support grid    NGXF=   160 NGYF=  160 NGZF=  160
   ions per type =              28   1  41   1   1   1
   NGX,Y,Z   is equivalent  to a cutoff of   8.95,  9.02,  8.87 a.u.
   NGXF,Y,Z  is equivalent  to a cutoff of  17.91, 18.04, 17.73 a.u.

 SYSTEM =  unknown system                          
 POSCAR =  POSCAR-clean                            

 Startparameter for this run:
   NWRITE =      2    write-flag & timer
   PREC   = normal    normal or accurate (medium, high low for compatibility)
   ISTART =      0    job   : 0-new  1-cont  2-samecut
   ICHARG =      2    charge: 1-file 2-atom 10-const
   ISPIN  =      2    spin polarized calculation?
   LNONCOLLINEAR =      F non collinear calculations
   LSORBIT =      F    spin-orbit coupling
   INIWAV =      1    electr: 0-lowe 1-rand  2-diag
   LASPH  =      F    aspherical Exc in radial PAW
   METAGGA=      F    non-selfconsistent MetaGGA calc.

 Electronic Relaxation 1
   ENCUT  =  440.0 eV  32.34 Ry    5.69 a.u.  25.40 25.22 25.66*2*pi/ulx,y,z
   ENINI  =  440.0     initial cutoff
   ENAUG  =  644.9 eV  augmentation charge cutoff
   NELM   =    100;   NELMIN=  2; NELMDL= -5     # of ELM steps 
   EDIFF  = 0.1E-03   stopping-criterion for ELM
   LREAL  =      F    real-space projection
   NLSPLINE    = F    spline interpolate recip. space projectors
   LCOMPAT=      F    compatible to vasp.4.4
   GGA_COMPAT  = T    GGA compatible to vasp.4.4-vasp.4.6
   LMAXPAW     = -100 max onsite density
   LMAXMIX     =    2 max onsite mixed and CHGCAR
   VOSKOWN=      0    Vosko Wilk Nusair interpolation
   ROPT   =    0.00000   0.00000   0.00000   0.00000
   ROPT   =    0.00000   0.00000
 Ionic relaxation
   EDIFFG = -.1E-01   stopping-criterion for IOM
   NSW    =      0    number of steps for IOM
   NBLOCK =      1;   KBLOCK =      1    inner block; outer block 
   IBRION =     -1    ionic relax: 0-MD 1-quasi-New 2-CG
   NFREE  =      0    steps in history (QN), initial steepest desc. (CG)
   ISIF   =      2    stress and relaxation
   IWAVPR =     10    prediction:  0-non 1-charg 2-wave 3-comb
   ISYM   =      0    0-nonsym 1-usesym 2-fastsym
   LCORR  =      T    Harris-Foulkes like correction to forces

   POTIM  = 0.5000    time-step for ionic-motion
   TEIN   =    0.0    initial temperature
   TEBEG  =    0.0;   TEEND  =   0.0 temperature during run
   SMASS  =  -3.00    Nose mass-parameter (am)
   estimated Nose-frequenzy (Omega)   =  0.10E-29 period in steps =****** mass=  -0.504E-26a.u.
   SCALEE = 1.0000    scale energy and forces
   NPACO  =    256;   APACO  = 16.0  distance and # of slots for P.C.
   PSTRESS=    0.0 pullay stress

  Mass of Ions in am
   POMASS =  12.01 14.00 12.01 52.00 12.01 16.00
  Ionic Valenz
   ZVAL   =   4.00  5.00  4.00 12.00  4.00  6.00
  Atomic Wigner-Seitz radii
   RWIGS  =  -1.00 -1.00 -1.00 -1.00 -1.00 -1.00
  virtual crystal weights 
   VCA    =   1.00  1.00  1.00  1.00  1.00  1.00
   NELECT =     303.0000    total number of electrons
   NUPDOWN=      -1.0000    fix difference up-down

 DOS related values:
   EMIN   = -14.00;   EMAX   =  6.00  energy-range for DOS
   EFERMI =   0.00
   ISMEAR =    -5;   SIGMA  =   0.20  broadening in eV -4-tet -1-fermi 0-gaus

 Electronic relaxation 2 (details)
   IALGO  =     38    algorithm
   LDIAG  =      T    sub-space diagonalisation (order eigenvalues)
   LSUBROT=      F    optimize rotation matrix (better conditioning)
   TURBO    =      0    0=normal 1=particle mesh
   IRESTART =      0    0=no restart 2=restart with 2 vectors
   NREBOOT  =      0    no. of reboots
   NMIN     =      0    reboot dimension
   EREF     =   0.00    reference energy to select bands
   IMIX   =      4    mixing-type and parameters
     AMIX     =   0.25;   BMIX     =  0.00
     AMIX_MAG =   1.00;   BMIX_MAG =  0.00
     AMIN     =   0.10
     WC   =   100.;   INIMIX=   1;  MIXPRE=   1;  MAXMIX= -45

 Intra band minimization:
   WEIMIN = 0.0000     energy-eigenvalue tresh-hold
   EBREAK =  0.13E-06  absolut break condition
   DEPER  =   0.30     relativ break condition  

   TIME   =   0.40     timestep for ELM

  volume/ion in A,a.u.               =      38.92       262.67
  Fermi-wavevector in a.u.,A,eV,Ry     =   0.776326  1.467044  8.199996  0.602683
  Thomas-Fermi vector in A             =   1.878781
 
 Write flags
   LWAVE        =      F    write WAVECAR
   LDOWNSAMPLE  =      F    k-point downsampling of WAVECAR
   LCHARG       =      F    write CHGCAR
   LVTOT        =      F    write LOCPOT, total local potential
   LVHAR        =      F    write LOCPOT, Hartree potential only
   LELF         =      F    write electronic localiz. function (ELF)
   LORBIT       =     11    0 simple, 1 ext, 2 COOP (PROOUT), +10 PAW based schemes


 Dipole corrections
   LMONO  =      F    monopole corrections only (constant potential shift)
   LDIPOL =      F    correct potential (dipole corrections)
   IDIPOL =      0    1-x, 2-y, 3-z, 4-all directions 
   EPSILON=  1.0000000 bulk dielectric constant

 Exchange correlation treatment:
   GGA     =    --    GGA type
   LEXCH   =     8    internal setting for exchange type
   VOSKOWN=      0    Vosko Wilk Nusair interpolation
   LHFCALC =     F    Hartree Fock is set to
   LHFONE  =     F    Hartree Fock one center treatment
   AEXX    =    0.0000 exact exchange contribution

 Linear response parameters
   LEPSILON=     F    determine dielectric tensor
   LRPA    =     F    only Hartree local field effects (RPA)
   LNABLA  =     F    use nabla operator in PAW spheres
   LVEL    =     F    velocity operator in full k-point grid
   LINTERFAST=   F  fast interpolation
   KINTER  =     0    interpolate to denser k-point grid
   CSHIFT  =0.1000    complex shift for real part using Kramers Kronig
   OMEGAMAX=  -1.0    maximum frequency
   DEG_THRESHOLD= 0.2000000E-02 threshold for treating states as degnerate
   RTIME   =   -0.100 relaxation time in fs
  (WPLASMAI=    0.000 imaginary part of plasma frequency in eV, 0.658/RTIME)
   DFIELD  = 0.0000000 0.0000000 0.0000000 field for delta impulse in time
 
 Orbital magnetization related:
   ORBITALMAG=     F  switch on orbital magnetization
   LCHIMAG   =     F  perturbation theory with respect to B field
   DQ        =  0.001000  dq finite difference perturbation B field
   LLRAUG    =     F  two centre corrections for induced B field



--------------------------------------------------------------------------------------------------------


 Static calculation
 charge density and potential will be updated during run
 spin polarized calculation
 Variant of blocked Davidson
 Davidson routine will perform the subspace rotation
 perform sub-space diagonalisation
    after iterative eigenvector-optimisation
 modified Broyden-mixing scheme, WC =      100.0
 initial mixing is a Kerker type mixing with AMIX =  0.2500 and BMIX =      0.0001
 Hartree-type preconditioning will be used
 using additional bands           40
 reciprocal scheme for non local part
 use partial core corrections
 calculate Harris-corrections to forces 
   (improved forces if not selfconsistent)
 use gradient corrections 
 use of overlap-Matrix (Vanderbilt PP)
 Fermi weights with tetrahedron method with Bloechl corrections


--------------------------------------------------------------------------------------------------------


  energy-cutoff  :      440.00
  volume of cell :     2841.41
      direct lattice vectors                 reciprocal lattice vectors
    14.853071780  0.023521220  0.000000000     0.067264056  0.039205183  0.000000000
    -7.426535890 12.741655181  0.000000000    -0.000124170  0.078410366  0.000000000
     0.000000000  0.000000000 15.000000000     0.000000000  0.000000000  0.066666667

  length of vectors
    14.853090404 14.747990103 15.000000000     0.077855633  0.078410464  0.066666667


 
 k-points in units of 2pi/SCALE and weight: K-Points                                
   0.00000000  0.00000000  0.00000000       0.111
   0.02242135  0.01306839  0.00000000       0.222
  -0.00004139  0.02613679  0.00000000       0.222
   0.02237996  0.03920518  0.00000000       0.222
  -0.02246274  0.01306839  0.00000000       0.222
 
 k-points in reciprocal lattice and weights: K-Points                                
   0.00000000  0.00000000  0.00000000       0.111
   0.33333333 -0.00000000  0.00000000       0.222
   0.00000000  0.33333333  0.00000000       0.222
   0.33333333  0.33333333  0.00000000       0.222
  -0.33333333  0.33333333  0.00000000       0.222
 
 position of ions in fractional coordinates (direct lattice) 
   0.00029389  0.00008781  0.48354817
   0.05605190  0.11174855  0.48357658
   0.16800484  0.00193135  0.48350986
   0.22343571  0.11304384  0.48428477
   0.33422308  0.00224805  0.48362913
   0.38984530  0.11397609  0.48439999
   0.49998839  0.99998584  0.48369266
   0.55561273  0.11168828  0.48362621
   0.66581219  0.99801298  0.48419894
   0.72146431  0.10939151  0.48342595
   0.83240961  0.99806663  0.48429886
   0.88786771  0.10931363  0.48363049
   0.99933592  0.16562833  0.48371944
   0.05488858  0.27662634  0.48439668
   0.16796863  0.16837274  0.48417437
   0.22324776  0.27933172  0.48577176
   0.33457217  0.17065455  0.48545409
   0.38980619  0.28215999  0.48836932
   0.50067532  0.16876077  0.48449198
   0.55587097  0.28026004  0.48602709
   0.66636541  0.16581178  0.48345068
   0.72204480  0.27699172  0.48403055
   0.83249856  0.16505386  0.48349285
   0.88828588  0.27650364  0.48362264
   0.99934598  0.33231088  0.48418788
   0.05461385  0.44367733  0.48455429
   0.16611398  0.33283018  0.48575002
   0.21948957  0.44376928  0.48725995
   0.33412577  0.33682834  0.48969473
   0.38684738  0.44584183  0.49751232
   0.50146510  0.33942496  0.48907430
   0.56078799  0.45030689  0.49434669
   0.66693761  0.33320312  0.48567161
   0.72460133  0.44430798  0.48713043
   0.83319007  0.33240580  0.48382917
   0.88951081  0.44382076  0.48426288
   0.00009133  0.49973395  0.48412900
   0.05605815  0.61124499  0.48399066
   0.16494683  0.49959763  0.48605746
   0.22093865  0.61104585  0.48648191
   0.32889067  0.49758382  0.49128909
   0.38600902  0.61043043  0.49122908
   0.67059451  0.49998713  0.49047507
   0.72689145  0.61206244  0.49129096
   0.83532184  0.49997810  0.48572661
   0.89120766  0.61127867  0.48578714
   0.00153581  0.66729669  0.48409851
   0.05687395  0.77882573  0.48378909
   0.16666285  0.66716600  0.48458135
   0.22270559  0.77870418  0.48413997
   0.33152736  0.66642174  0.48828943
   0.38837047  0.77774092  0.48624536
   0.49568216  0.66197418  0.49406791
   0.55349947  0.77299892  0.48882432
   0.66796256  0.66276146  0.49619832
   0.72058056  0.77344691  0.48950658
   0.83663465  0.66739816  0.48769819
   0.89053917  0.77845192  0.48581190
   0.00147532  0.83452412  0.48400474
   0.05668834  0.94562912  0.48343153
   0.16769009  0.83470587  0.48358330
   0.22338139  0.94621636  0.48353350
   0.33349347  0.83418626  0.48443629
   0.38919655  0.94559267  0.48368619
   0.49919650  0.83127310  0.48598466
   0.55489206  0.94305829  0.48436755
   0.66530408  0.82996133  0.48836376
   0.72076125  0.94129367  0.48538490
   0.83298479  0.83166869  0.48587118
   0.88863789  0.94326984  0.48424898
   0.52739442  0.55533338  0.54120302
   0.52739442  0.55533338  0.93986968
   0.47734489  0.49845957  0.99622550
 
 position of ions in cartesian coordinates  (Angst):
   0.00371308  0.00112571  7.25322250
   0.00263827  1.42517986  7.25364868
   2.48104467  0.02856026  7.25264787
   2.47918259  1.44562106  7.26427148
   4.94754414  0.03650527  7.25443688
   4.94395268  1.46141366  7.26599989
  -0.00006722 12.75323509  7.25538985
   7.42309877  1.43616230  7.25439312
   2.47757700 12.73199801  7.26298406
   9.90356127  1.41079859  7.25138924
   4.95166207 12.73660019  7.26448288
  12.37574126  1.41372025  7.25445730
  13.61316347  2.13388467  7.25579166
  -1.23911138  3.52596848  7.26595015
   1.24442399  2.14929818  7.26261550
   1.24144789  3.56439956  7.28657647
   3.70205239  2.18229097  7.28181130
   3.69434805  3.60435400  7.32553980
   6.18325854  2.16206809  7.26737976
   6.17503020  3.58405150  7.29040639
   8.66616617  2.12839029  7.25176023
   8.66749435  3.54631631  7.26045822
  11.13938244  2.12264072  7.25239278
  11.14030972  3.54400761  7.25433954
  12.37543882  4.25769649  7.26281814
  -2.48380212  5.65446812  7.26831434
  -0.00447246  4.24471459  7.28625032
  -0.03557417  5.65951777  7.30889924
   2.46132626  4.29960965  7.34542094
   2.43481152  5.68986195  7.46268485
   4.92754538  4.33663092  7.33611450
   4.98520393  5.75084559  7.41520041
   7.43152731  4.26124641  7.28507416
   7.46288639  5.67826258  7.30695640
   9.90680837  4.25499773  7.25743762
   9.91591708  5.67593344  7.26394323
  -3.70993557  6.36743982  7.26193500
  -3.70679710  7.78959149  7.25985989
  -1.26031262  6.36958042  7.29086189
  -1.25633640  7.79093230  7.29722872
   1.18971258  6.34777740  7.36933630
   1.20003619  7.78697350  7.36843623
   6.24721604  6.38643681  7.35712601
   6.25106714  7.81578595  7.36936434
   8.69398992  6.39019630  7.28589908
   8.69748843  7.80966428  7.28680706
  -4.93289125  8.50250040  7.26147765
  -4.93922442  9.92486668  7.25683632
  -2.47927691  8.50471925  7.26872032
  -2.47521238  9.92721843  7.26209956
  -0.02500530  8.49911390  7.32434148
  -0.00742638  9.91884157  7.29368037
   2.44622762  8.44630583  7.41101869
   2.48046310  9.86230474  7.33236476
   4.99927410  8.46038932  7.44297473
   4.95880354  9.87194279  7.34259866
   7.47013810  8.52343588  7.31547287
   7.44604116  9.93971246  7.28717849
  -6.17571035 10.63325326  7.26007117
  -6.18075261 12.05021350  7.25147299
  -3.70826016 10.63947866  7.25374954
  -3.70920987 12.06161674  7.25300247
  -1.24171177 10.63675788  7.26654428
  -1.24171354 12.05757006  7.25529291
   1.24112187 10.60353694  7.28976997
   1.23819528 12.02917531  7.26551330
   3.71807161 10.59072991  7.32545636
   3.71496731 12.01059253  7.28077356
   6.19596559 10.61642845  7.28806764
   6.19377508 12.03972095  7.26373467
   3.70922394  7.08827139  8.11804527
   3.70922394  7.08827139 14.09804527
   3.38820999  6.36242770 14.94338246
 


--------------------------------------------------------------------------------------------------------


 k-point  1 :   0.0000 0.0000 0.0000  plane waves:   59547
 k-point  2 :   0.3333-0.0000 0.0000  plane waves:   59529
 k-point  3 :   0.0000 0.3333 0.0000  plane waves:   59566
 k-point  4 :   0.3333 0.3333 0.0000  plane waves:   59594
 k-point  5 :  -0.3333 0.3333 0.0000  plane waves:   59526

 maximum and minimum number of plane-waves per node :      4981     4941

 maximum number of plane-waves:     59594
 maximum index in each direction: 
   IXMAX=   25   IYMAX=   25   IZMAX=   25
   IXMIN=  -25   IYMIN=  -25   IZMIN=  -25


 parallel 3D FFT for wavefunctions:
    minimum data exchange during FFTs selected (reduces bandwidth)
 parallel 3D FFT for charge:
    minimum data exchange during FFTs selected (reduces bandwidth)


 total amount of memory used by VASP MPI-rank0   116147. kBytes
=======================================================================

   base      :      30000. kBytes
   nonl-proj :      27330. kBytes
   fftplans  :       4700. kBytes
   grid      :      15193. kBytes
   one-center:        217. kBytes
   wavefun   :      38707. kBytes
 
     INWAV:  cpu time    0.0000: real time    0.0000
 Broyden mixing: mesh for mixing (old mesh)
   NGX = 51   NGY = 51   NGZ = 51
  (NGX  =160   NGY  =160   NGZ  =160)
  gives a total of 132651 points

 initial charge density was supplied:
 charge density of overlapping atoms calculated
 number of electron     303.0000000 magnetization       2.0000000
 keeping initial charge density in first step


--------------------------------------------------------------------------------------------------------


 Maximum index for augmentation-charges          178 (set IRDMAX)


--------------------------------------------------------------------------------------------------------


 First call to EWALD:  gamma=   0.125
 Maximum number of real-space cells 3x 3x 3
 Maximum number of reciprocal cells 3x 3x 3

    FEWALD:  cpu time    0.0036: real time    0.0037


--------------------------------------- Iteration      1(   1)  ---------------------------------------


    POTLOK:  cpu time    0.2130: real time    0.2422
    SETDIJ:  cpu time    0.0092: real time    0.0102
     EDDAV:  cpu time   11.3369: real time   11.4377
 BZINTS: Fermi energy:  7.927804;303.000000 electrons
         Band energy:***********;  BLOECHL correction: -0.014871
       DOS:  cpu time    0.1097: real time    0.1101
    --------------------------------------------
      LOOP:  cpu time   11.6688: real time   11.8002

 eigenvalue-minimisations  :  4328
 total energy-change (2. order) : 0.2552098E+04  (-0.1115528E+05)
 number of electron     303.0000000 magnetization       2.0000000
 augmentation part      303.0000000 magnetization       2.0000000

 Free energy of the ion-electron system (eV)
  ---------------------------------------------------
  alpha Z        PSCENC =       167.35502620
  Ewald energy   TEWEN  =     28918.64321036
  -Hartree energ DENC   =    -38596.89152223
  -exchange      EXHF   =         0.00000000
  -V(xc)+E(xc)   XCENC  =      1022.23642873
  PAW double counting   =      9455.23336183    -9546.47664214
  entropy T*S    EENTRO =         0.00000000
  eigenvalues    EBANDS =     -1512.75467703
  atomic energy  EATOM  =     12644.75315347
  Solvation  Ediel_sol  =         0.00000000
  ---------------------------------------------------
  free energy    TOTEN  =      2552.09833920 eV

  energy without entropy =     2552.09833920  energy(sigma->0) =     2552.09833920


--------------------------------------------------------------------------------------------------------




--------------------------------------- Iteration      1(   2)  ---------------------------------------


     EDDAV:  cpu time   14.3942: real time   14.6522
 BZINTS: Fermi energy: -1.374225;303.000000 electrons
         Band energy:***********;  BLOECHL correction: -0.083584
       DOS:  cpu time    0.0115: real time    0.0115
    --------------------------------------------
      LOOP:  cpu time   14.4057: real time   14.6637

 eigenvalue-minimisations  :  5488
 total energy-change (2. order) :-0.2786633E+04  (-0.2658025E+04)
 number of electron     303.0000000 magnetization       2.0000000
 augmentation part      303.0000000 magnetization       2.0000000

 Free energy of the ion-electron system (eV)
  ---------------------------------------------------
  alpha Z        PSCENC =       167.35502620
  Ewald energy   TEWEN  =     28918.64321036
  -Hartree energ DENC   =    -38596.89152223
  -exchange      EXHF   =         0.00000000
  -V(xc)+E(xc)   XCENC  =      1022.23642873
  PAW double counting   =      9455.23336183    -9546.47664214
  entropy T*S    EENTRO =         0.00000000
  eigenvalues    EBANDS =     -4299.38768979
  atomic energy  EATOM  =     12644.75315347
  Solvation  Ediel_sol  =         0.00000000
  ---------------------------------------------------
  free energy    TOTEN  =      -234.53467357 eV

  energy without entropy =     -234.53467357  energy(sigma->0) =     -234.53467357


--------------------------------------------------------------------------------------------------------




--------------------------------------- Iteration      1(   3)  ---------------------------------------


     EDDAV:  cpu time   12.4425: real time   12.6687
 BZINTS: Fermi energy: -4.506644;303.000000 electrons
         Band energy:***********;  BLOECHL correction: -0.047718
       DOS:  cpu time    0.0114: real time    0.0114
    --------------------------------------------
      LOOP:  cpu time   12.4540: real time   12.6802

 eigenvalue-minimisations  :  4560
 total energy-change (2. order) :-0.4674808E+03  (-0.4639626E+03)
 number of electron     303.0000000 magnetization       2.0000000
 augmentation part      303.0000000 magnetization       2.0000000

 Free energy of the ion-electron system (eV)
  ---------------------------------------------------
  alpha Z        PSCENC =       167.35502620
  Ewald energy   TEWEN  =     28918.64321036
  -Hartree energ DENC   =    -38596.89152223
  -exchange      EXHF   =         0.00000000
  -V(xc)+E(xc)   XCENC  =      1022.23642873
  PAW double counting   =      9455.23336183    -9546.47664214
  entropy T*S    EENTRO =         0.00000000
  eigenvalues    EBANDS =     -4766.86848209
  atomic energy  EATOM  =     12644.75315347
  Solvation  Ediel_sol  =         0.00000000
  ---------------------------------------------------
  free energy    TOTEN  =      -702.01546587 eV

  energy without entropy =     -702.01546587  energy(sigma->0) =     -702.01546587


--------------------------------------------------------------------------------------------------------




--------------------------------------- Iteration      1(   4)  ---------------------------------------


     EDDAV:  cpu time   12.4706: real time   12.6424
 BZINTS: Fermi energy: -4.689533;303.000000 electrons
         Band energy:***********;  BLOECHL correction: -0.045134
       DOS:  cpu time    0.0117: real time    0.0118
    --------------------------------------------
      LOOP:  cpu time   12.4824: real time   12.6542

 eigenvalue-minimisations  :  4648
 total energy-change (2. order) :-0.1687818E+02  (-0.1674330E+02)
 number of electron     303.0000000 magnetization       2.0000000
 augmentation part      303.0000000 magnetization       2.0000000

 Free energy of the ion-electron system (eV)
  ---------------------------------------------------
  alpha Z        PSCENC =       167.35502620
  Ewald energy   TEWEN  =     28918.64321036
  -Hartree energ DENC   =    -38596.89152223
  -exchange      EXHF   =         0.00000000
  -V(xc)+E(xc)   XCENC  =      1022.23642873
  PAW double counting   =      9455.23336183    -9546.47664214
  entropy T*S    EENTRO =         0.00000000
  eigenvalues    EBANDS =     -4783.74666341
  atomic energy  EATOM  =     12644.75315347
  Solvation  Ediel_sol  =         0.00000000
  ---------------------------------------------------
  free energy    TOTEN  =      -718.89364718 eV

  energy without entropy =     -718.89364718  energy(sigma->0) =     -718.89364718


--------------------------------------------------------------------------------------------------------




--------------------------------------- Iteration      1(   5)  ---------------------------------------


     EDDAV:  cpu time   13.5448: real time   13.7782
 BZINTS: Fermi energy: -4.700012;303.000000 electrons
         Band energy:***********;  BLOECHL correction: -0.044347
       DOS:  cpu time    0.0115: real time    0.0116
    CHARGE:  cpu time    0.1606: real time    0.1662
    MIXING:  cpu time    0.0036: real time    0.0051
    --------------------------------------------
      LOOP:  cpu time   13.7205: real time   13.9611

 eigenvalue-minimisations  :  5264
 total energy-change (2. order) :-0.5513414E+00  (-0.5503495E+00)
 number of electron     302.9999975 magnetization       0.0115851
 augmentation part       12.3820893 magnetization       0.0678913

 Broyden mixing:
  rms(total) = 0.47581E+01    rms(broyden)= 0.47575E+01
  rms(prec ) = 0.55163E+01
  weight for this iteration     100.00

 Free energy of the ion-electron system (eV)
  ---------------------------------------------------
  alpha Z        PSCENC =       167.35502620
  Ewald energy   TEWEN  =     28918.64321036
  -Hartree energ DENC   =    -38596.89152223
  -exchange      EXHF   =         0.00000000
  -V(xc)+E(xc)   XCENC  =      1022.23642873
  PAW double counting   =      9455.23336183    -9546.47664214
  entropy T*S    EENTRO =         0.00000000
  eigenvalues    EBANDS =     -4784.29800482
  atomic energy  EATOM  =     12644.75315347
  Solvation  Ediel_sol  =         0.00000000
  ---------------------------------------------------
  free energy    TOTEN  =      -719.44498860 eV

  energy without entropy =     -719.44498860  energy(sigma->0) =     -719.44498860


--------------------------------------------------------------------------------------------------------




--------------------------------------- Iteration      1(   6)  ---------------------------------------


    POTLOK:  cpu time    0.1631: real time    0.1665
    SETDIJ:  cpu time    0.0089: real time    0.0089
     EDDAV:  cpu time   12.5168: real time   12.6310
 BZINTS: Fermi energy: -5.533514;303.000000 electrons
         Band energy:***********;  BLOECHL correction: -0.064434
       DOS:  cpu time    0.0119: real time    0.0120
    CHARGE:  cpu time    0.1665: real time    0.1724
    MIXING:  cpu time    0.0033: real time    0.0039
    --------------------------------------------
      LOOP:  cpu time   12.8704: real time   12.9947

 eigenvalue-minimisations  :  4880
 total energy-change (2. order) :-0.2894494E+01  (-0.8432019E+01)
 number of electron     303.0000013 magnetization      -0.0077690
 augmentation part       17.9799664 magnetization       0.1323500

 Broyden mixing:
  rms(total) = 0.10586E+02    rms(broyden)= 0.10586E+02
  rms(prec ) = 0.11419E+02
  weight for this iteration     100.00

 eigenvalues of (default mixing * dielectric matrix)
  average eigenvalue GAMMA=   0.1169
  0.1169

 Free energy of the ion-electron system (eV)
  ---------------------------------------------------
  alpha Z        PSCENC =       167.35502620
  Ewald energy   TEWEN  =     28918.64321036
  -Hartree energ DENC   =    -38970.86314200
  -exchange      EXHF   =         0.00000000
  -V(xc)+E(xc)   XCENC  =      1035.03389252
  PAW double counting   =     13244.15804629   -13335.38439296
  entropy T*S    EENTRO =         0.00000000
  eigenvalues    EBANDS =     -4426.03527682
  atomic energy  EATOM  =     12644.75315347
  Solvation  Ediel_sol  =         0.00000000
  ---------------------------------------------------
  free energy    TOTEN  =      -722.33948294 eV

  energy without entropy =     -722.33948294  energy(sigma->0) =     -722.33948294


--------------------------------------------------------------------------------------------------------




--------------------------------------- Iteration      1(   7)  ---------------------------------------


    POTLOK:  cpu time    0.1609: real time    0.1678
    SETDIJ:  cpu time    0.0088: real time    0.0088
     EDDAV:  cpu time   13.1976: real time   13.3369
 BZINTS: Fermi energy: -5.032692;303.000000 electrons
         Band energy:***********;  BLOECHL correction: -0.034749
       DOS:  cpu time    0.0115: real time    0.0116
    CHARGE:  cpu time    0.1629: real time    0.1663
    MIXING:  cpu time    0.0037: real time    0.0038
    --------------------------------------------
      LOOP:  cpu time   13.5454: real time   13.6952

 eigenvalue-minimisations  :  5240
 total energy-change (2. order) : 0.3727710E+02  (-0.4658994E+01)
 number of electron     303.0000007 magnetization       0.0055043
 augmentation part       16.5372284 magnetization       0.0294082

 Broyden mixing:
  rms(total) = 0.42622E+01    rms(broyden)= 0.42620E+01
  rms(prec ) = 0.51027E+01
  weight for this iteration     100.00

 eigenvalues of (default mixing * dielectric matrix)
  average eigenvalue GAMMA=   0.3348
  0.4104  0.2593

 Free energy of the ion-electron system (eV)
  ---------------------------------------------------
  alpha Z        PSCENC =       167.35502620
  Ewald energy   TEWEN  =     28918.64321036
  -Hartree energ DENC   =    -39064.32745399
  -exchange      EXHF   =         0.00000000
  -V(xc)+E(xc)   XCENC  =      1038.00431273
  PAW double counting   =     14535.10180174   -14629.26218816
  entropy T*S    EENTRO =         0.00000000
  eigenvalues    EBANDS =     -4295.33024929
  atomic energy  EATOM  =     12644.75315347
  Solvation  Ediel_sol  =         0.00000000
  ---------------------------------------------------
  free energy    TOTEN  =      -685.06238694 eV

  energy without entropy =     -685.06238694  energy(sigma->0) =     -685.06238694


--------------------------------------------------------------------------------------------------------




--------------------------------------- Iteration      1(   8)  ---------------------------------------


    POTLOK:  cpu time    0.1437: real time    0.1461
    SETDIJ:  cpu time    0.0105: real time    0.0105
     EDDAV:  cpu time   13.4490: real time   13.5321
 BZINTS: Fermi energy: -2.834981;303.000000 electrons
         Band energy:***********;  BLOECHL correction: -0.042002
       DOS:  cpu time    0.0114: real time    0.0114
    CHARGE:  cpu time    0.1627: real time    0.1644
    MIXING:  cpu time    0.0035: real time    0.0036
    --------------------------------------------
      LOOP:  cpu time   13.7808: real time   13.8681

 eigenvalue-minimisations  :  5480
 total energy-change (2. order) : 0.5937477E+01  (-0.5063668E+01)
 number of electron     302.9999980 magnetization       0.0614803
 augmentation part       12.1128297 magnetization       0.0240846

 Broyden mixing:
  rms(total) = 0.31248E+01    rms(broyden)= 0.31241E+01
  rms(prec ) = 0.37224E+01
  weight for this iteration     100.00

 eigenvalues of (default mixing * dielectric matrix)
  average eigenvalue GAMMA=   0.8943
  2.1457  0.2686  0.2686

 Free energy of the ion-electron system (eV)
  ---------------------------------------------------
  alpha Z        PSCENC =       167.35502620
  Ewald energy   TEWEN  =     28918.64321036
  -Hartree energ DENC   =    -39232.79034359
  -exchange      EXHF   =         0.00000000
  -V(xc)+E(xc)   XCENC  =      1043.32142987
  PAW double counting   =     15791.61191792   -15889.27477920
  entropy T*S    EENTRO =         0.00000000
  eigenvalues    EBANDS =     -4122.74452506
  atomic energy  EATOM  =     12644.75315347
  Solvation  Ediel_sol  =         0.00000000
  ---------------------------------------------------
  free energy    TOTEN  =      -679.12491003 eV

  energy without entropy =     -679.12491003  energy(sigma->0) =     -679.12491003


--------------------------------------------------------------------------------------------------------




--------------------------------------- Iteration      1(   9)  ---------------------------------------


    POTLOK:  cpu time    0.1451: real time    0.1471
    SETDIJ:  cpu time    0.0105: real time    0.0105
     EDDAV:  cpu time   11.8910: real time   12.0528
 BZINTS: Fermi energy: -2.540431;303.000000 electrons
         Band energy:***********;  BLOECHL correction: -0.046268
       DOS:  cpu time    0.0120: real time    0.0121
    CHARGE:  cpu time    0.1617: real time    0.1623
    MIXING:  cpu time    0.0036: real time    0.0036
    --------------------------------------------
      LOOP:  cpu time   12.2239: real time   12.3884

 eigenvalue-minimisations  :  4600
 total energy-change (2. order) : 0.1720392E+02  (-0.3347754E+01)
 number of electron     303.0000007 magnetization      -0.3722793
 augmentation part       13.9629504 magnetization      -0.1789302

 Broyden mixing:
  rms(total) = 0.12857E+01    rms(broyden)= 0.12840E+01
  rms(prec ) = 0.14369E+01
  weight for this iteration     100.00

 eigenvalues of (default mixing * dielectric matrix)
  average eigenvalue GAMMA=   0.9998
  2.6762  0.7924  0.2653  0.2653

 Free energy of the ion-electron system (eV)
  ---------------------------------------------------
  alpha Z        PSCENC =       167.35502620
  Ewald energy   TEWEN  =     28918.64321036
  -Hartree energ DENC   =    -39762.17931855
  -exchange      EXHF   =         0.00000000
  -V(xc)+E(xc)   XCENC  =      1062.26779130
  PAW double counting   =     24596.54704237   -24698.77036969
  entropy T*S    EENTRO =         0.00000000
  eigenvalues    EBANDS =     -3590.53752429
  atomic energy  EATOM  =     12644.75315347
  Solvation  Ediel_sol  =         0.00000000
  ---------------------------------------------------
  free energy    TOTEN  =      -661.92098884 eV

  energy without entropy =     -661.92098884  energy(sigma->0) =     -661.92098884


--------------------------------------------------------------------------------------------------------




--------------------------------------- Iteration      1(  10)  ---------------------------------------


    POTLOK:  cpu time    0.1315: real time    0.1337
    SETDIJ:  cpu time    0.0088: real time    0.0088
     EDDAV:  cpu time   12.3897: real time   12.5314
 BZINTS: Fermi energy: -1.562875;303.000000 electrons
         Band energy:***********;  BLOECHL correction: -0.033358
       DOS:  cpu time    0.0121: real time    0.0122
    CHARGE:  cpu time    0.1809: real time    0.1816
    MIXING:  cpu time    0.0042: real time    0.0043
    --------------------------------------------
      LOOP:  cpu time   12.7272: real time   12.8719

 eigenvalue-minimisations  :  4872
 total energy-change (2. order) :-0.1421511E+00  (-0.9606962E+00)
 number of electron     302.9999996 magnetization      -1.1282924
 augmentation part       12.9352741 magnetization      -0.7283667

 Broyden mixing:
  rms(total) = 0.10073E+01    rms(broyden)= 0.10068E+01
  rms(prec ) = 0.10990E+01
  weight for this iteration     100.00

 eigenvalues of (default mixing * dielectric matrix)
  average eigenvalue GAMMA=   1.1543
  3.3074  0.9681  0.9681  0.2638  0.2638

 Free energy of the ion-electron system (eV)
  ---------------------------------------------------
  alpha Z        PSCENC =       167.35502620
  Ewald energy   TEWEN  =     28918.64321036
  -Hartree energ DENC   =    -39829.42193304
  -exchange      EXHF   =         0.00000000
  -V(xc)+E(xc)   XCENC  =      1064.83551741
  PAW double counting   =     27150.02168288   -27252.66638319
  entropy T*S    EENTRO =         0.00000000
  eigenvalues    EBANDS =     -3525.58341399
  atomic energy  EATOM  =     12644.75315347
  Solvation  Ediel_sol  =         0.00000000
  ---------------------------------------------------
  free energy    TOTEN  =      -662.06313991 eV

  energy without entropy =     -662.06313991  energy(sigma->0) =     -662.06313991


--------------------------------------------------------------------------------------------------------




--------------------------------------- Iteration      1(  11)  ---------------------------------------


    POTLOK:  cpu time    0.1370: real time    0.1390
    SETDIJ:  cpu time    0.0087: real time    0.0087
     EDDAV:  cpu time   12.2689: real time   12.3942
 BZINTS: Fermi energy: -1.938977;303.000000 electrons
         Band energy:***********;  BLOECHL correction: -0.001208
       DOS:  cpu time    0.0126: real time    0.0127
    CHARGE:  cpu time    0.1600: real time    0.1607
    MIXING:  cpu time    0.0037: real time    0.0037
    --------------------------------------------
      LOOP:  cpu time   12.5909: real time   12.7190

 eigenvalue-minimisations  :  4832
 total energy-change (2. order) :-0.3792809E+00  (-0.2910110E+00)
 number of electron     303.0000006 magnetization      -1.2503916
 augmentation part       13.7630136 magnetization      -1.0040093

 Broyden mixing:
  rms(total) = 0.83402E+00    rms(broyden)= 0.83368E+00
  rms(prec ) = 0.94380E+00
  weight for this iteration     100.00

 eigenvalues of (default mixing * dielectric matrix)
  average eigenvalue GAMMA=   1.2915
  3.3544  2.1301  1.1297  0.2639  0.2639  0.6071

 Free energy of the ion-electron system (eV)
  ---------------------------------------------------
  alpha Z        PSCENC =       167.35502620
  Ewald energy   TEWEN  =     28918.64321036
  -Hartree energ DENC   =    -39846.77433963
  -exchange      EXHF   =         0.00000000
  -V(xc)+E(xc)   XCENC  =      1065.89445835
  PAW double counting   =     30149.41668443   -30251.37359907
  entropy T*S    EENTRO =         0.00000000
  eigenvalues    EBANDS =     -3510.35701490
  atomic energy  EATOM  =     12644.75315347
  Solvation  Ediel_sol  =         0.00000000
  ---------------------------------------------------
  free energy    TOTEN  =      -662.44242080 eV

  energy without entropy =     -662.44242080  energy(sigma->0) =     -662.44242080


--------------------------------------------------------------------------------------------------------




--------------------------------------- Iteration      1(  12)  ---------------------------------------


    POTLOK:  cpu time    0.1347: real time    0.1368
    SETDIJ:  cpu time    0.0113: real time    0.0116
     EDDAV:  cpu time   12.4878: real time   12.5784
 BZINTS: Fermi energy: -2.092740;303.000000 electrons
         Band energy:***********;  BLOECHL correction: -0.007994
       DOS:  cpu time    0.0116: real time    0.0125
    CHARGE:  cpu time    0.1637: real time    0.1662
    MIXING:  cpu time    0.0036: real time    0.0036
    --------------------------------------------
      LOOP:  cpu time   12.8127: real time   12.9092

 eigenvalue-minimisations  :  4856
 total energy-change (2. order) : 0.3024464E+00  (-0.1488091E+00)
 number of electron     303.0000000 magnetization      -1.1416489
 augmentation part       13.4914493 magnetization      -1.0804063

 Broyden mixing:
  rms(total) = 0.41312E+00    rms(broyden)= 0.41296E+00
  rms(prec ) = 0.43413E+00
  weight for this iteration     100.00

 eigenvalues of (default mixing * dielectric matrix)
  average eigenvalue GAMMA=   1.2470
  3.5415  2.3367  1.0755  0.2638  0.2638  0.6239  0.6239

 Free energy of the ion-electron system (eV)
  ---------------------------------------------------
  alpha Z        PSCENC =       167.35502620
  Ewald energy   TEWEN  =     28918.64321036
  -Hartree energ DENC   =    -39779.04223493
  -exchange      EXHF   =         0.00000000
  -V(xc)+E(xc)   XCENC  =      1064.05060073
  PAW double counting   =     31431.91794379   -31532.92016428
  entropy T*S    EENTRO =         0.00000000
  eigenvalues    EBANDS =     -3576.89750973
  atomic energy  EATOM  =     12644.75315347
  Solvation  Ediel_sol  =         0.00000000
  ---------------------------------------------------
  free energy    TOTEN  =      -662.13997439 eV

  energy without entropy =     -662.13997439  energy(sigma->0) =     -662.13997439


--------------------------------------------------------------------------------------------------------




--------------------------------------- Iteration      1(  13)  ---------------------------------------


    POTLOK:  cpu time    0.1432: real time    0.1451
    SETDIJ:  cpu time    0.0101: real time    0.0101
     EDDAV:  cpu time   11.5777: real time   11.7889
 BZINTS: Fermi energy: -2.106192;303.000000 electrons
         Band energy:***********;  BLOECHL correction: -0.006655
       DOS:  cpu time    0.0107: real time    0.0108
    CHARGE:  cpu time    0.1613: real time    0.1625
    MIXING:  cpu time    0.0040: real time    0.0040
    --------------------------------------------
      LOOP:  cpu time   11.9070: real time   12.1214

 eigenvalue-minimisations  :  4384
 total energy-change (2. order) :-0.4381879E-01  (-0.2815892E-01)
 number of electron     302.9999999 magnetization      -1.0382607
 augmentation part       13.4850025 magnetization      -1.0865786

 Broyden mixing:
  rms(total) = 0.33026E+00    rms(broyden)= 0.33017E+00
  rms(prec ) = 0.34091E+00
  weight for this iteration     100.00

 eigenvalues of (default mixing * dielectric matrix)
  average eigenvalue GAMMA=   1.3346
  3.6546  2.5711  1.5222  0.2638  0.2638  0.8636  0.8636  0.6737

 Free energy of the ion-electron system (eV)
  ---------------------------------------------------
  alpha Z        PSCENC =       167.35502620
  Ewald energy   TEWEN  =     28918.64321036
  -Hartree energ DENC   =    -39766.35110983
  -exchange      EXHF   =         0.00000000
  -V(xc)+E(xc)   XCENC  =      1063.77478650
  PAW double counting   =     32171.39371894   -32272.09990962
  entropy T*S    EENTRO =         0.00000000
  eigenvalues    EBANDS =     -3589.65266922
  atomic energy  EATOM  =     12644.75315347
  Solvation  Ediel_sol  =         0.00000000
  ---------------------------------------------------
  free energy    TOTEN  =      -662.18379318 eV

  energy without entropy =     -662.18379318  energy(sigma->0) =     -662.18379318


--------------------------------------------------------------------------------------------------------




--------------------------------------- Iteration      1(  14)  ---------------------------------------


    POTLOK:  cpu time    0.1433: real time    0.1455
    SETDIJ:  cpu time    0.0098: real time    0.0102
     EDDAV:  cpu time   11.7696: real time   11.9214
 BZINTS: Fermi energy: -2.097935;303.000000 electrons
         Band energy:***********;  BLOECHL correction: -0.007315
       DOS:  cpu time    0.0114: real time    0.0115
    CHARGE:  cpu time    0.1865: real time    0.1873
    MIXING:  cpu time    0.0043: real time    0.0043
    --------------------------------------------
      LOOP:  cpu time   12.1250: real time   12.2803

 eigenvalue-minimisations  :  4624
 total energy-change (2. order) :-0.2806990E-01  (-0.5963778E-02)
 number of electron     302.9999999 magnetization      -1.0606058
 augmentation part       13.5114478 magnetization      -1.1383010

 Broyden mixing:
  rms(total) = 0.31024E+00    rms(broyden)= 0.31022E+00
  rms(prec ) = 0.32836E+00
  weight for this iteration     100.00

 eigenvalues of (default mixing * dielectric matrix)
  average eigenvalue GAMMA=   1.3018
  3.6165  2.6771  1.6034  0.2638  0.2638  0.9896  0.9896  0.6561  0.6561

 Free energy of the ion-electron system (eV)
  ---------------------------------------------------
  alpha Z        PSCENC =       167.35502620
  Ewald energy   TEWEN  =     28918.64321036
  -Hartree energ DENC   =    -39770.85649833
  -exchange      EXHF   =         0.00000000
  -V(xc)+E(xc)   XCENC  =      1063.94732681
  PAW double counting   =     32196.82532443   -32297.62261241
  entropy T*S    EENTRO =         0.00000000
  eigenvalues    EBANDS =     -3585.25679361
  atomic energy  EATOM  =     12644.75315347
  Solvation  Ediel_sol  =         0.00000000
  ---------------------------------------------------
  free energy    TOTEN  =      -662.21186308 eV

  energy without entropy =     -662.21186308  energy(sigma->0) =     -662.21186308


--------------------------------------------------------------------------------------------------------




--------------------------------------- Iteration      1(  15)  ---------------------------------------


    POTLOK:  cpu time    0.1423: real time    0.1440
    SETDIJ:  cpu time    0.0087: real time    0.0087
     EDDAV:  cpu time   12.0461: real time   12.1673
 BZINTS: Fermi energy: -2.101141;303.000000 electrons
         Band energy:***********;  BLOECHL correction: -0.007408
       DOS:  cpu time    0.0107: real time    0.0107
    CHARGE:  cpu time    0.1918: real time    0.1932
    MIXING:  cpu time    0.0046: real time    0.0046
    --------------------------------------------
      LOOP:  cpu time   12.4042: real time   12.5286

 eigenvalue-minimisations  :  4720
 total energy-change (2. order) : 0.3165646E-02  (-0.1383839E-02)
 number of electron     302.9999999 magnetization      -1.0690710
 augmentation part       13.4884081 magnetization      -1.1657303

 Broyden mixing:
  rms(total) = 0.25945E+00    rms(broyden)= 0.25944E+00
  rms(prec ) = 0.27425E+00
  weight for this iteration     100.00

 eigenvalues of (default mixing * dielectric matrix)
  average eigenvalue GAMMA=   1.3247
  3.6469  2.7191  1.9156  0.2638  0.2638  1.1217  1.1217  0.6793  0.7577  0.7577

 Free energy of the ion-electron system (eV)
  ---------------------------------------------------
  alpha Z        PSCENC =       167.35502620
  Ewald energy   TEWEN  =     28918.64321036
  -Hartree energ DENC   =    -39770.80834935
  -exchange      EXHF   =         0.00000000
  -V(xc)+E(xc)   XCENC  =      1063.99002822
  PAW double counting   =     32170.84570192   -32271.67563181
  entropy T*S    EENTRO =         0.00000000
  eigenvalues    EBANDS =     -3585.31183645
  atomic energy  EATOM  =     12644.75315347
  Solvation  Ediel_sol  =         0.00000000
  ---------------------------------------------------
  free energy    TOTEN  =      -662.20869743 eV

  energy without entropy =     -662.20869743  energy(sigma->0) =     -662.20869743


--------------------------------------------------------------------------------------------------------




--------------------------------------- Iteration      1(  16)  ---------------------------------------


    POTLOK:  cpu time    0.1336: real time    0.1359
    SETDIJ:  cpu time    0.0087: real time    0.0088
     EDDAV:  cpu time   12.6213: real time   12.7211
 BZINTS: Fermi energy: -2.092387;303.000000 electrons
         Band energy:***********;  BLOECHL correction: -0.006723
       DOS:  cpu time    0.0110: real time    0.0110
    CHARGE:  cpu time    0.1615: real time    0.1660
    MIXING:  cpu time    0.0043: real time    0.0045
    --------------------------------------------
      LOOP:  cpu time   12.9405: real time   13.0474

 eigenvalue-minimisations  :  5032
 total energy-change (2. order) : 0.7390141E-02  (-0.6721843E-03)
 number of electron     302.9999999 magnetization      -1.0567111
 augmentation part       13.4611198 magnetization      -1.1718471

 Broyden mixing:
  rms(total) = 0.21393E+00    rms(broyden)= 0.21393E+00
  rms(prec ) = 0.22284E+00
  weight for this iteration     100.00

 eigenvalues of (default mixing * dielectric matrix)
  average eigenvalue GAMMA=   1.4007
  3.6668  2.6005  2.6005  1.8851  0.2638  0.2638  0.9476  0.9476  0.8437  0.6939
  0.6939

 Free energy of the ion-electron system (eV)
  ---------------------------------------------------
  alpha Z        PSCENC =       167.35502620
  Ewald energy   TEWEN  =     28918.64321036
  -Hartree energ DENC   =    -39772.05179105
  -exchange      EXHF   =         0.00000000
  -V(xc)+E(xc)   XCENC  =      1064.05460635
  PAW double counting   =     32132.19102290   -32233.05378760
  entropy T*S    EENTRO =         0.00000000
  eigenvalues    EBANDS =     -3584.09274792
  atomic energy  EATOM  =     12644.75315347
  Solvation  Ediel_sol  =         0.00000000
  ---------------------------------------------------
  free energy    TOTEN  =      -662.20130729 eV

  energy without entropy =     -662.20130729  energy(sigma->0) =     -662.20130729


[...]
   0.969E+01 -.374E+01 0.319E+01   -.962E+01 0.388E+01 -.310E+01   -.429E-01 -.153E+00 -.935E-01   -.387E-02 0.979E-03 -.221E-02
   0.324E+02 -.128E+01 0.160E+02   -.323E+02 0.171E+01 -.168E+02   -.173E+00 -.311E+00 0.843E+00   -.267E-01 -.125E-01 -.114E-01
   0.313E+02 -.146E+02 0.151E+02   -.305E+02 0.154E+02 -.159E+02   -.845E+00 -.976E+00 0.784E+00   -.276E-01 0.136E-01 -.120E-01
   -.304E+02 0.102E+02 0.179E+02   0.298E+02 -.104E+02 -.185E+02   0.700E+00 0.309E+00 0.612E+00   0.227E-01 -.167E-01 -.119E-01
   -.299E+02 -.128E+02 0.135E+02   0.290E+02 0.132E+02 -.142E+02   0.894E+00 -.498E+00 0.726E+00   0.278E-01 0.778E-02 -.120E-01
   -.854E+01 0.174E+01 0.582E+01   0.848E+01 -.176E+01 -.577E+01   0.534E-01 0.639E-02 -.412E-01   0.333E-02 -.105E-02 -.197E-02
   -.917E+01 -.200E+01 0.584E+01   0.906E+01 0.200E+01 -.577E+01   0.769E-01 0.270E-01 -.683E-01   0.435E-02 0.872E-03 -.200E-02
   -.415E+01 -.419E+01 0.846E+01   0.409E+01 0.418E+01 -.851E+01   0.563E-01 0.541E-02 0.520E-01   0.168E-02 0.214E-02 -.140E-02
   -.247E+01 -.326E+01 0.717E+01   0.241E+01 0.326E+01 -.715E+01   0.426E-01 0.244E-01 -.262E-01   0.150E-02 0.306E-02 -.128E-02
   0.521E+01 -.469E+01 0.662E+01   -.522E+01 0.477E+01 -.666E+01   0.147E-02 -.830E-01 0.416E-01   -.623E-05 0.973E-03 -.145E-02
   0.261E+01 -.387E+01 0.607E+01   -.255E+01 0.392E+01 -.605E+01   -.860E-01 -.410E-01 -.211E-01   -.117E-02 0.189E-02 -.128E-02
   0.148E+02 -.104E+02 0.279E+01   -.145E+02 0.104E+02 -.282E+01   -.241E+00 -.376E-01 0.389E-01   -.775E-02 0.260E-02 -.321E-02
   0.752E+01 -.121E+02 0.595E+01   -.732E+01 0.122E+02 -.594E+01   -.216E+00 -.108E+00 -.252E-01   -.439E-02 0.202E-02 -.227E-02
   -.411E+01 -.421E+02 0.373E+02   0.104E+02 0.388E+02 -.368E+02   -.609E+01 0.313E+01 -.538E+00   -.468E-01 0.506E-01 -.315E-01
   0.192E+01 -.227E+02 0.155E+02   -.160E+01 0.219E+02 -.157E+02   -.321E+00 0.855E+00 0.194E+00   -.895E-02 0.137E-01 -.724E-02
   0.387E+01 -.389E+02 0.216E+02   -.100E+02 0.353E+02 -.207E+02   0.598E+01 0.339E+01 -.106E+01   0.463E-01 0.489E-01 -.301E-01
   -.204E+01 -.222E+02 0.124E+02   0.171E+01 0.213E+02 -.126E+02   0.288E+00 0.964E+00 0.236E+00   0.669E-02 0.179E-01 -.714E-02
   -.157E+02 -.845E+01 0.515E+01   0.154E+02 0.836E+01 -.522E+01   0.253E+00 0.809E-01 0.988E-01   0.882E-02 0.300E-02 -.311E-02
   -.729E+01 -.111E+02 0.742E+01   0.705E+01 0.111E+02 -.738E+01   0.272E+00 -.296E-01 -.364E-01   0.576E-02 0.495E-02 -.240E-02
   -.369E+01 -.241E+01 0.823E+01   0.360E+01 0.231E+01 -.826E+01   0.109E+00 0.573E-01 0.291E-01   0.362E-02 0.340E-02 -.151E-02
   -.231E+01 -.188E+01 0.830E+01   0.227E+01 0.179E+01 -.831E+01   0.699E-01 0.123E+00 0.163E-01   0.195E-02 0.593E-03 -.130E-02
   -.368E+00 -.160E+01 0.676E+01   0.416E+00 0.152E+01 -.678E+01   -.192E-01 0.448E-01 0.260E-01   -.280E-03 0.262E-02 -.112E-02
   -.102E+01 0.140E+01 0.623E+01   0.109E+01 -.148E+01 -.621E+01   -.979E-01 0.941E-01 -.242E-01   -.977E-04 0.132E-02 -.112E-02
   0.241E+01 -.436E+01 0.685E+01   -.230E+01 0.434E+01 -.687E+01   -.669E-01 -.637E-02 0.305E-01   -.361E-02 0.166E-02 -.147E-02
   0.212E+01 -.321E+01 0.761E+01   -.206E+01 0.320E+01 -.762E+01   -.828E-01 0.558E-01 0.177E-01   -.304E-02 0.699E-03 -.128E-02
   0.328E+00 -.109E+02 0.106E+02   0.162E+00 0.107E+02 -.107E+02   -.466E+00 0.209E+00 0.102E+00   -.323E-02 0.395E-02 -.271E-02
   0.316E+01 -.637E+01 0.860E+01   -.307E+01 0.623E+01 -.863E+01   -.919E-01 0.140E+00 0.296E-01   -.125E-02 0.247E-02 -.178E-02
   0.561E+00 -.128E+02 0.670E+01   -.553E+00 0.121E+02 -.636E+01   -.326E-01 0.618E+00 -.354E+00   -.163E-02 0.144E-01 -.535E-02
   0.303E+00 -.902E+01 0.719E+01   -.341E+00 0.863E+01 -.721E+01   0.483E-01 0.424E+00 0.222E-01   0.735E-04 0.294E-02 -.220E-02
   0.728E+00 -.955E+01 0.114E+02   -.125E+01 0.925E+01 -.115E+02   0.484E+00 0.282E+00 0.127E+00   0.535E-02 0.741E-02 -.272E-02
   -.221E+01 -.584E+01 0.918E+01   0.205E+01 0.563E+01 -.923E+01   0.152E+00 0.243E+00 0.458E-01   0.227E-02 0.435E-02 -.180E-02
   -.706E+01 -.214E+02 -.623E+03   0.797E+01 0.215E+02 0.604E+03   -.925E+00 -.102E+00 0.186E+02   0.111E-02 -.153E-01 -.609E-01
   -.639E+02 -.145E+03 0.107E+03   0.712E+02 0.161E+03 -.126E+03   -.774E+01 -.175E+02 0.204E+02   -.408E-03 -.895E-03 0.565E-02
   0.554E+02 0.126E+03 -.139E+03   -.711E+02 -.161E+03 0.180E+03   0.162E+02 0.365E+02 -.426E+02   -.375E-03 -.874E-03 0.370E-02
 -----------------------------------------------------------------------------------------------
   -.771E+01 -.191E+02 0.328E+01   0.142E-13 0.711E-12 0.284E-13   0.771E+01 0.191E+02 -.293E+01   -.990E-03 -.129E-01 -.358E+00
 
 
 POSITION                                       TOTAL-FORCE (eV/Angst)
 -----------------------------------------------------------------------------------
      0.00371      0.00113      7.25322        -0.006601     -0.003005      0.000689
      0.00264      1.42518      7.25365         0.007438     -0.014677     -0.002982
      2.48104      0.02856      7.25265         0.000934     -0.071526     -0.000982
      2.47918      1.44562      7.26427         0.037173      0.020928      0.000288
      4.94754      0.03651      7.25444         0.019161     -0.025099     -0.001027
      4.94395      1.46141      7.26600        -0.001030      0.037480      0.001464
     -0.00007     12.75324      7.25539         0.013745      0.002409      0.007366
      7.42310      1.43616      7.25439        -0.038949     -0.008638      0.007897
      2.47758     12.73200      7.26298         0.027499     -0.012368      0.000306
      9.90356      1.41080      7.25139        -0.008724      0.033746      0.000039
      4.95166     12.73660      7.26448        -0.024246     -0.027472     -0.001585
     12.37574      1.41372      7.25446         0.018532      0.046811     -0.000978
     13.61316      2.13388      7.25579        -0.045040     -0.002465     -0.004692
     -1.23911      3.52597      7.26595        -0.013612      0.000706     -0.015637
      1.24442      2.14930      7.26262        -0.001176     -0.031585     -0.000596
      1.24145      3.56440      7.28658         0.037665      0.026891      0.010737
      3.70205      2.18229      7.28181        -0.000853     -0.065938      0.001455
      3.69435      3.60435      7.32554        -0.017133      0.015779     -0.006218
      6.18326      2.16207      7.26738        -0.005312     -0.021022     -0.006213
      6.17503      3.58405      7.29041        -0.023422      0.012934     -0.010892
      8.66617      2.12839      7.25176         0.027412      0.002984      0.007389
      8.66749      3.54632      7.26046        -0.018461      0.029761      0.002776
     11.13938      2.12264      7.25239         0.010431      0.006403     -0.002113
     11.14031      3.54401      7.25434         0.026461      0.004402     -0.002767
     12.37544      4.25770      7.26282         0.007875     -0.023749     -0.009370
     -2.48380      5.65447      7.26831         0.016809     -0.001477     -0.010998
     -0.00447      4.24471      7.28625        -0.035394      0.017389     -0.000807
     -0.03557      5.65952      7.30890         0.024289     -0.004532      0.036410
      2.46133      4.29961      7.34542         0.020343     -0.038515      0.016730
      2.43481      5.68986      7.46268         0.169925      0.102255     -0.099074
      4.92755      4.33663      7.33611        -0.004081     -0.052927     -0.005970
      4.98520      5.75085      7.41520        -0.109363      0.108222     -0.022787
      7.43153      4.26125      7.28507         0.021295     -0.008333     -0.013965
      7.46289      5.67826      7.30696        -0.019120     -0.006812      0.001039
      9.90681      4.25500      7.25744        -0.007260     -0.020064      0.005398
      9.91592      5.67593      7.26394        -0.005505      0.030541      0.003912
     -3.70994      6.36744      7.26193        -0.002998     -0.011023     -0.006416
     -3.70680      7.78959      7.25986         0.009726      0.001421      0.002925
     -1.26031      6.36958      7.29086        -0.057634      0.023085     -0.001582
     -1.25634      7.79093      7.29723         0.016836     -0.009292     -0.007022
      1.18971      6.34778      7.36934        -0.091595      0.093225      0.035200
      1.20004      7.78697      7.36844        -0.039689     -0.080285      0.009498
      6.24722      6.38644      7.35713         0.068256      0.076952     -0.008117
      6.25107      7.81579      7.36936         0.013356     -0.108915      0.031391
      8.69399      6.39020      7.28590         0.007277     -0.007377      0.005288
      8.69749      7.80966      7.28681        -0.027489      0.025651      0.000192
     -4.93289      8.50250      7.26148         0.003295     -0.000186      0.003044
     -4.93922      9.92487      7.25684        -0.014546      0.030374      0.000476
     -2.47928      8.50472      7.26872        -0.004617     -0.002810     -0.001383
     -2.47521      9.92722      7.26210        -0.024086      0.010760      0.002413
     -0.02501      8.49911      7.32434        -0.011297     -0.008667      0.005119
     -0.00743      9.91884      7.29368        -0.019993     -0.005410     -0.009512
      2.44623      8.44631      7.41102         0.143691     -0.114827     -0.009800
      2.48046      9.86230      7.33236         0.002000      0.062903     -0.012034
      4.99927      8.46039      7.44297        -0.118038     -0.137284     -0.107208
      4.95880      9.87194      7.34260        -0.043614      0.063500      0.008479
      7.47014      8.52344      7.31547         0.031276     -0.004578      0.028593
      7.44604      9.93971      7.28718         0.041151     -0.025587      0.000788
     -6.17571     10.63325      7.26007         0.021383     -0.038888      0.000649
     -6.18075     12.05021      7.25147         0.030416      0.040272      0.003281
     -3.70826     10.63948      7.25375         0.029155     -0.026427     -0.002964
     -3.70921     12.06162      7.25300        -0.021924      0.018549     -0.005991
     -1.24171     10.63676      7.26654         0.037069     -0.018536      0.004801
     -1.24171     12.05757      7.25529        -0.027838      0.038021      0.005207
      1.24112     10.60354      7.28977         0.021973     -0.020486     -0.003477
      1.23820     12.02918      7.26551        -0.002591      0.004186     -0.002403
      3.71807     10.59073      7.32546        -0.026230     -0.009648     -0.017903
      3.71497     12.01059      7.28077         0.009808      0.029052     -0.006767
      6.19597     10.61643      7.28807        -0.034790     -0.006514      0.016326
      6.19378     12.03972      7.26373        -0.005749      0.041391     -0.001498
      3.70922      7.08827      8.11805        -0.013060      0.019521      0.163429
      3.70922      7.08827     14.09805        -0.488825     -1.105754      1.267351
      3.38821      6.36243     14.94338         0.488229      1.104192     -1.274611
 -----------------------------------------------------------------------------------
    total drift:                               -0.001796     -0.001907     -0.006493


--------------------------------------------------------------------------------------------------------



  FREE ENERGIE OF THE ION-ELECTRON SYSTEM (eV)
  ---------------------------------------------------
  free  energy   TOTEN  =      -668.61849176 eV

  energy  without entropy=     -668.61849176  energy(sigma->0) =     -668.61849176
 


--------------------------------------------------------------------------------------------------------


    POTLOK:  cpu time    0.1470: real time    0.1474


--------------------------------------------------------------------------------------------------------


 stress matrix after NEB project (eV)
     -3.08613     -0.36008      0.39332
     -0.36008     -2.69741      0.91773
      0.39332      0.91773     -4.57288
  FORCES: max atom, RMS     1.755631    0.297570
  FORCE total and by dimension    2.542437    1.274611
  Stress total and by dimension    6.321757    4.572877
     LOOP+:  cpu time  291.2297: real time  294.6878
    4ORBIT:  cpu time    0.0000: real time    0.0000
 


 total charge     
 
# of ion       s       p       d       tot
------------------------------------------
    1        0.864   1.781   0.000   2.645
    2        0.863   1.782   0.000   2.645
    3        0.864   1.789   0.000   2.653
    4        0.865   1.791   0.000   2.656
    5        0.863   1.781   0.000   2.644
    6        0.862   1.781   0.000   2.642
    7        0.864   1.779   0.000   2.643
    8        0.863   1.779   0.000   2.642
    9        0.864   1.784   0.000   2.648
   10        0.864   1.784   0.000   2.648
   11        0.864   1.784   0.000   2.648
   12        0.864   1.785   0.000   2.649
   13        0.866   1.791   0.000   2.657
   14        0.864   1.789   0.000   2.653
   15        0.862   1.791   0.000   2.653
   16        0.853   1.747   0.000   2.600
   17        0.861   1.779   0.000   2.640
   18        0.851   1.742   0.000   2.592
   19        0.863   1.780   0.000   2.643
   20        0.860   1.763   0.000   2.623
   21        0.865   1.788   0.000   2.653
   22        0.865   1.786   0.000   2.651
   23        0.865   1.787   0.000   2.652
   24        0.865   1.786   0.000   2.652
   25        0.864   1.788   0.000   2.652
   26        0.868   1.796   0.000   2.665
   27        0.865   1.797   0.000   2.662
   28        0.872   1.807   0.000   2.679
   29        1.213   2.679   0.000   3.892
   30        0.866   1.656   0.000   2.523
   31        0.857   1.757   0.000   2.614
   32        0.874   1.682   0.000   2.556
   33        0.865   1.786   0.000   2.652
   34        0.871   1.802   0.000   2.673
   35        0.864   1.789   0.000   2.653
   36        0.868   1.796   0.000   2.664
   37        0.867   1.796   0.000   2.663
   38        0.868   1.793   0.000   2.661
   39        0.867   1.802   0.000   2.670
   40        0.868   1.795   0.000   2.663
   41        0.873   1.793   0.000   2.666
   42        0.872   1.779   0.000   2.652
   43        0.876   1.791   0.000   2.668
   44        0.878   1.788   0.000   2.666
   45        0.868   1.798   0.000   2.666
   46        0.868   1.796   0.000   2.664
   47        0.867   1.798   0.000   2.665
   48        0.866   1.787   0.000   2.653
   49        0.867   1.796   0.000   2.663
   50        0.865   1.790   0.000   2.655
   51        0.869   1.795   0.000   2.664
   52        0.866   1.787   0.000   2.652
   53        0.872   1.687   0.000   2.559
   54        0.861   1.758   0.000   2.619
   55        0.874   1.685   0.000   2.559
   56        0.863   1.761   0.000   2.624
   57        0.871   1.804   0.000   2.675
   58        0.867   1.792   0.000   2.659
   59        0.866   1.791   0.000   2.657
   60        0.866   1.789   0.000   2.655
   61        0.866   1.789   0.000   2.654
   62        0.865   1.788   0.000   2.653
   63        0.865   1.787   0.000   2.652
   64        0.864   1.785   0.000   2.649
   65        0.863   1.769   0.000   2.633
   66        0.863   1.779   0.000   2.642
   67        0.864   1.774   0.000   2.638
   68        0.863   1.775   0.000   2.638
   69        0.864   1.774   0.000   2.637
   70        0.863   1.780   0.000   2.644
   71        0.383   6.293   4.290  10.965
   72        1.036   1.403   0.000   2.439
   73        1.637   3.515   0.000   5.152
--------------------------------------------------
tot         63.995 136.628   4.290 204.913
 


 magnetization (x)
 
# of ion       s       p       d       tot
------------------------------------------
    1        0.000   0.003   0.000   0.003
    2       -0.000  -0.001   0.000  -0.001
    3       -0.000   0.001   0.000   0.001
    4        0.000   0.006   0.000   0.006
    5       -0.000   0.001   0.000   0.001
    6        0.000   0.006   0.000   0.006
    7        0.000   0.002   0.000   0.003
    8       -0.000  -0.000   0.000  -0.000
    9        0.001   0.009   0.000   0.010
   10       -0.000   0.001   0.000   0.000
   11        0.000   0.009   0.000   0.009
   12       -0.000  -0.000   0.000  -0.000
   13        0.000   0.002   0.000   0.002
   14        0.000   0.002   0.000   0.002
   15        0.000   0.003   0.000   0.004
   16        0.000   0.002   0.000   0.003
   17       -0.000  -0.002   0.000  -0.002
   18        0.001   0.021   0.000   0.022
   19        0.000   0.004   0.000   0.004
   20        0.001   0.005   0.000   0.006
   21        0.000   0.001   0.000   0.001
   22        0.000   0.003   0.000   0.003
   23        0.001   0.009   0.000   0.010
   24       -0.000  -0.003   0.000  -0.003
   25        0.001   0.011   0.000   0.011
   26       -0.000   0.000   0.000   0.000
   27        0.000   0.004   0.000   0.004
   28       -0.000   0.000   0.000  -0.000
   29       -0.001  -0.006   0.000  -0.007
   30        0.015   0.076   0.000   0.091
   31       -0.001  -0.007   0.000  -0.008
   32        0.014   0.077   0.000   0.092
   33        0.000   0.002   0.000   0.002
   34        0.000  -0.000   0.000  -0.000
   35        0.001   0.010   0.000   0.010
   36       -0.000   0.002   0.000   0.002
   37        0.000   0.001   0.000   0.001
   38       -0.000  -0.000   0.000  -0.000
   39        0.000   0.008   0.000   0.008
   40        0.000   0.007   0.000   0.008
   41       -0.000   0.016   0.000   0.016
   42       -0.001   0.010   0.000   0.009
   43       -0.000   0.013   0.000   0.013
   44       -0.001   0.011   0.000   0.010
   45        0.000   0.007   0.000   0.007
   46        0.000   0.005   0.000   0.005
   47        0.000   0.002   0.000   0.002
   48        0.000   0.008   0.000   0.009
   49        0.000   0.002   0.000   0.002
   50        0.000   0.007   0.000   0.007
   51        0.000   0.002   0.000   0.002
   52       -0.000  -0.001   0.000  -0.001
   53        0.015   0.088   0.000   0.103
   54       -0.001  -0.007   0.000  -0.008
   55        0.015   0.087   0.000   0.102
   56       -0.001  -0.007   0.000  -0.008
   57        0.000   0.003   0.000   0.003
   58       -0.000  -0.000   0.000  -0.000
   59        0.000   0.004   0.000   0.004
   60       -0.000   0.001   0.000   0.001
   61       -0.000  -0.000   0.000  -0.000
   62        0.000   0.005   0.000   0.005
   63        0.000   0.004   0.000   0.004
   64        0.000   0.001   0.000   0.002
   65        0.001   0.005   0.000   0.006
   66        0.000   0.001   0.000   0.001
   67        0.002   0.029   0.000   0.030
   68       -0.001  -0.006   0.000  -0.007
   69        0.001   0.006   0.000   0.007
   70        0.000   0.001   0.000   0.002
   71       -0.034   0.009  -1.883  -1.909
   72        0.000  -0.000   0.000   0.000
   73        0.000   0.000   0.000   0.000
--------------------------------------------------
tot          0.031   0.576  -1.883  -1.277
 
 BZINTS: Fermi energy: -2.079011;303.000000 electrons
         Band energy:***********;  BLOECHL correction: -0.004227

 total amount of memory used by VASP MPI-rank0   116147. kBytes
=======================================================================

   base      :      30000. kBytes
   nonl-proj :      27330. kBytes
   fftplans  :       4700. kBytes
   grid      :      15193. kBytes
   one-center:        217. kBytes
   wavefun   :      38707. kBytes
 
  
  
 General timing and accounting informations for this job:
 ========================================================
  
                  Total CPU time used (sec):      308.810
                            User time (sec):      299.257
                          System time (sec):        9.553
                         Elapsed time (sec):      321.217
  
                   Maximum memory used (kb):      474176.
                   Average memory used (kb):           0.
  
                          Minor page faults:      1648392
                          Major page faults:            0
                 Voluntary context switches:         8586
