       N       E                     dE             d eps       ncg     rms          rms(c)
DAV:   1     0.255570483318E+04    0.25557E+04   -0.11143E+05  4328   0.107E+03
DAV:   2    -0.235112291641E+03   -0.27908E+04   -0.26646E+04  5536   0.280E+02
DAV:   3    -0.701968681982E+03   -0.46686E+03   -0.46353E+03  4560   0.121E+02
DAV:   4    -0.718880199352E+03   -0.16912E+02   -0.16764E+02  4648   0.283E+01
DAV:   5    -0.719428457895E+03   -0.54826E+00   -0.54659E+00  5240   0.431E+00    0.476E+01
DAV:   6    -0.718706050893E+03    0.72241E+00   -0.87070E+01  4864   0.272E+01    0.741E+01
DAV:   7    -0.673451950781E+03    0.45254E+02   -0.63875E+01  4920   0.535E+01    0.265E+01
DAV:   8    -0.669503985501E+03    0.39480E+01   -0.34846E+01  4848   0.130E+01    0.259E+01
DAV:   9    -0.664803769783E+03    0.47002E+01   -0.24737E+01  4592   0.140E+01    0.212E+01
DAV:  10    -0.662072593567E+03    0.27312E+01   -0.19841E+01  5256   0.136E+01    0.111E+01
DAV:  11    -0.661553743278E+03    0.51885E+00   -0.12830E+00  5344   0.296E+00    0.686E+00
DAV:  12    -0.661892608837E+03   -0.33887E+00   -0.64186E-01  4640   0.187E+00    0.642E+00
DAV:  13    -0.662031285229E+03   -0.13868E+00   -0.33832E-01  5024   0.141E+00    0.446E+00
DAV:  14    -0.662044456868E+03   -0.13172E-01   -0.10977E-01  4624   0.751E-01    0.357E+00
DAV:  15    -0.662026122308E+03    0.18335E-01   -0.80970E-02  4672   0.602E-01    0.257E+00
DAV:  16    -0.662016653548E+03    0.94688E-02   -0.11307E-02  4576   0.244E-01    0.215E+00
DAV:  17    -0.662000420479E+03    0.16233E-01   -0.64040E-03  5376   0.243E-01    0.176E+00
DAV:  18    -0.661986214366E+03    0.14206E-01   -0.76520E-03  5232   0.255E-01    0.129E+00
DAV:  19    -0.661974733542E+03    0.11481E-01   -0.11321E-02  5248   0.299E-01    0.631E-01
DAV:  20    -0.661972830066E+03    0.19035E-02   -0.22474E-03  4736   0.129E-01    0.374E-01
DAV:  21    -0.661971610420E+03    0.12196E-02   -0.18820E-03  4168   0.133E-01    0.125E-01
DAV:  22    -0.661971729009E+03   -0.11859E-03   -0.52169E-04  3680   0.515E-02    0.600E-02
DAV:  23    -0.661971748915E+03   -0.19906E-04   -0.54585E-05  2696   0.235E-02
   1 F= -.66839805E+03 E0= -.66839805E+03  d E =0.000000E+00  mag=    -1.0002
