  71  71   0   0
  0.4004927E+02  0.1486116E-08  0.1476396E-08  0.1500000E-08  0.3000000E-15
  1.000000000000000E-004
  CAR 
 unknown system                          
      5.28161110    -48.59219284  301     -2.07690246      1.00000000
    -48.592  0.0000E+00  0.0000E+00  0.0000E+00  0.0000E+00
    -48.413  0.0000E+00  0.0000E+00  0.0000E+00  0.0000E+00
    -48.233  0.0000E+00  0.0000E+00  0.0000E+00  0.0000E+00
    -48.053  0.0000E+00  0.0000E+00  0.0000E+00  0.0000E+00
    -47.874  0.0000E+00  0.0000E+00  0.0000E+00  0.0000E+00
    -47.694  0.0000E+00  0.0000E+00  0.0000E+00  0.0000E+00
    -47.515  0.0000E+00  0.0000E+00  0.0000E+00  0.0000E+00
    -47.335  0.0000E+00  0.0000E+00  0.0000E+00  0.0000E+00
    -47.156  0.0000E+00  0.0000E+00  0.0000E+00  0.0000E+00
    -46.976  0.0000E+00  0.0000E+00  0.0000E+00  0.0000E+00
    -46.796  0.0000E+00  0.0000E+00  0.0000E+00  0.0000E+00
    -46.617  0.0000E+00  0.1495E-12  0.0000E+00  0.2685E-13
    -46.437  0.0000E+00  0.2255E-06  0.0000E+00  0.4049E-07
    -46.258  0.0000E+00  0.7378E-03  0.0000E+00  0.1325E-03
    -46.078  0.0000E+00  0.1081E-01  0.0000E+00  0.2074E-02
    -45.899  0.0000E+00  0.1207E-01  0.0000E+00  0.4241E-02
    -45.719  0.0000E+00  0.1721E-01  0.0000E+00  0.7332E-02
    -45.539  0.0000E+00  0.9364E-03  0.0000E+00  0.7500E-02
    -45.360  0.0000E+00  0.3310E-06  0.0000E+00  0.7500E-02
    -45.180  0.0000E+00  0.2712E-12  0.0000E+00  0.7500E-02
    -45.001  0.0000E+00  0.0000E+00  0.0000E+00  0.7500E-02
    -44.821  0.0000E+00  0.0000E+00  0.0000E+00  0.7500E-02
    -44.641  0.0000E+00  0.0000E+00  0.0000E+00  0.7500E-02
    -44.462  0.4753E-12  0.0000E+00  0.8536E-13  0.7500E-02
    -44.282  0.4702E-06  0.0000E+00  0.8444E-07  0.7500E-02
    -44.103  0.1033E-02  0.0000E+00  0.1855E-03  0.7500E-02
    -43.923  0.1118E-01  0.0000E+00  0.2193E-02  0.7500E-02
    -43.744  0.1121E-01  0.0000E+00  0.4207E-02  0.7500E-02
    -43.564  0.1561E-01  0.0000E+00  0.7010E-02  0.7500E-02
    -43.384  0.2723E-02  0.0000E+00  0.7499E-02  0.7500E-02
    -43.205  0.4641E-05  0.0000E+00  0.7500E-02  0.7500E-02
    -43.025  0.1953E-10  0.0000E+00  0.7500E-02  0.7500E-02
    -42.846  0.0000E+00  0.0000E+00  0.7500E-02  0.7500E-02
    -42.666  0.0000E+00  0.0000E+00  0.7500E-02  0.7500E-02
    -42.486  0.0000E+00  0.0000E+00  0.7500E-02  0.7500E-02
    -42.307  0.0000E+00  0.0000E+00  0.7500E-02  0.7500E-02
    -42.127  0.0000E+00  0.0000E+00  0.7500E-02  0.7500E-02
    -41.948  0.0000E+00  0.0000E+00  0.7500E-02  0.7500E-02
    -41.768  0.0000E+00  0.0000E+00  0.7500E-02  0.7500E-02
    -41.589  0.0000E+00  0.0000E+00  0.7500E-02  0.7500E-02
    -41.409  0.0000E+00  0.0000E+00  0.7500E-02  0.7500E-02
    -41.229  0.0000E+00  0.0000E+00  0.7500E-02  0.7500E-02
    -41.050  0.0000E+00  0.0000E+00  0.7500E-02  0.7500E-02
    -40.870  0.0000E+00  0.0000E+00  0.7500E-02  0.7500E-02
    -40.691  0.0000E+00  0.0000E+00  0.7500E-02  0.7500E-02
    -40.511  0.0000E+00  0.0000E+00  0.7500E-02  0.7500E-02
    -40.332  0.0000E+00  0.0000E+00  0.7500E-02  0.7500E-02
    -40.152  0.0000E+00  0.0000E+00  0.7500E-02  0.7500E-02
    -39.972  0.0000E+00  0.0000E+00  0.7500E-02  0.7500E-02
    -39.793  0.0000E+00  0.0000E+00  0.7500E-02  0.7500E-02
    -39.613  0.0000E+00  0.0000E+00  0.7500E-02  0.7500E-02
    -39.434  0.0000E+00  0.0000E+00  0.7500E-02  0.7500E-02
    -39.254  0.0000E+00  0.0000E+00  0.7500E-02  0.7500E-02
    -39.074  0.0000E+00  0.0000E+00  0.7500E-02  0.7500E-02
    -38.895  0.0000E+00  0.0000E+00  0.7500E-02  0.7500E-02
    -38.715  0.0000E+00  0.0000E+00  0.7500E-02  0.7500E-02
    -38.536  0.0000E+00  0.0000E+00  0.7500E-02  0.7500E-02
    -38.356  0.0000E+00  0.0000E+00  0.7500E-02  0.7500E-02
    -38.177  0.0000E+00  0.0000E+00  0.7500E-02  0.7500E-02
    -37.997  0.0000E+00  0.0000E+00  0.7500E-02  0.7500E-02
    -37.817  0.0000E+00  0.0000E+00  0.7500E-02  0.7500E-02
    -37.638  0.0000E+00  0.0000E+00  0.7500E-02  0.7500E-02
    -37.458  0.0000E+00  0.0000E+00  0.7500E-02  0.7500E-02
    -37.279  0.0000E+00  0.0000E+00  0.7500E-02  0.7500E-02
    -37.099  0.0000E+00  0.0000E+00  0.7500E-02  0.7500E-02
    -36.920  0.0000E+00  0.0000E+00  0.7500E-02  0.7500E-02
    -36.740  0.0000E+00  0.0000E+00  0.7500E-02  0.7500E-02
    -36.560  0.0000E+00  0.0000E+00  0.7500E-02  0.7500E-02
    -36.381  0.0000E+00  0.0000E+00  0.7500E-02  0.7500E-02
    -36.201  0.0000E+00  0.0000E+00  0.7500E-02  0.7500E-02
    -36.022  0.0000E+00  0.0000E+00  0.7500E-02  0.7500E-02
    -35.842  0.0000E+00  0.0000E+00  0.7500E-02  0.7500E-02
    -35.662  0.0000E+00  0.0000E+00  0.7500E-02  0.7500E-02
    -35.483  0.0000E+00  0.0000E+00  0.7500E-02  0.7500E-02
    -35.303  0.0000E+00  0.0000E+00  0.7500E-02  0.7500E-02
    -35.124  0.0000E+00  0.0000E+00  0.7500E-02  0.7500E-02
    -34.944  0.0000E+00  0.0000E+00  0.7500E-02  0.7500E-02
    -34.765  0.0000E+00  0.0000E+00  0.7500E-02  0.7500E-02
    -34.585  0.0000E+00  0.0000E+00  0.7500E-02  0.7500E-02
    -34.405  0.0000E+00  0.0000E+00  0.7500E-02  0.7500E-02
    -34.226  0.0000E+00  0.0000E+00  0.7500E-02  0.7500E-02
    -34.046  0.0000E+00  0.0000E+00  0.7500E-02  0.7500E-02
    -33.867  0.0000E+00  0.0000E+00  0.7500E-02  0.7500E-02
    -33.687  0.0000E+00  0.0000E+00  0.7500E-02  0.7500E-02
    -33.508  0.0000E+00  0.0000E+00  0.7500E-02  0.7500E-02
    -33.328  0.0000E+00  0.0000E+00  0.7500E-02  0.7500E-02
    -33.148  0.0000E+00  0.0000E+00  0.7500E-02  0.7500E-02
    -32.969  0.0000E+00  0.0000E+00  0.7500E-02  0.7500E-02
    -32.789  0.0000E+00  0.0000E+00  0.7500E-02  0.7500E-02
    -32.610  0.0000E+00  0.0000E+00  0.7500E-02  0.7500E-02
    -32.430  0.0000E+00  0.0000E+00  0.7500E-02  0.7500E-02
    -32.250  0.0000E+00  0.0000E+00  0.7500E-02  0.7500E-02
    -32.071  0.0000E+00  0.0000E+00  0.7500E-02  0.7500E-02
    -31.891  0.0000E+00  0.0000E+00  0.7500E-02  0.7500E-02
    -31.712  0.0000E+00  0.0000E+00  0.7500E-02  0.7500E-02
    -31.532  0.0000E+00  0.0000E+00  0.7500E-02  0.7500E-02
    -31.353  0.0000E+00  0.0000E+00  0.7500E-02  0.7500E-02
    -31.173  0.0000E+00  0.0000E+00  0.7500E-02  0.7500E-02
    -30.993  0.0000E+00  0.0000E+00  0.7500E-02  0.7500E-02
    -30.814  0.0000E+00  0.0000E+00  0.7500E-02  0.7500E-02
    -30.634  0.0000E+00  0.0000E+00  0.7500E-02  0.7500E-02
    -30.455  0.0000E+00  0.0000E+00  0.7500E-02  0.7500E-02
    -30.275  0.0000E+00  0.0000E+00  0.7500E-02  0.7500E-02
    -30.096  0.0000E+00  0.0000E+00  0.7500E-02  0.7500E-02
    -29.916  0.0000E+00  0.0000E+00  0.7500E-02  0.7500E-02
    -29.736  0.0000E+00  0.0000E+00  0.7500E-02  0.7500E-02
    -29.557  0.0000E+00  0.0000E+00  0.7500E-02  0.7500E-02
    -29.377  0.0000E+00  0.0000E+00  0.7500E-02  0.7500E-02
    -29.198  0.0000E+00  0.0000E+00  0.7500E-02  0.7500E-02
    -29.018  0.0000E+00  0.0000E+00  0.7500E-02  0.7500E-02
    -28.838  0.0000E+00  0.0000E+00  0.7500E-02  0.7500E-02
    -28.659  0.0000E+00  0.0000E+00  0.7500E-02  0.7500E-02
    -28.479  0.0000E+00  0.0000E+00  0.7500E-02  0.7500E-02
    -28.300  0.0000E+00  0.0000E+00  0.7500E-02  0.7500E-02
    -28.120  0.0000E+00  0.0000E+00  0.7500E-02  0.7500E-02
    -27.941  0.0000E+00  0.0000E+00  0.7500E-02  0.7500E-02
    -27.761  0.0000E+00  0.0000E+00  0.7500E-02  0.7500E-02
    -27.581  0.0000E+00  0.0000E+00  0.7500E-02  0.7500E-02
    -27.402  0.0000E+00  0.0000E+00  0.7500E-02  0.7500E-02
    -27.222  0.0000E+00  0.0000E+00  0.7500E-02  0.7500E-02
    -27.043  0.0000E+00  0.0000E+00  0.7500E-02  0.7500E-02
    -26.863  0.0000E+00  0.0000E+00  0.7500E-02  0.7500E-02
    -26.684  0.0000E+00  0.0000E+00  0.7500E-02  0.7500E-02
    -26.504  0.0000E+00  0.0000E+00  0.7500E-02  0.7500E-02
    -26.324  0.0000E+00  0.0000E+00  0.7500E-02  0.7500E-02
    -26.145  0.0000E+00  0.0000E+00  0.7500E-02  0.7500E-02
    -25.965  0.0000E+00  0.0000E+00  0.7500E-02  0.7500E-02
    -25.786  0.0000E+00  0.0000E+00  0.7500E-02  0.7500E-02
    -25.606  0.0000E+00  0.0000E+00  0.7500E-02  0.7500E-02
    -25.426  0.0000E+00  0.0000E+00  0.7500E-02  0.7500E-02
    -25.247  0.0000E+00  0.0000E+00  0.7500E-02  0.7500E-02
    -25.067  0.0000E+00  0.0000E+00  0.7500E-02  0.7500E-02
    -24.888  0.0000E+00  0.0000E+00  0.7500E-02  0.7500E-02
    -24.708  0.9274E-17  0.3864E-17  0.7500E-02  0.7500E-02
    -24.529  0.3387E-09  0.1830E-09  0.7500E-02  0.7500E-02
    -24.349  0.2464E-04  0.1731E-04  0.7504E-02  0.7503E-02
    -24.169  0.4891E-02  0.4351E-02  0.8383E-02  0.8284E-02
    -23.990  0.8793E-02  0.9276E-02  0.9962E-02  0.9950E-02
    -23.810  0.2127E-03  0.2780E-03  0.1000E-01  0.1000E-01
    -23.631  0.1790E-07  0.3026E-07  0.1000E-01  0.1000E-01
    -23.451  0.3077E-14  0.6803E-14  0.1000E-01  0.1000E-01
    -23.272  0.0000E+00  0.0000E+00  0.1000E-01  0.1000E-01
    -23.092  0.0000E+00  0.0000E+00  0.1000E-01  0.1000E-01
    -22.912  0.0000E+00  0.0000E+00  0.1000E-01  0.1000E-01
    -22.733  0.0000E+00  0.0000E+00  0.1000E-01  0.1000E-01
    -22.553  0.0000E+00  0.0000E+00  0.1000E-01  0.1000E-01
    -22.374  0.0000E+00  0.0000E+00  0.1000E-01  0.1000E-01
    -22.194  0.0000E+00  0.0000E+00  0.1000E-01  0.1000E-01
    -22.014  0.1601E-14  0.1262E-14  0.1000E-01  0.1000E-01
    -21.835  0.9518E-08  0.8101E-08  0.1000E-01  0.1000E-01
    -21.655  0.1239E-03  0.1137E-03  0.1002E-01  0.1002E-01
    -21.476  0.6878E-02  0.6702E-02  0.1126E-01  0.1122E-01
    -21.296  0.1360E-01  0.1360E-01  0.1370E-01  0.1367E-01
    -21.117  0.1305E-01  0.1291E-01  0.1604E-01  0.1599E-01
    -20.937  0.1471E-01  0.1475E-01  0.1869E-01  0.1863E-01
    -20.757  0.8443E-02  0.8452E-02  0.2020E-01  0.2015E-01
    -20.578  0.1589E-01  0.1558E-01  0.2306E-01  0.2295E-01
    -20.398  0.1813E-01  0.1827E-01  0.2631E-01  0.2623E-01
    -20.219  0.8934E-02  0.9194E-02  0.2792E-01  0.2788E-01
    -20.039  0.1163E-01  0.1119E-01  0.3001E-01  0.2989E-01
    -19.859  0.1410E-01  0.1428E-01  0.3254E-01  0.3246E-01
    -19.680  0.1637E-01  0.1635E-01  0.3548E-01  0.3539E-01
    -19.500  0.1472E-01  0.1478E-01  0.3812E-01  0.3805E-01
    -19.321  0.9704E-02  0.9589E-02  0.3986E-01  0.3977E-01
    -19.141  0.1576E-01  0.1575E-01  0.4269E-01  0.4260E-01
    -18.962  0.1185E-01  0.1170E-01  0.4482E-01  0.4470E-01
    -18.782  0.1383E-01  0.1386E-01  0.4730E-01  0.4719E-01
    -18.602  0.1709E-01  0.1717E-01  0.5037E-01  0.5027E-01
    -18.423  0.1254E-01  0.1285E-01  0.5262E-01  0.5258E-01
    -18.243  0.1748E-01  0.1665E-01  0.5576E-01  0.5557E-01
    -18.064  0.1309E-01  0.1343E-01  0.5811E-01  0.5798E-01
    -17.884  0.1405E-01  0.1425E-01  0.6063E-01  0.6054E-01
    -17.705  0.7160E-02  0.7223E-02  0.6192E-01  0.6184E-01
    -17.525  0.1968E-01  0.1936E-01  0.6545E-01  0.6531E-01
    -17.345  0.1813E-01  0.1823E-01  0.6871E-01  0.6859E-01
    -17.166  0.1624E-01  0.1614E-01  0.7163E-01  0.7149E-01
    -16.986  0.1620E-01  0.1637E-01  0.7453E-01  0.7443E-01
    -16.807  0.1751E-01  0.1749E-01  0.7768E-01  0.7757E-01
    -16.627  0.1215E-01  0.1222E-01  0.7986E-01  0.7976E-01
    -16.447  0.1135E-01  0.1104E-01  0.8190E-01  0.8174E-01
    -16.268  0.1313E-01  0.1333E-01  0.8426E-01  0.8414E-01
    -16.088  0.1775E-01  0.1738E-01  0.8745E-01  0.8726E-01
    -15.909  0.1586E-01  0.1624E-01  0.9029E-01  0.9018E-01
    -15.729  0.1056E-01  0.1044E-01  0.9219E-01  0.9205E-01
    -15.550  0.7148E-02  0.7547E-02  0.9347E-01  0.9341E-01
    -15.370  0.8275E-02  0.7777E-02  0.9496E-01  0.9480E-01
    -15.190  0.1214E-01  0.1215E-01  0.9714E-01  0.9699E-01
    -15.011  0.1842E-01  0.1868E-01  0.1004E+00  0.1003E+00
    -14.831  0.1855E-01  0.1845E-01  0.1038E+00  0.1037E+00
    -14.652  0.1128E-01  0.1156E-01  0.1058E+00  0.1057E+00
    -14.472  0.1560E-01  0.1523E-01  0.1086E+00  0.1085E+00
    -14.293  0.1533E-01  0.1518E-01  0.1114E+00  0.1112E+00
    -14.113  0.1859E-01  0.1900E-01  0.1147E+00  0.1146E+00
    -13.933  0.1303E-01  0.1260E-01  0.1170E+00  0.1169E+00
    -13.754  0.1977E-01  0.2009E-01  0.1206E+00  0.1205E+00
    -13.574  0.1046E-01  0.1051E-01  0.1225E+00  0.1224E+00
    -13.395  0.1904E-01  0.1869E-01  0.1259E+00  0.1257E+00
    -13.215  0.9975E-02  0.1030E-01  0.1277E+00  0.1276E+00
    -13.035  0.9741E-02  0.9843E-02  0.1294E+00  0.1293E+00
    -12.856  0.1267E-01  0.1235E-01  0.1317E+00  0.1315E+00
    -12.676  0.2310E-01  0.2302E-01  0.1358E+00  0.1357E+00
    -12.497  0.1582E-01  0.1613E-01  0.1387E+00  0.1386E+00
    -12.317  0.1030E-01  0.1065E-01  0.1405E+00  0.1405E+00
    -12.138  0.9125E-02  0.8966E-02  0.1422E+00  0.1421E+00
    -11.958  0.1491E-01  0.1474E-01  0.1449E+00  0.1448E+00
    -11.778  0.1968E-01  0.1942E-01  0.1484E+00  0.1482E+00
    -11.599  0.2755E-01  0.2717E-01  0.1533E+00  0.1531E+00
    -11.419  0.1949E-01  0.2030E-01  0.1568E+00  0.1568E+00
    -11.240  0.5587E-02  0.5820E-02  0.1578E+00  0.1578E+00
    -11.060  0.1363E-01  0.1318E-01  0.1603E+00  0.1602E+00
    -10.881  0.2013E-01  0.2020E-01  0.1639E+00  0.1638E+00
    -10.701  0.1763E-01  0.1759E-01  0.1671E+00  0.1670E+00
    -10.521  0.1407E-01  0.1384E-01  0.1696E+00  0.1694E+00
    -10.342  0.3541E-01  0.3483E-01  0.1760E+00  0.1757E+00
    -10.162  0.2140E-01  0.2249E-01  0.1798E+00  0.1797E+00
     -9.983  0.2066E-01  0.2004E-01  0.1835E+00  0.1833E+00
     -9.803  0.2180E-01  0.2217E-01  0.1874E+00  0.1873E+00
     -9.623  0.2175E-01  0.2164E-01  0.1913E+00  0.1912E+00
     -9.444  0.3425E-01  0.3431E-01  0.1975E+00  0.1974E+00
     -9.264  0.3062E-01  0.3068E-01  0.2030E+00  0.2029E+00
     -9.085  0.2887E-01  0.2850E-01  0.2082E+00  0.2080E+00
     -8.905  0.3535E-01  0.3564E-01  0.2145E+00  0.2144E+00
     -8.726  0.3384E-01  0.3373E-01  0.2206E+00  0.2205E+00
     -8.546  0.4500E-01  0.4390E-01  0.2287E+00  0.2283E+00
     -8.366  0.5544E-01  0.5639E-01  0.2386E+00  0.2385E+00
     -8.187  0.3222E-01  0.3249E-01  0.2444E+00  0.2443E+00
     -8.007  0.2970E-01  0.2913E-01  0.2497E+00  0.2495E+00
     -7.828  0.3081E-01  0.3136E-01  0.2553E+00  0.2552E+00
     -7.648  0.2256E-01  0.2264E-01  0.2593E+00  0.2592E+00
     -7.469  0.3695E-01  0.3659E-01  0.2660E+00  0.2658E+00
     -7.289  0.3375E-01  0.3406E-01  0.2720E+00  0.2719E+00
     -7.109  0.2988E-01  0.3053E-01  0.2774E+00  0.2774E+00
     -6.930  0.3766E-01  0.3704E-01  0.2842E+00  0.2840E+00
     -6.750  0.2049E-01  0.2065E-01  0.2878E+00  0.2878E+00
     -6.571  0.1414E-01  0.1461E-01  0.2904E+00  0.2904E+00
     -6.391  0.1919E-01  0.2026E-01  0.2938E+00  0.2940E+00
     -6.211  0.4013E-01  0.4004E-01  0.3010E+00  0.3012E+00
     -6.032  0.3035E-01  0.2927E-01  0.3065E+00  0.3065E+00
     -5.852  0.2709E-01  0.2693E-01  0.3113E+00  0.3113E+00
     -5.673  0.2455E-01  0.2698E-01  0.3157E+00  0.3161E+00
     -5.493  0.1733E-01  0.1539E-01  0.3189E+00  0.3189E+00
     -5.314  0.1461E-01  0.1612E-01  0.3215E+00  0.3218E+00
     -5.134  0.1911E-01  0.2068E-01  0.3249E+00  0.3255E+00
     -4.954  0.2556E-01  0.3271E-01  0.3295E+00  0.3314E+00
     -4.775  0.3135E-01  0.2680E-01  0.3351E+00  0.3362E+00
     -4.595  0.3554E-01  0.3425E-01  0.3415E+00  0.3424E+00
     -4.416  0.1582E-01  0.1139E-01  0.3444E+00  0.3444E+00
     -4.236  0.4323E-02  0.5846E-02  0.3451E+00  0.3455E+00
     -4.057  0.1009E-01  0.1469E-01  0.3469E+00  0.3481E+00
     -3.877  0.1539E-01  0.2623E-01  0.3497E+00  0.3528E+00
     -3.697  0.1763E-01  0.1458E-01  0.3529E+00  0.3554E+00
     -3.518  0.1799E-01  0.7708E-02  0.3561E+00  0.3568E+00
     -3.338  0.1339E-01  0.1546E-01  0.3585E+00  0.3596E+00
     -3.159  0.8822E-02  0.1785E-01  0.3601E+00  0.3628E+00
     -2.979  0.6468E-02  0.5664E-02  0.3613E+00  0.3638E+00
     -2.799  0.3133E-02  0.9937E-02  0.3618E+00  0.3656E+00
     -2.620  0.2987E-03  0.4850E-02  0.3619E+00  0.3665E+00
     -2.440  0.2722E-03  0.2453E-02  0.3619E+00  0.3669E+00
     -2.261  0.3263E-02  0.2904E-02  0.3625E+00  0.3674E+00
     -2.081  0.8520E-02  0.5418E-02  0.3640E+00  0.3684E+00
     -1.902  0.7542E-02  0.2399E-02  0.3654E+00  0.3688E+00
     -1.722  0.1281E-02  0.8696E-02  0.3656E+00  0.3704E+00
     -1.542  0.9424E-03  0.1411E-01  0.3658E+00  0.3729E+00
     -1.363  0.8913E-02  0.1350E-01  0.3674E+00  0.3753E+00
     -1.183  0.4058E-02  0.9725E-02  0.3681E+00  0.3771E+00
     -1.004  0.4756E-02  0.7103E-02  0.3690E+00  0.3784E+00
     -0.824  0.2993E-01  0.1575E-01  0.3744E+00  0.3812E+00
     -0.645  0.2854E-01  0.1825E-01  0.3795E+00  0.3845E+00
     -0.465  0.2445E-01  0.1294E-01  0.3839E+00  0.3868E+00
     -0.285  0.2380E-01  0.1918E-01  0.3881E+00  0.3902E+00
     -0.106  0.1883E-01  0.1302E-01  0.3915E+00  0.3926E+00
      0.074  0.9819E-02  0.9409E-02  0.3933E+00  0.3943E+00
      0.253  0.2096E-01  0.2314E-01  0.3970E+00  0.3984E+00
      0.433  0.2372E-01  0.1677E-01  0.4013E+00  0.4014E+00
      0.613  0.1541E-01  0.1432E-01  0.4041E+00  0.4040E+00
      0.792  0.7019E-02  0.1303E-01  0.4053E+00  0.4063E+00
      0.972  0.1283E-01  0.1783E-01  0.4076E+00  0.4095E+00
      1.151  0.2128E-01  0.1294E-01  0.4115E+00  0.4119E+00
      1.331  0.1504E-01  0.1821E-01  0.4142E+00  0.4151E+00
      1.510  0.1949E-01  0.1779E-01  0.4177E+00  0.4183E+00
      1.690  0.2025E-01  0.2198E-01  0.4213E+00  0.4223E+00
      1.870  0.2640E-01  0.2599E-01  0.4260E+00  0.4269E+00
      2.049  0.3329E-01  0.3590E-01  0.4320E+00  0.4334E+00
      2.229  0.2610E-01  0.2812E-01  0.4367E+00  0.4384E+00
      2.408  0.1837E-01  0.2150E-01  0.4400E+00  0.4423E+00
      2.588  0.4258E-01  0.4103E-01  0.4477E+00  0.4497E+00
      2.768  0.5280E-01  0.4642E-01  0.4571E+00  0.4580E+00
      2.947  0.1563E-01  0.1091E-01  0.4599E+00  0.4600E+00
      3.127  0.3282E-03  0.1593E-03  0.4600E+00  0.4600E+00
      3.306  0.6597E-07  0.1164E-07  0.4600E+00  0.4600E+00
      3.486  0.3891E-13  0.2010E-14  0.4600E+00  0.4600E+00
      3.665  0.0000E+00  0.0000E+00  0.4600E+00  0.4600E+00
      3.845  0.0000E+00  0.0000E+00  0.4600E+00  0.4600E+00
      4.025  0.0000E+00  0.0000E+00  0.4600E+00  0.4600E+00
      4.204  0.0000E+00  0.0000E+00  0.4600E+00  0.4600E+00
      4.384  0.0000E+00  0.0000E+00  0.4600E+00  0.4600E+00
      4.563  0.0000E+00  0.0000E+00  0.4600E+00  0.4600E+00
      4.743  0.0000E+00  0.0000E+00  0.4600E+00  0.4600E+00
      4.922  0.0000E+00  0.0000E+00  0.4600E+00  0.4600E+00
      5.102  0.0000E+00  0.0000E+00  0.4600E+00  0.4600E+00
      5.282  0.0000E+00  0.0000E+00  0.4600E+00  0.4600E+00
