 vasp.5.4.4.18Apr17-6-g9f103f2a35 (build Jan 14 2022 15:04:31) complex          
  
 executed on             LinuxIFC date 2023.01.23  17:52:23
 running on   48 total cores
 distrk:  each k-point on   48 cores,    1 groups
 distr:  one band on NCORES_PER_BAND=  12 cores,    4 groups


--------------------------------------------------------------------------------------------------------


 INCAR:
 POTCAR:    PAW_PBE C 08Apr2002                   
 POTCAR:    PAW_PBE N 08Apr2002                   
 POTCAR:    PAW_PBE C 08Apr2002                   
 POTCAR:    PAW_PBE Cr_pv 02Aug2007               
 POTCAR:    PAW_PBE C 08Apr2002                   
   SHA256 =  253f7b50bb8d59471dbedb8285d89021f4a42ed1a2c5d38a03a736e69125dd95 C/
   COPYR  = (c) Copyright 08Apr2002 Georg Kresse                                
   COPYR  = This file is part of the software VASP. Any use, copying, and all ot
   COPYR  = If you do not have a valid VASP license, you may not use, copy or di
   VRHFIN =C: s2p2                                                              
   LEXCH  = PE                                                                  
   EATOM  =   147.1560 eV,   10.8157 Ry                                         
                                                                                
   TITEL  = PAW_PBE C 08Apr2002                                                 
   LULTRA =        F    use ultrasoft PP ?                                      
   IUNSCR =        1    unscreen: 0-lin 1-nonlin 2-no                           
   RPACOR =    1.200    partial core radius                                     
   POMASS =   12.011; ZVAL   =    4.000    mass and valenz                      
   RCORE  =    1.500    outmost cutoff radius                                   
   RWIGS  =    1.630; RWIGS  =    0.863    wigner-seitz radius (au A)           
   ENMAX  =  400.000; ENMIN  =  300.000 eV                                      
   ICORE  =        2    local potential                                         
   LCOR   =        T    correct aug charges                                     
   LPAW   =        T    paw PP                                                  
   EAUG   =  644.873                                                            
   DEXC   =    0.000                                                            
   RMAX   =    1.529    core radius for proj-oper                               
   RAUG   =    1.300    factor for augmentation sphere                          
   RDEP   =    1.501    radius for radial grids                                 
   RDEPT  =    1.300    core radius for aug-charge                              
                                                                                
   Atomic configuration                                                         
    4 entries                                                                   
     n  l   j            E        occ.                                          
     1  0  0.50      -273.3789   2.0000                                         
     2  0  0.50       -13.7508   2.0000                                         
     2  1  0.50        -5.2854   2.0000                                         
     3  2  1.50        -5.4423   0.0000                                         
   Description                                                                  
     l       E           TYP  RCUT    TYP  RCUT                                 
     0    -13.7508458     23  1.200                                             
     0     -8.2022199     23  1.200                                             
     1     -5.2854383     23  1.500                                             
     1     34.0145650     23  1.500                                             
     2     -5.4423304      7  1.500                                             
  local pseudopotential read in
  partial core-charges read in
  partial kinetic energy density read in
  atomic valenz-charges read in
  non local Contribution for L=           0  read in
    real space projection operators read in
  non local Contribution for L=           0  read in
    real space projection operators read in
  non local Contribution for L=           1  read in
    real space projection operators read in
  non local Contribution for L=           1  read in
    real space projection operators read in
    PAW grid and wavefunctions read in
 
   number of l-projection  operators is LMAX  =           4
   number of lm-projection operators is LMMAX =           8
 
 POTCAR:    PAW_PBE N 08Apr2002                   
   SHA256 =  e053789ff3a61a86a1b75d8a110fcc91f86041011e7b0817c7c99e4e8a6349d7 N/
   COPYR  = (c) Copyright 08Apr2002 Georg Kresse                                
   COPYR  = This file is part of the software VASP. Any use, copying, and all ot
   COPYR  = If you do not have a valid VASP license, you may not use, copy or di
   VRHFIN =N: s2p3                                                              
   LEXCH  = PE                                                                  
   EATOM  =   264.5486 eV,   19.4438 Ry                                         
                                                                                
   TITEL  = PAW_PBE N 08Apr2002                                                 
   LULTRA =        F    use ultrasoft PP ?                                      
   IUNSCR =        1    unscreen: 0-lin 1-nonlin 2-no                           
   RPACOR =    1.200    partial core radius                                     
   POMASS =   14.001; ZVAL   =    5.000    mass and valenz                      
   RCORE  =    1.500    outmost cutoff radius                                   
   RWIGS  =    1.400; RWIGS  =    0.741    wigner-seitz radius (au A)           
   ENMAX  =  400.000; ENMIN  =  300.000 eV                                      
   ICORE  =        2    local potential                                         
   LCOR   =        T    correct aug charges                                     
   LPAW   =        T    paw PP                                                  
   EAUG   =  627.112                                                            
   DEXC   =    0.000                                                            
   RMAX   =    1.529    core radius for proj-oper                               
   RAUG   =    1.300    factor for augmentation sphere                          
   RDEP   =    1.514    radius for radial grids                                 
   RDEPT  =    1.338    core radius for aug-charge                              
                                                                                
   Atomic configuration                                                         
    4 entries                                                                   
     n  l   j            E        occ.                                          
     1  0  0.50      -384.7179   2.0000                                         
     2  0  0.50       -18.5828   2.0000                                         
     2  1  0.50        -7.0898   3.0000                                         
     3  2  1.50        -6.8029   0.0000                                         
   Description                                                                  
     l       E           TYP  RCUT    TYP  RCUT                                 
     0    -18.5828119     23  1.200                                             
     0    -13.5018863     23  1.200                                             
     1     -7.0897853     23  1.500                                             
     1      9.5240782     23  1.500                                             
     2     -6.8029130      7  1.500                                             
  local pseudopotential read in
  partial core-charges read in
  partial kinetic energy density read in
  atomic valenz-charges read in
  non local Contribution for L=           0  read in
    real space projection operators read in
  non local Contribution for L=           0  read in
    real space projection operators read in
  non local Contribution for L=           1  read in
    real space projection operators read in
  non local Contribution for L=           1  read in
    real space projection operators read in
    PAW grid and wavefunctions read in
 
   number of l-projection  operators is LMAX  =           4
   number of lm-projection operators is LMMAX =           8
 
 POTCAR:    PAW_PBE C 08Apr2002                   
   SHA256 =  253f7b50bb8d59471dbedb8285d89021f4a42ed1a2c5d38a03a736e69125dd95 C/
   COPYR  = (c) Copyright 08Apr2002 Georg Kresse                                
   COPYR  = This file is part of the software VASP. Any use, copying, and all ot
   COPYR  = If you do not have a valid VASP license, you may not use, copy or di
   VRHFIN =C: s2p2                                                              
   LEXCH  = PE                                                                  
   EATOM  =   147.1560 eV,   10.8157 Ry                                         
                                                                                
   TITEL  = PAW_PBE C 08Apr2002                                                 
   LULTRA =        F    use ultrasoft PP ?                                      
   IUNSCR =        1    unscreen: 0-lin 1-nonlin 2-no                           
   RPACOR =    1.200    partial core radius                                     
   POMASS =   12.011; ZVAL   =    4.000    mass and valenz                      
   RCORE  =    1.500    outmost cutoff radius                                   
   RWIGS  =    1.630; RWIGS  =    0.863    wigner-seitz radius (au A)           
   ENMAX  =  400.000; ENMIN  =  300.000 eV                                      
   ICORE  =        2    local potential                                         
   LCOR   =        T    correct aug charges                                     
   LPAW   =        T    paw PP                                                  
   EAUG   =  644.873                                                            
   DEXC   =    0.000                                                            
   RMAX   =    1.529    core radius for proj-oper                               
   RAUG   =    1.300    factor for augmentation sphere                          
   RDEP   =    1.501    radius for radial grids                                 
   RDEPT  =    1.300    core radius for aug-charge                              
                                                                                
   Atomic configuration                                                         
    4 entries                                                                   
     n  l   j            E        occ.                                          
     1  0  0.50      -273.3789   2.0000                                         
     2  0  0.50       -13.7508   2.0000                                         
     2  1  0.50        -5.2854   2.0000                                         
     3  2  1.50        -5.4423   0.0000                                         
   Description                                                                  
     l       E           TYP  RCUT    TYP  RCUT                                 
     0    -13.7508458     23  1.200                                             
     0     -8.2022199     23  1.200                                             
     1     -5.2854383     23  1.500                                             
     1     34.0145650     23  1.500                                             
     2     -5.4423304      7  1.500                                             
  local pseudopotential read in
  partial core-charges read in
  partial kinetic energy density read in
  atomic valenz-charges read in
  non local Contribution for L=           0  read in
    real space projection operators read in
  non local Contribution for L=           0  read in
    real space projection operators read in
  non local Contribution for L=           1  read in
    real space projection operators read in
  non local Contribution for L=           1  read in
    real space projection operators read in
    PAW grid and wavefunctions read in
 
   number of l-projection  operators is LMAX  =           4
   number of lm-projection operators is LMMAX =           8
 
 POTCAR:    PAW_PBE Cr_pv 02Aug2007               
   SHA256 =  c9a7df34d3cdbacf1090e328ef39c0b420964e11c23f63548d1ac9dd218cdba0 Cr
   COPYR  = (c) Copyright 02Aug2007 Georg Kresse                                
   COPYR  = This file is part of the software VASP. Any use, copying, and all ot
   COPYR  = If you do not have a valid VASP license, you may not use, copy or di
   VRHFIN =Cr : p6d5s1                                                          
   LEXCH  = PE                                                                  
   EATOM  =  1647.9177 eV,  121.1185 Ry                                         
                                                                                
   TITEL  = PAW_PBE Cr_pv 02Aug2007                                             
   LULTRA =        F    use ultrasoft PP ?                                      
   IUNSCR =        1    unscreen: 0-lin 1-nonlin 2-no                           
   RPACOR =    2.080    partial core radius                                     
   POMASS =   51.996; ZVAL   =   12.000    mass and valenz                      
   RCORE  =    2.300    outmost cutoff radius                                   
   RWIGS  =    2.500; RWIGS  =    1.323    wigner-seitz radius (au A)           
   ENMAX  =  265.681; ENMIN  =  199.261 eV                                      
   ICORE  =        3    local potential                                         
   LCOR   =        T    correct aug charges                                     
   LPAW   =        T    paw PP                                                  
   EAUG   =  519.424                                                            
   DEXC   =    0.000                                                            
   RMAX   =    2.356    core radius for proj-oper                               
   RAUG   =    1.300    factor for augmentation sphere                          
   RDEP   =    2.447    radius for radial grids                                 
   RDEPT  =    1.882    core radius for aug-charge                              
                                                                                
   Atomic configuration                                                         
    8 entries                                                                   
     n  l   j            E        occ.                                          
     1  0  0.50     -5880.4963   2.0000                                         
     2  0  0.50      -667.0865   2.0000                                         
     2  1  1.50      -560.6250   6.0000                                         
     3  0  0.50       -73.9860   2.0000                                         
     3  1  1.50       -45.4378   6.0000                                         
     3  2  2.50        -2.9137   5.0000                                         
     4  0  0.50        -4.0071   1.0000                                         
     4  3  2.50        -1.3606   0.0000                                         
   Description                                                                  
     l       E           TYP  RCUT    TYP  RCUT                                 
     1    -45.4377911     23  2.000                                             
     1      1.3605826     23  2.000                                             
     2     -2.9136672     23  2.300                                             
     2     -4.2742498     23  2.300                                             
     0     -4.0071320     23  2.300                                             
     0      9.4498803     23  2.300                                             
     3      2.7211652     23  2.300                                             
  local pseudopotential read in
  partial core-charges read in
  partial kinetic energy density read in
  atomic valenz-charges read in
  non local Contribution for L=           1  read in
    real space projection operators read in
  non local Contribution for L=           1  read in
    real space projection operators read in
  non local Contribution for L=           2  read in
    real space projection operators read in
  non local Contribution for L=           2  read in
    real space projection operators read in
  non local Contribution for L=           0  read in
    real space projection operators read in
  non local Contribution for L=           0  read in
    real space projection operators read in
    PAW grid and wavefunctions read in
 
   number of l-projection  operators is LMAX  =           6
   number of lm-projection operators is LMMAX =          18
 
 Optimization of the real space projectors (new method)

 maximal supplied QI-value         = 25.13
 optimisation between [QCUT,QGAM] = [ 10.56, 21.36] = [ 31.20,127.80] Ry 
 Optimized for a Real-space Cutoff    1.32 Angstroem

   l    n(q)    QCUT    max X(q) W(low)/X(q) W(high)/X(q)  e(spline) 
   0      8    10.556   115.676    0.17E-03    0.39E-03    0.26E-06
   0      8    10.556    87.132    0.17E-03    0.39E-03    0.26E-06
   1      8    10.556     4.429    0.24E-03    0.31E-03    0.16E-06
   1      8    10.556     2.733    0.17E-03    0.22E-03    0.19E-06
 Optimization of the real space projectors (new method)

 maximal supplied QI-value         = 25.13
 optimisation between [QCUT,QGAM] = [ 10.56, 21.36] = [ 31.20,127.80] Ry 
 Optimized for a Real-space Cutoff    1.40 Angstroem

   l    n(q)    QCUT    max X(q) W(low)/X(q) W(high)/X(q)  e(spline) 
   0      9    10.556    79.467    0.20E-03    0.22E-03    0.30E-06
   0      9    10.556    66.151    0.20E-03    0.22E-03    0.30E-06
   1      8    10.556    12.181    0.10E-03    0.78E-03    0.19E-05
   1      8    10.556     8.434    0.11E-03    0.81E-03    0.19E-05
 Optimization of the real space projectors (new method)

 maximal supplied QI-value         = 25.13
 optimisation between [QCUT,QGAM] = [ 10.56, 21.36] = [ 31.20,127.80] Ry 
 Optimized for a Real-space Cutoff    1.32 Angstroem

   l    n(q)    QCUT    max X(q) W(low)/X(q) W(high)/X(q)  e(spline) 
   0      8    10.556   115.676    0.17E-03    0.39E-03    0.26E-06
   0      8    10.556    87.132    0.17E-03    0.39E-03    0.26E-06
   1      8    10.556     4.429    0.24E-03    0.31E-03    0.16E-06
   1      8    10.556     2.733    0.17E-03    0.22E-03    0.19E-06
 Optimization of the real space projectors (new method)

 maximal supplied QI-value         = 16.25
 optimisation between [QCUT,QGAM] = [ 10.73, 21.45] = [ 32.22,128.87] Ry 
 Optimized for a Real-space Cutoff    1.53 Angstroem

   l    n(q)    QCUT    max X(q) W(low)/X(q) W(high)/X(q)  e(spline) 
   1      9    10.726     3.262    0.64E-04    0.35E-04    0.11E-06
   1      9    10.726     5.741    0.13E-03    0.48E-04    0.19E-06
   2      9    10.726    60.438    0.12E-03    0.29E-04    0.13E-06
   2      9    10.726    55.380    0.12E-03    0.29E-04    0.13E-06
   0     10    10.726    80.273    0.43E-04    0.74E-05    0.81E-07
   0     10    10.726    36.654    0.34E-04    0.61E-05    0.73E-07
  PAW_PBE C 08Apr2002                   :
 energy of atom  1       EATOM= -147.1560
 kinetic energy error for atom=    0.0132 (will be added to EATOM!!)
  PAW_PBE N 08Apr2002                   :
 energy of atom  2       EATOM= -264.5486
 kinetic energy error for atom=    0.0298 (will be added to EATOM!!)
  PAW_PBE C 08Apr2002                   :
 energy of atom  3       EATOM= -147.1560
 kinetic energy error for atom=    0.0132 (will be added to EATOM!!)
  PAW_PBE Cr_pv 02Aug2007               :
 energy of atom  4       EATOM=-1647.9177
 kinetic energy error for atom=    0.0134 (will be added to EATOM!!)
 
 
 POSCAR: POSCAR-clean                            
  positions in direct lattice
  velocities in cartesian coordinates
 exchange correlation table for  LEXCH =        8
   RHO(1)=    0.500       N(1)  =     2000
   RHO(2)=  100.500       N(2)  =     4000

 VTST: version 3.2, (02/03/18)

 CHAIN: initializing optimizer
 
 OPT: Using VASP Conjugate-Gradient optimizer
 CHAIN: Read ICHAIN            0
 
 POSCAR: POSCAR-clean                            
  positions in direct lattice
  velocities in cartesian coordinates
 


--------------------------------------------------------------------------------------------------------


 ion  position               nearest neighbor table
   1  1.000  0.999  0.498-  60 1.42   2 1.43  70 1.43
   2  0.056  0.111  0.498-   1 1.43  13 1.43  15 1.43
   3  0.167  0.001  0.498-  60 1.43  62 1.43   4 1.43
   4  0.223  0.113  0.498-  15 1.42   3 1.43  17 1.44
   5  0.334  0.002  0.498-  62 1.42   6 1.42  64 1.43
   6  0.390  0.113  0.498-  19 1.42   5 1.42  17 1.43
   7  0.500  1.000  0.498-   8 1.42  64 1.42  66 1.43
   8  0.556  0.111  0.498-   7 1.42  21 1.42  19 1.44
   9  0.666  0.998  0.498-  10 1.42  66 1.42  68 1.44
  10  0.722  0.109  0.498-   9 1.42  23 1.43  21 1.43
  11  0.832  0.998  0.498-  70 1.42  12 1.42  68 1.44
  12  0.888  0.109  0.498-  11 1.42  23 1.43  13 1.43
  13  0.999  0.165  0.498-  14 1.42  12 1.43   2 1.43
  14  0.054  0.277  0.498-  13 1.42  25 1.43  27 1.43
  15  0.167  0.168  0.498-   4 1.42  16 1.43   2 1.43
  16  0.223  0.280  0.500-  27 1.42  15 1.43  29 1.44
  17  0.335  0.170  0.499-  18 1.42   6 1.43   4 1.44
  18  0.391  0.281  0.502-  17 1.42  29 1.44  31 1.44
  19  0.501  0.168  0.498-   6 1.42  20 1.43   8 1.44
  20  0.557  0.280  0.500-  33 1.42  19 1.43  31 1.44
  21  0.667  0.165  0.498-  22 1.42   8 1.42  10 1.43
  22  0.723  0.277  0.498-  21 1.42  35 1.42  33 1.43
  23  0.833  0.165  0.498-  24 1.42  12 1.43  10 1.43
  24  0.888  0.276  0.498-  25 1.42  23 1.42  35 1.43
  25  0.999  0.332  0.498-  24 1.42  14 1.43  26 1.43
  26  0.055  0.444  0.499-  39 1.41  37 1.42  25 1.43
  27  0.165  0.333  0.500-  28 1.42  16 1.42  14 1.43
  28  0.219  0.444  0.502-  41 1.41  27 1.42  39 1.42
  29  0.335  0.338  0.503-  30 1.42  18 1.44  16 1.44
  30  0.388  0.449  0.509-  41 1.41  29 1.42  71 1.99
  31  0.503  0.338  0.504-  32 1.42  18 1.44  20 1.44
  32  0.562  0.449  0.510-  43 1.41  31 1.42  71 2.00
  33  0.668  0.333  0.500-  34 1.42  20 1.42  22 1.43
  34  0.725  0.444  0.501-  43 1.41  33 1.42  45 1.42
  35  0.833  0.332  0.498-  36 1.42  22 1.42  24 1.43
  36  0.890  0.444  0.498-  45 1.42  37 1.42  35 1.42
  37  0.000  0.500  0.498-  36 1.42  26 1.42  38 1.43
  38  0.056  0.612  0.498-  49 1.41  37 1.43  47 1.43
  39  0.165  0.500  0.500-  26 1.41  40 1.42  28 1.42
  40  0.220  0.611  0.500-  49 1.42  51 1.42  39 1.42
  41  0.329  0.499  0.505-  30 1.41  28 1.41  42 1.44
  42  0.385  0.612  0.505-  53 1.41  51 1.41  41 1.44
  43  0.671  0.500  0.505-  32 1.41  34 1.41  44 1.44
  44  0.728  0.613  0.505-  55 1.40  57 1.41  43 1.44
  45  0.836  0.500  0.500-  36 1.42  46 1.42  34 1.42
  46  0.891  0.611  0.499-  47 1.41  45 1.42  57 1.42
  47  0.001  0.668  0.498-  46 1.41  48 1.42  38 1.43
  48  0.056  0.779  0.498-  59 1.41  47 1.42  61 1.42
  49  0.166  0.667  0.499-  38 1.41  40 1.42  50 1.42
  50  0.222  0.779  0.498-  49 1.42  63 1.43  61 1.43
  51  0.331  0.667  0.502-  42 1.41  52 1.42  40 1.42
  52  0.388  0.778  0.500-  51 1.42  65 1.43  63 1.43
  53  0.495  0.663  0.509-  42 1.41  54 1.42  71 2.00
  54  0.553  0.773  0.503-  53 1.42  67 1.44  65 1.45
  55  0.669  0.663  0.510-  44 1.40  56 1.41  71 2.00
  56  0.721  0.773  0.504-  55 1.41  67 1.44  69 1.45
  57  0.838  0.668  0.501-  58 1.41  44 1.41  46 1.42
  58  0.892  0.779  0.500-  59 1.41  57 1.41  69 1.42
  59  0.001  0.834  0.498-  60 1.41  48 1.41  58 1.41
  60  0.056  0.945  0.498-  59 1.41   1 1.42   3 1.43
  61  0.167  0.835  0.498-  62 1.42  48 1.42  50 1.43
  62  0.223  0.946  0.498-  61 1.42   5 1.42   3 1.43
  63  0.333  0.834  0.498-  64 1.42  50 1.43  52 1.43
  64  0.389  0.945  0.498-  63 1.42   7 1.42   5 1.43
  65  0.499  0.831  0.500-  66 1.42  52 1.43  54 1.45
  66  0.555  0.943  0.498-  65 1.42   9 1.42   7 1.43
  67  0.665  0.830  0.503-  68 1.42  54 1.44  56 1.44
  68  0.721  0.941  0.499-  67 1.42  11 1.44   9 1.44
  69  0.834  0.832  0.500-  58 1.42  70 1.42  56 1.45
  70  0.888  0.943  0.498-  11 1.42  69 1.42   1 1.43
  71  0.527  0.555  0.555-  30 1.99  53 2.00  32 2.00  55 2.00
 

IMPORTANT INFORMATION: All symmetrisations will be switched off!
NOSYMM: (Re-)initialisation of all symmetry stuff for point group C_1.

 
 
 KPOINTS: K-Points                                

Automatic generation of k-mesh.
Space group operators:
 irot       det(A)        alpha          n_x          n_y          n_z        tau_x        tau_y        tau_z
    1     1.000000     0.000000     1.000000     0.000000     0.000000     0.000000     0.000000     0.000000
 
 Subroutine IBZKPT returns following result:
 ===========================================
 
 Found      4 irreducible k-points:
 
 Following reciprocal coordinates:
            Coordinates               Weight
  0.000000  0.000000  0.000000      1.000000
  0.500000 -0.000000  0.000000      1.000000
  0.000000  0.500000  0.000000      1.000000
  0.500000  0.500000  0.000000      1.000000
 
 Following cartesian coordinates:
            Coordinates               Weight
  0.000000  0.000000  0.000000      1.000000
  0.033650  0.019599  0.000000      1.000000
  0.000010  0.039198  0.000000      1.000000
  0.033660  0.058797  0.000000      1.000000
 


--------------------------------------------------------------------------------------------------------




 Dimension of arrays:
   k-points           NKPTS =      4   k-points in BZ     NKDIM =      4   number of bands    NBANDS=    184
   number of dos      NEDOS =    301   number of ions     NIONS =     71
   non local maximal  LDIM  =      6   non local SUM 2l+1 LMDIM =     18
   total plane-waves  NPLWV = ******
   max r-space proj   IRMAX =   6643   max aug-charges    IRDMAX=  15613
   dimension x,y,z NGX =   108 NGY =  108 NGZ =  108
   dimension x,y,z NGXF=   216 NGYF=  216 NGZF=  216
   support grid    NGXF=   216 NGYF=  216 NGZF=  216
   ions per type =              58   1  11   1
   NGX,Y,Z   is equivalent  to a cutoff of  12.08, 12.16, 11.97 a.u.
   NGXF,Y,Z  is equivalent  to a cutoff of  24.16, 24.32, 23.94 a.u.

 SYSTEM =  unknown system                          
 POSCAR =  POSCAR-clean                            

 Startparameter for this run:
   NWRITE =      2    write-flag & timer
   PREC   = accura    normal or accurate (medium, high low for compatibility)
   ISTART =      0    job   : 0-new  1-cont  2-samecut
   ICHARG =      2    charge: 1-file 2-atom 10-const
   ISPIN  =      2    spin polarized calculation?
   LNONCOLLINEAR =      F non collinear calculations
   LSORBIT =      F    spin-orbit coupling
   INIWAV =      1    electr: 0-lowe 1-rand  2-diag
   LASPH  =      F    aspherical Exc in radial PAW
   METAGGA=      F    non-selfconsistent MetaGGA calc.

 Electronic Relaxation 1
   ENCUT  =  440.0 eV  32.34 Ry    5.69 a.u.  25.42 25.25 25.66*2*pi/ulx,y,z
   ENINI  =  440.0     initial cutoff
   ENAUG  =  644.9 eV  augmentation charge cutoff
   NELM   =     50;   NELMIN=  2; NELMDL= -5     # of ELM steps 
   EDIFF  = 0.1E-04   stopping-criterion for ELM
   LREAL  =      T    real-space projection
   NLSPLINE    = F    spline interpolate recip. space projectors
   LCOMPAT=      F    compatible to vasp.4.4
   GGA_COMPAT  = T    GGA compatible to vasp.4.4-vasp.4.6
   LMAXPAW     = -100 max onsite density
   LMAXMIX     =    2 max onsite mixed and CHGCAR
   VOSKOWN=      0    Vosko Wilk Nusair interpolation
   ROPT   =   -0.00025  -0.00025  -0.00025  -0.00025
 Ionic relaxation
   EDIFFG = -.5E-01   stopping-criterion for IOM
   NSW    =    400    number of steps for IOM
   NBLOCK =      1;   KBLOCK =    400    inner block; outer block 
   IBRION =      2    ionic relax: 0-MD 1-quasi-New 2-CG
   NFREE  =      1    steps in history (QN), initial steepest desc. (CG)
   ISIF   =      2    stress and relaxation
   IWAVPR =     11    prediction:  0-non 1-charg 2-wave 3-comb
   ISYM   =      0    0-nonsym 1-usesym 2-fastsym
   LCORR  =      T    Harris-Foulkes like correction to forces

   POTIM  = 0.3000    time-step for ionic-motion
   TEIN   =    0.0    initial temperature
   TEBEG  =    0.0;   TEEND  =   0.0 temperature during run
   SMASS  =  -3.00    Nose mass-parameter (am)
   estimated Nose-frequenzy (Omega)   =  0.10E-29 period in steps =****** mass=  -0.505E-26a.u.
   SCALEE = 1.0000    scale energy and forces
   NPACO  =    256;   APACO  = 16.0  distance and # of slots for P.C.
   PSTRESS=    0.0 pullay stress

  Mass of Ions in am
   POMASS =  12.01 14.00 12.01 52.00
  Ionic Valenz
   ZVAL   =   4.00  5.00  4.00 12.00
  Atomic Wigner-Seitz radii
   RWIGS  =  -1.00 -1.00 -1.00 -1.00
  virtual crystal weights 
   VCA    =   1.00  1.00  1.00  1.00
   NELECT =     293.0000    total number of electrons
   NUPDOWN=      -1.0000    fix difference up-down

 DOS related values:
   EMIN   =  10.00;   EMAX   =-10.00  energy-range for DOS
   EFERMI =   0.00
   ISMEAR =     0;   SIGMA  =   0.10  broadening in eV -4-tet -1-fermi 0-gaus

 Electronic relaxation 2 (details)
   IALGO  =     68    algorithm
   LDIAG  =      T    sub-space diagonalisation (order eigenvalues)
   LSUBROT=      F    optimize rotation matrix (better conditioning)
   TURBO    =      0    0=normal 1=particle mesh
   IRESTART =      0    0=no restart 2=restart with 2 vectors
   NREBOOT  =      0    no. of reboots
   NMIN     =      0    reboot dimension
   EREF     =   0.00    reference energy to select bands
   IMIX   =      4    mixing-type and parameters
     AMIX     =   0.40;   BMIX     =  1.00
     AMIX_MAG =   1.60;   BMIX_MAG =  1.00
     AMIN     =   0.10
     WC   =   100.;   INIMIX=   1;  MIXPRE=   1;  MAXMIX= -45

 Intra band minimization:
   WEIMIN = 0.0010     energy-eigenvalue tresh-hold
   EBREAK =  0.14E-07  absolut break condition
   DEPER  =   0.30     relativ break condition  

   TIME   =   0.40     timestep for ELM

  volume/ion in A,a.u.               =      40.05       270.27
  Fermi-wavevector in a.u.,A,eV,Ry     =   0.767502  1.450369  8.014646  0.589060
  Thomas-Fermi vector in A             =   1.868073
 
 Write flags
   LWAVE        =      F    write WAVECAR
   LDOWNSAMPLE  =      F    k-point downsampling of WAVECAR
   LCHARG       =      F    write CHGCAR
   LVTOT        =      F    write LOCPOT, total local potential
   LVHAR        =      F    write LOCPOT, Hartree potential only
   LELF         =      F    write electronic localiz. function (ELF)
   LORBIT       =      0    0 simple, 1 ext, 2 COOP (PROOUT), +10 PAW based schemes


 Dipole corrections
   LMONO  =      F    monopole corrections only (constant potential shift)
   LDIPOL =      F    correct potential (dipole corrections)
   IDIPOL =      0    1-x, 2-y, 3-z, 4-all directions 
   EPSILON=  1.0000000 bulk dielectric constant

 Exchange correlation treatment:
   GGA     =    --    GGA type
   LEXCH   =     8    internal setting for exchange type
   VOSKOWN=      0    Vosko Wilk Nusair interpolation
   LHFCALC =     F    Hartree Fock is set to
   LHFONE  =     F    Hartree Fock one center treatment
   AEXX    =    0.0000 exact exchange contribution

 Linear response parameters
   LEPSILON=     F    determine dielectric tensor
   LRPA    =     F    only Hartree local field effects (RPA)
   LNABLA  =     F    use nabla operator in PAW spheres
   LVEL    =     F    velocity operator in full k-point grid
   LINTERFAST=   F  fast interpolation
   KINTER  =     0    interpolate to denser k-point grid
   CSHIFT  =0.1000    complex shift for real part using Kramers Kronig
   OMEGAMAX=  -1.0    maximum frequency
   DEG_THRESHOLD= 0.2000000E-02 threshold for treating states as degnerate
   RTIME   =   -0.100 relaxation time in fs
  (WPLASMAI=    0.000 imaginary part of plasma frequency in eV, 0.658/RTIME)
   DFIELD  = 0.0000000 0.0000000 0.0000000 field for delta impulse in time
 
 Orbital magnetization related:
   ORBITALMAG=     F  switch on orbital magnetization
   LCHIMAG   =     F  perturbation theory with respect to B field
   DQ        =  0.001000  dq finite difference perturbation B field
   LLRAUG    =     F  two centre corrections for induced B field



--------------------------------------------------------------------------------------------------------


 conjugate gradient relaxation of ions
 charge density and potential will be updated during run
 spin polarized calculation
 RMM-DIIS sequential band-by-band and
  variant of blocked Davidson during initial phase
 perform sub-space diagonalisation
    before iterative eigenvector-optimisation
 modified Broyden-mixing scheme, WC =      100.0
 initial mixing is a Kerker type mixing with AMIX =  0.4000 and BMIX =      1.0000
 Hartree-type preconditioning will be used
 using additional bands           37
 real space projection scheme for non local part
 use partial core corrections
 calculate Harris-corrections to forces 
   (improved forces if not selfconsistent)
 use gradient corrections 
 use of overlap-Matrix (Vanderbilt PP)
 Gauss-broadening in eV      SIGMA  =   0.10


--------------------------------------------------------------------------------------------------------


  energy-cutoff  :      440.00
  volume of cell :     2843.50
      direct lattice vectors                 reciprocal lattice vectors
    14.861160630 -0.003892508  0.000000000     0.067299762  0.039197741  0.000000000
    -7.430580315 12.757783281  0.000000000     0.000020534  0.078395483  0.000000000
     0.000000000  0.000000000 15.000000000     0.000000000  0.000000000  0.066666667

  length of vectors
    14.861161140 14.763961463 15.000000000     0.077882738  0.078395485  0.066666667


 
 k-points in units of 2pi/SCALE and weight: K-Points                                
   0.00000000  0.00000000  0.00000000       0.250
   0.03364988  0.01959887  0.00000000       0.250
   0.00001027  0.03919774  0.00000000       0.250
   0.03366015  0.05879661  0.00000000       0.250
 
 k-points in reciprocal lattice and weights: K-Points                                
   0.00000000  0.00000000  0.00000000       0.250
   0.50000000 -0.00000000  0.00000000       0.250
   0.00000000  0.50000000  0.00000000       0.250
   0.50000000  0.50000000  0.00000000       0.250
 
 position of ions in fractional coordinates (direct lattice) 
   0.99982167  0.99889688  0.49764759
   0.05599224  0.11085119  0.49771931
   0.16718398  0.00103435  0.49755493
   0.22284140  0.11279040  0.49825263
   0.33403924  0.00182658  0.49773504
   0.38999422  0.11344557  0.49838384
   0.49993168  0.99972831  0.49772339
   0.55576053  0.11127440  0.49765190
   0.66574383  0.99769827  0.49824551
   0.72157936  0.10911646  0.49753930
   0.83237845  0.99766034  0.49836693
   0.88807646  0.10928518  0.49773722
   0.99914845  0.16520365  0.49781609
   0.05441408  0.27657105  0.49848818
   0.16727848  0.16789018  0.49835807
   0.22306902  0.27969439  0.50006121
   0.33488047  0.16987636  0.49939532
   0.39073780  0.28127580  0.50246943
   0.50079404  0.16808116  0.49841100
   0.55684276  0.27978079  0.50004777
   0.66661644  0.16546647  0.49752046
   0.72261891  0.27684807  0.49802004
   0.83270491  0.16491146  0.49761575
   0.88841510  0.27637211  0.49775910
   0.99910097  0.33222510  0.49832170
   0.05453080  0.44406927  0.49877460
   0.16542292  0.33286289  0.50001177
   0.21928468  0.44394271  0.50173455
   0.33534212  0.33786980  0.50339365
   0.38760203  0.44855910  0.50946871
   0.50276465  0.33792387  0.50354786
   0.56155626  0.44905402  0.50975730
   0.66772343  0.33297308  0.49963731
   0.72488739  0.44409476  0.50120891
   0.83345156  0.33238352  0.49790820
   0.88969923  0.44392954  0.49824214
   0.00011398  0.50028095  0.49828366
   0.05593786  0.61200751  0.49827508
   0.16457426  0.49992446  0.50030954
   0.22027321  0.61135261  0.50030677
   0.32895234  0.49933220  0.50525562
   0.38525092  0.61184390  0.50524187
   0.67090791  0.49972335  0.50525248
   0.72752788  0.61264208  0.50526593
   0.83555710  0.50005807  0.49950536
   0.89119288  0.61115568  0.49948265
   0.00106913  0.66813036  0.49823352
   0.05619771  0.77942995  0.49792781
   0.16609298  0.66741731  0.49877804
   0.22178987  0.77884330  0.49831943
   0.33085440  0.66726501  0.50170667
   0.38794339  0.77827460  0.49999174
   0.49460975  0.66254352  0.50938132
   0.55326291  0.77322996  0.50341510
   0.66854228  0.66261294  0.50985191
   0.72109046  0.77313412  0.50358744
   0.83757159  0.66797162  0.50117945
   0.89150078  0.77880155  0.49965929
   0.00142585  0.83445984  0.49806705
   0.05619703  0.94466308  0.49757110
   0.16685065  0.83512936  0.49776076
   0.22346679  0.94634313  0.49761599
   0.33283938  0.83440296  0.49848202
   0.38905389  0.94549962  0.49782274
   0.49889117  0.83142069  0.50005772
   0.55486466  0.94298809  0.49836187
   0.66534261  0.82967676  0.50250034
   0.72058718  0.94075021  0.49938709
   0.83382350  0.83174979  0.49996550
   0.88841862  0.94324327  0.49835822
   0.52741567  0.55545096  0.55497218
 
 position of ions in cartesian coordinates  (Angst):
   7.43612689 12.73981811  7.46471380
   0.00842100  1.41399755  7.46578962
   2.47686210  0.01254530  7.46332391
   2.47358369  1.43808810  7.47378939
   4.95063817  0.02200290  7.46602561
   4.95280043  1.44579589  7.47575759
   0.00100355 12.75237112  7.46585078
   7.43241313  1.41745142  7.46477845
   2.48024886 12.72582694  7.47368264
   9.91270818  1.38927537  7.46308944
   4.95691464 12.72469437  7.47550400
  12.38579471  1.39077976  7.46605837
  13.62094660  2.10374322  7.46724131
  -1.24642704  3.52822174  7.47732267
   1.23843086  2.14125534  7.47537110
   1.23677291  3.56741208  7.50091813
   3.71443262  2.16594221  7.49092976
   3.71677476  3.58693476  7.53704151
   6.19344015  2.14239366  7.47616493
   6.19639607  3.56721516  7.50071657
   8.67718210  2.10839062  7.46280695
   8.68181383  3.52915491  7.47030056
  11.14957358  2.10066334  7.46423619
  11.14927436  3.52243731  7.46638657
  12.37917462  4.23456686  7.47482549
  -2.48930148  5.66512728  7.48161899
  -0.01498789  4.24594872  7.50017651
  -0.03992712  5.66287135  7.52601831
   2.47300446  4.30916431  7.55090471
   2.42716163  5.72111107  7.64203067
   4.96069583  4.30920242  7.55321793
   5.00864581  5.72674800  7.64635948
   7.44896191  4.24539929  7.49455970
   7.47278620  5.66284311  7.51813369
   9.91625504  4.23723272  7.46862294
   9.92330912  5.66009370  7.47363210
  -3.71568386  6.38247548  7.47425484
  -3.71626939  7.80764139  7.47412627
  -1.26896438  6.37728734  7.50464309
  -1.26918908  7.79864663  7.50460161
   1.17828561  6.36909148  7.57883434
   1.17892061  7.80427228  7.57862801
   6.25723567  6.37275067  7.57878723
   6.25962250  7.81312298  7.57898896
   8.70162668  6.37638005  7.49258045
   8.70291914  7.79352273  7.49223982
  -4.94870788  8.52385823  7.47350280
  -4.95645368  9.94357960  7.46891717
  -2.49096355  8.51411890  7.48167064
  -2.49120278  9.93545068  7.47479145
  -0.04128588  8.51153453  7.52560008
  -0.01774297  9.92754867  7.49987611
   2.42739212  8.45066135  7.64071981
   2.47658165  9.86254670  7.55122656
   5.01171559  8.45086998  7.64777861
   4.97140604  9.86067066  7.55381165
   7.48386910  8.51857696  7.51769177
   7.46178881  9.93231128  7.49488938
  -6.17933109 10.64585223  7.47100580
  -6.18424181 12.05158807  7.46356654
  -3.72590146 10.65374989  7.46641142
  -3.71090283 12.07237073  7.46423979
  -1.25371867 10.64383659  7.47723025
  -1.24381851 12.06096489  7.46734109
   1.23616359 10.60514310  7.50086581
   1.23898414 12.02827791  7.47542800
   3.72278362 10.58224644  7.53750513
   3.71844182 11.99908238  7.49080641
   6.21120145 10.60803785  7.49948253
   6.19408700 12.03023504  7.47537324
   3.71068606  7.08426997  8.32458269
 


--------------------------------------------------------------------------------------------------------


 k-point  1 :   0.0000 0.0000 0.0000  plane waves:   59585
 k-point  2 :   0.5000-0.0000 0.0000  plane waves:   59574
 k-point  3 :   0.0000 0.5000 0.0000  plane waves:   59646
 k-point  4 :   0.5000 0.5000 0.0000  plane waves:   59570

 maximum and minimum number of plane-waves per node :      4996     4932

 maximum number of plane-waves:     59646
 maximum index in each direction: 
   IXMAX=   25   IYMAX=   25   IZMAX=   25
   IXMIN=  -25   IYMIN=  -25   IZMIN=  -25


 real space projection operators:
  total allocation   :      18895.34 KBytes
  max/ min on nodes  :       1623.09       1539.73


 parallel 3D FFT for wavefunctions:
    minimum data exchange during FFTs selected (reduces bandwidth)
 parallel 3D FFT for charge:
    minimum data exchange during FFTs selected (reduces bandwidth)


 total amount of memory used by VASP MPI-rank0   111575. kBytes
=======================================================================

   base      :      30000. kBytes
   nonlr-proj:       9913. kBytes
   fftplans  :      10852. kBytes
   grid      :      30996. kBytes
   one-center:        186. kBytes
   wavefun   :      29628. kBytes
 
     INWAV:  cpu time    0.0000: real time    0.0000
 Broyden mixing: mesh for mixing (old mesh)
   NGX = 51   NGY = 51   NGZ = 51
  (NGX  =216   NGY  =216   NGZ  =216)
  gives a total of 132651 points

 initial charge density was supplied:
 charge density of overlapping atoms calculated
 number of electron     293.0000000 magnetization       1.0000000
 keeping initial charge density in first step


--------------------------------------------------------------------------------------------------------


 Maximum index for non-local projection operator          550
 Maximum index for augmentation-charges          332 (set IRDMAX)


--------------------------------------------------------------------------------------------------------


 First call to EWALD:  gamma=   0.125
 Maximum number of real-space cells 3x 3x 3
 Maximum number of reciprocal cells 3x 3x 3

    FEWALD:  cpu time    0.0028: real time    0.0030


--------------------------------------- Iteration      1(   1)  ---------------------------------------


    POTLOK:  cpu time    0.3893: real time    0.4173
    SETDIJ:  cpu time    0.0133: real time    0.0134
     EDDAV:  cpu time   11.3447: real time   11.4671
       DOS:  cpu time    0.0015: real time    0.0015
    --------------------------------------------
      LOOP:  cpu time   11.7489: real time   11.8992

 eigenvalue-minimisations  :  3328
 total energy-change (2. order) : 0.2507453E+04  (-0.1074214E+05)
 number of electron     293.0000000 magnetization       1.0000000
 augmentation part      293.0000000 magnetization       1.0000000

 Free energy of the ion-electron system (eV)
  ---------------------------------------------------
  alpha Z        PSCENC =       157.21047059
  Ewald energy   TEWEN  =     30437.55909993
  -Hartree energ DENC   =    -39600.38573365
  -exchange      EXHF   =         0.00000000
  -V(xc)+E(xc)   XCENC  =       982.87771799
  PAW double counting   =      9000.30529238    -9089.18527416
  entropy T*S    EENTRO =        -0.11369960
  eigenvalues    EBANDS =     -1446.09235845
  atomic energy  EATOM  =     12065.27733323
  Solvation  Ediel_sol  =         0.00000000
  ---------------------------------------------------
  free energy    TOTEN  =      2507.45284825 eV

  energy without entropy =     2507.56654786  energy(sigma->0) =     2507.50969805


--------------------------------------------------------------------------------------------------------




--------------------------------------- Iteration      1(   2)  ---------------------------------------


     EDDAV:  cpu time   14.6086: real time   14.8555
       DOS:  cpu time    0.0010: real time    0.0010
    --------------------------------------------
      LOOP:  cpu time   14.6096: real time   14.8565

 eigenvalue-minimisations  :  4224
 total energy-change (2. order) :-0.2728625E+04  (-0.2607078E+04)
 number of electron     293.0000000 magnetization       1.0000000
 augmentation part      293.0000000 magnetization       1.0000000

 Free energy of the ion-electron system (eV)
  ---------------------------------------------------
  alpha Z        PSCENC =       157.21047059
  Ewald energy   TEWEN  =     30437.55909993
  -Hartree energ DENC   =    -39600.38573365
  -exchange      EXHF   =         0.00000000
  -V(xc)+E(xc)   XCENC  =       982.87771799
  PAW double counting   =      9000.30529238    -9089.18527416
  entropy T*S    EENTRO =        -0.03096946
  eigenvalues    EBANDS =     -4174.80030609
  atomic energy  EATOM  =     12065.27733323
  Solvation  Ediel_sol  =         0.00000000
  ---------------------------------------------------
  free energy    TOTEN  =      -221.17236924 eV

  energy without entropy =     -221.14139979  energy(sigma->0) =     -221.15688452


--------------------------------------------------------------------------------------------------------




--------------------------------------- Iteration      1(   3)  ---------------------------------------


     EDDAV:  cpu time   12.8221: real time   13.0600
       DOS:  cpu time    0.0010: real time    0.0010
    --------------------------------------------
      LOOP:  cpu time   12.8231: real time   13.0610

 eigenvalue-minimisations  :  3568
 total energy-change (2. order) :-0.4656853E+03  (-0.4628458E+03)
 number of electron     293.0000000 magnetization       1.0000000
 augmentation part      293.0000000 magnetization       1.0000000

 Free energy of the ion-electron system (eV)
  ---------------------------------------------------
  alpha Z        PSCENC =       157.21047059
  Ewald energy   TEWEN  =     30437.55909993
  -Hartree energ DENC   =    -39600.38573365
  -exchange      EXHF   =         0.00000000
  -V(xc)+E(xc)   XCENC  =       982.87771799
  PAW double counting   =      9000.30529238    -9089.18527416
  entropy T*S    EENTRO =        -0.03887104
  eigenvalues    EBANDS =     -4640.47772400
  atomic energy  EATOM  =     12065.27733323
  Solvation  Ediel_sol  =         0.00000000
  ---------------------------------------------------
  free energy    TOTEN  =      -686.85768874 eV

  energy without entropy =     -686.81881770  energy(sigma->0) =     -686.83825322


--------------------------------------------------------------------------------------------------------




--------------------------------------- Iteration      1(   4)  ---------------------------------------


     EDDAV:  cpu time   12.6830: real time   12.8355
       DOS:  cpu time    0.0010: real time    0.0011
    --------------------------------------------
      LOOP:  cpu time   12.6840: real time   12.8366

 eigenvalue-minimisations  :  3544
 total energy-change (2. order) :-0.1711608E+02  (-0.1696888E+02)
 number of electron     293.0000000 magnetization       1.0000000
 augmentation part      293.0000000 magnetization       1.0000000

 Free energy of the ion-electron system (eV)
  ---------------------------------------------------
  alpha Z        PSCENC =       157.21047059
  Ewald energy   TEWEN  =     30437.55909993
  -Hartree energ DENC   =    -39600.38573365
  -exchange      EXHF   =         0.00000000
  -V(xc)+E(xc)   XCENC  =       982.87771799
  PAW double counting   =      9000.30529238    -9089.18527416
  entropy T*S    EENTRO =        -0.03759494
  eigenvalues    EBANDS =     -4657.59508442
  atomic energy  EATOM  =     12065.27733323
  Solvation  Ediel_sol  =         0.00000000
  ---------------------------------------------------
  free energy    TOTEN  =      -703.97377305 eV

  energy without entropy =     -703.93617811  energy(sigma->0) =     -703.95497558


--------------------------------------------------------------------------------------------------------




--------------------------------------- Iteration      1(   5)  ---------------------------------------


     EDDAV:  cpu time   13.9920: real time   14.2563
       DOS:  cpu time    0.0010: real time    0.0010
    CHARGE:  cpu time    0.4908: real time    0.5008
    MIXING:  cpu time    0.0074: real time    0.0085
    --------------------------------------------
      LOOP:  cpu time   14.4913: real time   14.7667

 eigenvalue-minimisations  :  4048
 total energy-change (2. order) :-0.5564787E+00  (-0.5545949E+00)
 number of electron     292.9999983 magnetization       0.7778638
 augmentation part       11.6611706 magnetization       0.7523894

 Broyden mixing:
  rms(total) = 0.46848E+01    rms(broyden)= 0.46843E+01
  rms(prec ) = 0.54423E+01
  weight for this iteration     100.00

 Free energy of the ion-electron system (eV)
  ---------------------------------------------------
  alpha Z        PSCENC =       157.21047059
  Ewald energy   TEWEN  =     30437.55909993
  -Hartree energ DENC   =    -39600.38573365
  -exchange      EXHF   =         0.00000000
  -V(xc)+E(xc)   XCENC  =       982.87771799
  PAW double counting   =      9000.30529238    -9089.18527416
  entropy T*S    EENTRO =        -0.03778974
  eigenvalues    EBANDS =     -4658.15136832
  atomic energy  EATOM  =     12065.27733323
  Solvation  Ediel_sol  =         0.00000000
  ---------------------------------------------------
  free energy    TOTEN  =      -704.53025176 eV

  energy without entropy =     -704.49246202  energy(sigma->0) =     -704.51135689


--------------------------------------------------------------------------------------------------------




--------------------------------------- Iteration      1(   6)  ---------------------------------------


    POTLOK:  cpu time    0.3878: real time    0.3994
    SETDIJ:  cpu time    0.0118: real time    0.0128
    EDDIAG:  cpu time    2.0923: real time    2.1217
  RMM-DIIS:  cpu time   11.7537: real time   11.8562
    ORTHCH:  cpu time    0.2394: real time    0.2406
       DOS:  cpu time    0.0009: real time    0.0009
    CHARGE:  cpu time    0.4581: real time    0.4677
    MIXING:  cpu time    0.0071: real time    0.0079
    --------------------------------------------
      LOOP:  cpu time   14.9510: real time   15.1072

 eigenvalue-minimisations  :  4138
 total energy-change (2. order) :-0.2571352E+02  (-0.5190144E+02)
 number of electron     292.9999986 magnetization       0.7280213
 augmentation part       17.2418447 magnetization       0.9344598

 Broyden mixing:
  rms(total) = 0.83045E+01    rms(broyden)= 0.83041E+01
  rms(prec ) = 0.91617E+01
  weight for this iteration     100.00

 eigenvalues of (default mixing * dielectric matrix)
  average eigenvalue GAMMA=   0.2189
  0.2189

 Free energy of the ion-electron system (eV)
  ---------------------------------------------------
  alpha Z        PSCENC =       157.21047059
  Ewald energy   TEWEN  =     30437.55909993
  -Hartree energ DENC   =    -39893.52539717
  -exchange      EXHF   =         0.00000000
  -V(xc)+E(xc)   XCENC  =       996.69221032
  PAW double counting   =     15328.78061728   -15417.41493253
  entropy T*S    EENTRO =        -0.02871069
  eigenvalues    EBANDS =     -4404.79446483
  atomic energy  EATOM  =     12065.27733323
  Solvation  Ediel_sol  =         0.00000000
  ---------------------------------------------------
  free energy    TOTEN  =      -730.24377387 eV

  energy without entropy =     -730.21506317  energy(sigma->0) =     -730.22941852


--------------------------------------------------------------------------------------------------------




--------------------------------------- Iteration      1(   7)  ---------------------------------------


    POTLOK:  cpu time    0.3865: real time    0.3911
    SETDIJ:  cpu time    0.0287: real time    0.0291
    EDDIAG:  cpu time    2.0818: real time    2.1061
  RMM-DIIS:  cpu time    8.7048: real time    8.7736
    ORTHCH:  cpu time    0.4824: real time    0.4838
       DOS:  cpu time    0.0009: real time    0.0009
    CHARGE:  cpu time    0.4869: real time    0.4961
    MIXING:  cpu time    0.0091: real time    0.0097
    --------------------------------------------
      LOOP:  cpu time   12.1811: real time   12.2904

 eigenvalue-minimisations  :  3038
 total energy-change (2. order) : 0.6739343E+02  (-0.6549752E+01)
 number of electron     292.9999984 magnetization       0.6210591
 augmentation part       15.2827667 magnetization       0.6317979

 Broyden mixing:
  rms(total) = 0.32415E+01    rms(broyden)= 0.32411E+01
  rms(prec ) = 0.38888E+01
  weight for this iteration     100.00

 eigenvalues of (default mixing * dielectric matrix)
  average eigenvalue GAMMA=   0.4652
  0.4652  0.4652

 Free energy of the ion-electron system (eV)
  ---------------------------------------------------
  alpha Z        PSCENC =       157.21047059
  Ewald energy   TEWEN  =     30437.55909993
  -Hartree energ DENC   =    -40015.86781270
  -exchange      EXHF   =         0.00000000
  -V(xc)+E(xc)   XCENC  =      1001.31308045
  PAW double counting   =     16970.74896616   -17066.17134392
  entropy T*S    EENTRO =        -0.00007324
  eigenvalues    EBANDS =     -4212.92006050
  atomic energy  EATOM  =     12065.27733323
  Solvation  Ediel_sol  =         0.00000000
  ---------------------------------------------------
  free energy    TOTEN  =      -662.85034001 eV

  energy without entropy =     -662.85026676  energy(sigma->0) =     -662.85030338


--------------------------------------------------------------------------------------------------------




--------------------------------------- Iteration      1(   8)  ---------------------------------------


    POTLOK:  cpu time    0.4089: real time    0.4131
    SETDIJ:  cpu time    0.0122: real time    0.0123
    EDDIAG:  cpu time    2.0547: real time    2.0693
  RMM-DIIS:  cpu time    8.8767: real time    8.9418
    ORTHCH:  cpu time    0.5140: real time    0.5148
       DOS:  cpu time    0.0011: real time    0.0011
    CHARGE:  cpu time    0.4981: real time    0.5051
    MIXING:  cpu time    0.0086: real time    0.0087
    --------------------------------------------
      LOOP:  cpu time   12.3743: real time   12.4661

 eigenvalue-minimisations  :  3111
 total energy-change (2. order) : 0.2166895E+00  (-0.2469233E+01)
 number of electron     292.9999983 magnetization       0.3565417
 augmentation part       11.2364197 magnetization       0.2931427

 Broyden mixing:
  rms(total) = 0.28464E+01    rms(broyden)= 0.28455E+01
  rms(prec ) = 0.34858E+01
  weight for this iteration     100.00

 eigenvalues of (default mixing * dielectric matrix)
  average eigenvalue GAMMA=   0.8475
  1.8618  0.3404  0.3404

 Free energy of the ion-electron system (eV)
  ---------------------------------------------------
  alpha Z        PSCENC =       157.21047059
  Ewald energy   TEWEN  =     30437.55909993
  -Hartree energ DENC   =    -40195.53308062
  -exchange      EXHF   =         0.00000000
  -V(xc)+E(xc)   XCENC  =      1007.97332331
  PAW double counting   =     19924.07369407   -20023.52380031
  entropy T*S    EENTRO =        -0.03786337
  eigenvalues    EBANDS =     -4035.63282735
  atomic energy  EATOM  =     12065.27733323
  Solvation  Ediel_sol  =         0.00000000
  ---------------------------------------------------
  free energy    TOTEN  =      -662.63365051 eV

  energy without entropy =     -662.59578714  energy(sigma->0) =     -662.61471883


--------------------------------------------------------------------------------------------------------




--------------------------------------- Iteration      1(   9)  ---------------------------------------


    POTLOK:  cpu time    0.4069: real time    0.4111
    SETDIJ:  cpu time    0.0118: real time    0.0119
    EDDIAG:  cpu time    2.0902: real time    2.1132
  RMM-DIIS:  cpu time    8.4224: real time    8.4859
    ORTHCH:  cpu time    0.3171: real time    0.3181
       DOS:  cpu time    0.0009: real time    0.0009
    CHARGE:  cpu time    0.4605: real time    0.4666
    MIXING:  cpu time    0.0071: real time    0.0073
    --------------------------------------------
      LOOP:  cpu time   11.7169: real time   11.8149

 eigenvalue-minimisations  :  2972
 total energy-change (2. order) : 0.1522355E+02  (-0.2010515E+01)
 number of electron     292.9999985 magnetization       0.2682010
 augmentation part       12.1447375 magnetization       0.2818256

 Broyden mixing:
  rms(total) = 0.11953E+01    rms(broyden)= 0.11947E+01
  rms(prec ) = 0.13547E+01
  weight for this iteration     100.00

 eigenvalues of (default mixing * dielectric matrix)
  average eigenvalue GAMMA=   0.9090
  2.2208  0.7084  0.3535  0.3535

 Free energy of the ion-electron system (eV)
  ---------------------------------------------------
  alpha Z        PSCENC =       157.21047059
  Ewald energy   TEWEN  =     30437.55909993
  -Hartree energ DENC   =    -40503.15189563
  -exchange      EXHF   =         0.00000000
  -V(xc)+E(xc)   XCENC  =      1020.86800122
  PAW double counting   =     28411.38466426   -28513.59351359
  entropy T*S    EENTRO =        -0.00370015
  eigenvalues    EBANDS =     -3722.96055722
  atomic energy  EATOM  =     12065.27733323
  Solvation  Ediel_sol  =         0.00000000
  ---------------------------------------------------
  free energy    TOTEN  =      -647.41009736 eV

  energy without entropy =     -647.40639722  energy(sigma->0) =     -647.40824729


--------------------------------------------------------------------------------------------------------




--------------------------------------- Iteration      1(  10)  ---------------------------------------


    POTLOK:  cpu time    0.4074: real time    0.4130
    SETDIJ:  cpu time    0.0121: real time    0.0122
    EDDIAG:  cpu time    2.0455: real time    2.0618
  RMM-DIIS:  cpu time    8.4553: real time    8.5164
    ORTHCH:  cpu time    0.2984: real time    0.2995
       DOS:  cpu time    0.0009: real time    0.0009
    CHARGE:  cpu time    0.5196: real time    0.5266
    MIXING:  cpu time    0.0089: real time    0.0091
    --------------------------------------------
      LOOP:  cpu time   11.7482: real time   11.8396

 eigenvalue-minimisations  :  2988
 total energy-change (2. order) :-0.4056197E+00  (-0.3444607E+00)
 number of electron     292.9999984 magnetization       0.2136858
 augmentation part       13.7731637 magnetization       0.2433222

 Broyden mixing:
  rms(total) = 0.14587E+01    rms(broyden)= 0.14568E+01
  rms(prec ) = 0.18139E+01
  weight for this iteration     100.00

 eigenvalues of (default mixing * dielectric matrix)
  average eigenvalue GAMMA=   0.9263
  2.3437  1.1142  0.3488  0.3488  0.4760

 Free energy of the ion-electron system (eV)
  ---------------------------------------------------
  alpha Z        PSCENC =       157.21047059
  Ewald energy   TEWEN  =     30437.55909993
  -Hartree energ DENC   =    -40547.69698721
  -exchange      EXHF   =         0.00000000
  -V(xc)+E(xc)   XCENC  =      1021.86672276
  PAW double counting   =     30003.71206555   -30104.79221777
  entropy T*S    EENTRO =        -0.00175652
  eigenvalues    EBANDS =     -3680.95044765
  atomic energy  EATOM  =     12065.27733323
  Solvation  Ediel_sol  =         0.00000000
  ---------------------------------------------------
  free energy    TOTEN  =      -647.81571710 eV

  energy without entropy =     -647.81396058  energy(sigma->0) =     -647.81483884


--------------------------------------------------------------------------------------------------------




--------------------------------------- Iteration      1(  11)  ---------------------------------------


    POTLOK:  cpu time    0.4028: real time    0.4066
    SETDIJ:  cpu time    0.0123: real time    0.0124
    EDDIAG:  cpu time    2.0351: real time    2.0542
  RMM-DIIS:  cpu time    8.8684: real time    8.9382
    ORTHCH:  cpu time    0.2854: real time    0.2863
       DOS:  cpu time    0.0010: real time    0.0010
    CHARGE:  cpu time    0.4548: real time    0.4612
    MIXING:  cpu time    0.0073: real time    0.0077
    --------------------------------------------
      LOOP:  cpu time   12.0671: real time   12.1675

 eigenvalue-minimisations  :  3133
 total energy-change (2. order) : 0.1092533E+01  (-0.4300299E-01)
 number of electron     292.9999985 magnetization       0.1554935
 augmentation part       12.5515651 magnetization       0.1258358

 Broyden mixing:
  rms(total) = 0.77166E+00    rms(broyden)= 0.76909E+00
  rms(prec ) = 0.81621E+00
  weight for this iteration     100.00

 eigenvalues of (default mixing * dielectric matrix)
  average eigenvalue GAMMA=   0.9647
  2.0604  2.0604  0.6054  0.3470  0.3470  0.3682

 Free energy of the ion-electron system (eV)
  ---------------------------------------------------
  alpha Z        PSCENC =       157.21047059
  Ewald energy   TEWEN  =     30437.55909993
  -Hartree energ DENC   =    -40579.88948186
  -exchange      EXHF   =         0.00000000
  -V(xc)+E(xc)   XCENC  =      1022.26186771
  PAW double counting   =     30655.81337138   -30756.20259432
  entropy T*S    EENTRO =        -0.03438779
  eigenvalues    EBANDS =     -3648.71886307
  atomic energy  EATOM  =     12065.27733323
  Solvation  Ediel_sol  =         0.00000000
  ---------------------------------------------------
  free energy    TOTEN  =      -646.72318419 eV

  energy without entropy =     -646.68879640  energy(sigma->0) =     -646.70599030


--------------------------------------------------------------------------------------------------------




--------------------------------------- Iteration      1(  12)  ---------------------------------------


    POTLOK:  cpu time    0.3884: real time    0.3930
    SETDIJ:  cpu time    0.0120: real time    0.0121
    EDDIAG:  cpu time    2.0451: real time    2.0636
  RMM-DIIS:  cpu time    8.3374: real time    8.4074
    ORTHCH:  cpu time    0.2267: real time    0.2273
       DOS:  cpu time    0.0010: real time    0.0010
    CHARGE:  cpu time    0.4521: real time    0.4593
    MIXING:  cpu time    0.0087: real time    0.0088
    --------------------------------------------
      LOOP:  cpu time   11.4713: real time   11.5726

 eigenvalue-minimisations  :  2944
 total energy-change (2. order) : 0.6823756E-01  (-0.1757757E-01)
 number of electron     292.9999984 magnetization       0.1729294
 augmentation part       12.9457442 magnetization      -0.2330887

 Broyden mixing:
  rms(total) = 0.70920E+00    rms(broyden)= 0.70784E+00
  rms(prec ) = 0.73829E+00
  weight for this iteration     100.00

 eigenvalues of (default mixing * dielectric matrix)
  average eigenvalue GAMMA=   0.8467
  2.0993  2.0993  0.5469  0.3478  0.3478  0.3722  0.1140

 Free energy of the ion-electron system (eV)
  ---------------------------------------------------
  alpha Z        PSCENC =       157.21047059
  Ewald energy   TEWEN  =     30437.55909993
  -Hartree energ DENC   =    -40604.64651376
  -exchange      EXHF   =         0.00000000
  -V(xc)+E(xc)   XCENC  =      1021.80218275
  PAW double counting   =     31093.22644198   -31192.08131323
  entropy T*S    EENTRO =        -0.03971301
  eigenvalues    EBANDS =     -3624.96293511
  atomic energy  EATOM  =     12065.27733323
  Solvation  Ediel_sol  =         0.00000000
  ---------------------------------------------------
  free energy    TOTEN  =      -646.65494663 eV

  energy without entropy =     -646.61523363  energy(sigma->0) =     -646.63509013


--------------------------------------------------------------------------------------------------------




--------------------------------------- Iteration      1(  13)  ---------------------------------------


    POTLOK:  cpu time    0.4494: real time    0.4534
    SETDIJ:  cpu time    0.0125: real time    0.0126
    EDDIAG:  cpu time    2.1012: real time    2.1218
  RMM-DIIS:  cpu time    8.4136: real time    8.4794
    ORTHCH:  cpu time    0.1776: real time    0.1782
       DOS:  cpu time    0.0010: real time    0.0010
    CHARGE:  cpu time    0.5032: real time    0.5115
    MIXING:  cpu time    0.0077: real time    0.0086
    --------------------------------------------
      LOOP:  cpu time   11.6662: real time   11.7664

 eigenvalue-minimisations  :  2987
 total energy-change (2. order) :-0.7947162E-01  (-0.3221172E-02)
 number of electron     292.9999984 magnetization       0.0610922
 augmentation part       12.9676413 magnetization      -0.4058517

 Broyden mixing:
  rms(total) = 0.72864E+00    rms(broyden)= 0.72850E+00
  rms(prec ) = 0.76125E+00
  weight for this iteration     100.00

 eigenvalues of (default mixing * dielectric matrix)
  average eigenvalue GAMMA=   0.8351
  2.1320  2.1320  0.3746  0.5973  0.3485  0.3485  0.4431  0.3051

 Free energy of the ion-electron system (eV)
  ---------------------------------------------------
  alpha Z        PSCENC =       157.21047059
  Ewald energy   TEWEN  =     30437.55909993
  -Hartree energ DENC   =    -40606.39386947
  -exchange      EXHF   =         0.00000000
  -V(xc)+E(xc)   XCENC  =      1021.82081543
  PAW double counting   =     31096.79519879   -31195.56009233
  entropy T*S    EENTRO =        -0.02809993
  eigenvalues    EBANDS =     -3623.41527450
  atomic energy  EATOM  =     12065.27733323
  Solvation  Ediel_sol  =         0.00000000
  ---------------------------------------------------
  free energy    TOTEN  =      -646.73441825 eV

  energy without entropy =     -646.70631833  energy(sigma->0) =     -646.72036829


--------------------------------------------------------------------------------------------------------




--------------------------------------- Iteration      1(  14)  ---------------------------------------


    POTLOK:  cpu time    0.4059: real time    0.4090
    SETDIJ:  cpu time    0.0117: real time    0.0118
    EDDIAG:  cpu time    2.0020: real time    2.0175
  RMM-DIIS:  cpu time    8.3587: real time    8.4207
    ORTHCH:  cpu time    0.3129: real time    0.3143
       DOS:  cpu time    0.0009: real time    0.0009
    CHARGE:  cpu time    0.4555: real time    0.4627
    MIXING:  cpu time    0.0090: real time    0.0091
    --------------------------------------------
      LOOP:  cpu time   11.5567: real time   11.6460

 eigenvalue-minimisations  :  2969
 total energy-change (2. order) : 0.2371792E+00  (-0.3186472E-02)
 number of electron     292.9999984 magnetization       0.1541389
 augmentation part       12.9652511 magnetization      -0.2230583

 Broyden mixing:
  rms(total) = 0.72940E+00    rms(broyden)= 0.72935E+00
  rms(prec ) = 0.76014E+00
  weight for this iteration     100.00

 eigenvalues of (default mixing * dielectric matrix)
  average eigenvalue GAMMA=   0.8533
  2.2147  2.2147  0.5549  0.5549  0.6533  0.3475  0.3475  0.4662  0.3262

 Free energy of the ion-electron system (eV)
  ---------------------------------------------------
  alpha Z        PSCENC =       157.21047059
  Ewald energy   TEWEN  =     30437.55909993
  -Hartree energ DENC   =    -40606.62766291
  -exchange      EXHF   =         0.00000000
  -V(xc)+E(xc)   XCENC  =      1021.80020021
  PAW double counting   =     31186.50661536   -31285.14083347
  entropy T*S    EENTRO =        -0.04421372
  eigenvalues    EBANDS =     -3623.03824831
  atomic energy  EATOM  =     12065.27733323
  Solvation  Ediel_sol  =         0.00000000
  ---------------------------------------------------
  free energy    TOTEN  =      -646.49723908 eV

  energy without entropy =     -646.45302536  energy(sigma->0) =     -646.47513222


--------------------------------------------------------------------------------------------------------




--------------------------------------- Iteration      1(  15)  ---------------------------------------


    POTLOK:  cpu time    0.3994: real time    0.4035
    SETDIJ:  cpu time    0.0120: real time    0.0120
    EDDIAG:  cpu time    2.0182: real time    2.0353
  RMM-DIIS:  cpu time    8.4943: real time    8.5589
    ORTHCH:  cpu time    0.2351: real time    0.2360
       DOS:  cpu time    0.0008: real time    0.0008
    CHARGE:  cpu time    0.4551: real time    0.4624
    MIXING:  cpu time    0.0090: real time    0.0092
    --------------------------------------------
      LOOP:  cpu time   11.6241: real time   11.7182

 eigenvalue-minimisations  :  2993
 total energy-change (2. order) :-0.9843704E-01  (-0.1144594E-02)
 number of electron     292.9999984 magnetization      -0.0043405
 augmentation part       12.9407263 magnetization      -0.4598004

 Broyden mixing:
  rms(total) = 0.76089E+00    rms(broyden)= 0.76085E+00
  rms(prec ) = 0.78460E+00
  weight for this iteration     100.00

 eigenvalues of (default mixing * dielectric matrix)
  average eigenvalue GAMMA=   0.7746
  2.2140  2.2140  0.4861  0.4861  0.6561  0.3474  0.3474  0.4690  0.3279  0.1980

 Free energy of the ion-electron system (eV)
  ---------------------------------------------------
  alpha Z        PSCENC =       157.21047059
  Ewald energy   TEWEN  =     30437.55909993
  -Hartree energ DENC   =    -40607.79858846
  -exchange      EXHF   =         0.00000000
  -V(xc)+E(xc)   XCENC  =      1021.76416115
  PAW double counting   =     31193.05622649   -31291.64860685
  entropy T*S    EENTRO =        -0.03240887
  eigenvalues    EBANDS =     -3621.98336333
  atomic energy  EATOM  =     12065.27733323
  Solvation  Ediel_sol  =         0.00000000
  ---------------------------------------------------
  free energy    TOTEN  =      -646.59567612 eV

  energy without entropy =     -646.56326725  energy(sigma->0) =     -646.57947169


--------------------------------------------------------------------------------------------------------




--------------------------------------- Iteration      1(  16)  ---------------------------------------


    POTLOK:  cpu time    0.4406: real time    0.4451
    SETDIJ:  cpu time    0.0119: real time    0.0119
    EDDIAG:  cpu time    2.0055: real time    2.0358
  RMM-DIIS:  cpu time    8.4491: real time    8.5132
    ORTHCH:  cpu time    0.2439: real time    0.2445
       DOS:  cpu time    0.0010: real time    0.0010
    CHARGE:  cpu time    0.4850: real time    0.4924
    MIXING:  cpu time    0.0097: real time    0.0097
    --------------------------------------------
      LOOP:  cpu time   11.6467: real time   11.7537

 eigenvalue-minimisations  :  2966
 total energy-change (2. order) : 0.9301654E-01  (-0.4355692E-02)
 number of electron     292.9999984 magnetization      -0.2350168
 augmentation part       12.8108183 magnetization      -0.6009061

 Broyden mixing:
  rms(total) = 0.60141E+00    rms(broyden)= 0.60120E+00
  rms(prec ) = 0.61099E+00
  weight for this iteration     100.00

 eigenvalues of (default mixing * dielectric matrix)
  average eigenvalue GAMMA=   0.9871
  2.2099  2.2099  1.3795  1.1298  1.1298  0.7062  0.3472  0.3472  0.5322  0.5322
  0.3344

 Free energy of the ion-electron system (eV)
  ---------------------------------------------------
  alpha Z        PSCENC =       157.21047059
  Ewald energy   TEWEN  =     30437.55909993
  -Hartree energ DENC   =    -40612.33007804
  -exchange      EXHF   =         0.00000000
  -V(xc)+E(xc)   XCENC  =      1021.88049056
  PAW double counting   =     31189.84625586   -31288.42954710
  entropy T*S    EENTRO =        -0.03419672
  eigenvalues    EBANDS =     -3617.48248789
  atomic energy  EATOM  =     12065.27733323
  Solvation  Ediel_sol  =         0.00000000
  ---------------------------------------------------
  free energy    TOTEN  =      -646.50265958 eV

  energy without entropy =     -646.46846286  energy(sigma->0) =     -646.48556122


--------------------------------------------------------------------------------------------------------




--------------------------------------- Iteration      1(  17)  ---------------------------------------


    POTLOK:  cpu time    0.4055: real time    0.4088
    SETDIJ:  cpu time    0.0121: real time    0.0121
    EDDIAG:  cpu time    2.0860: real time    2.1009
  RMM-DIIS:  cpu time    8.3694: real time    8.4384
    ORTHCH:  cpu time    0.3225: real time    0.3233
       DOS:  cpu time    0.0025: real time    0.0026
    CHARGE:  cpu time    0.4898: real time    0.4977
    MIXING:  cpu time    0.0100: real time    0.0100
    --------------------------------------------
      LOOP:  cpu time   11.6976: real time   11.7937

 eigenvalue-minimisations  :  2948
 total energy-change (2. order) : 0.2533619E+00  (-0.5491058E-01)
 number of electron     292.9999984 magnetization      -0.4850206
 augmentation part       12.8675970 magnetization      -0.9787091

 Broyden mixing:
  rms(total) = 0.51740E+00    rms(broyden)= 0.51704E+00
  rms(prec ) = 0.53475E+00
  weight for this iteration     100.00

 eigenvalues of (default mixing * dielectric matrix)
  average eigenvalue GAMMA=   0.9716
  1.6006  2.1681  2.1681  1.2434  1.2434  0.3472  0.3472  0.6546  0.5489  0.5489
  0.4562  0.3325

 Free energy of the ion-electron system (eV)
  ---------------------------------------------------
  alpha Z        PSCENC =       157.21047059
  Ewald energy   TEWEN  =     30437.55909993
  -Hartree energ DENC   =    -40632.53312472
  -exchange      EXHF   =         0.00000000
  -V(xc)+E(xc)   XCENC  =      1022.58783840
  PAW double counting   =     31131.28478328   -31229.90599588
  entropy T*S    EENTRO =        -0.03374135
  eigenvalues    EBANDS =     -3597.69596120
  atomic energy  EATOM  =     12065.27733323
  Solvation  Ediel_sol  =         0.00000000
  ---------------------------------------------------
  free energy    TOTEN  =      -646.24929772 eV

  energy without entropy =     -646.21555637  energy(sigma->0) =     -646.23242704


--------------------------------------------------------------------------------------------------------




--------------------------------------- Iteration      1(  18)  ---------------------------------------


    POTLOK:  cpu time    0.3818: real time    0.3859
    SETDIJ:  cpu time    0.0123: real time    0.0124
    EDDIAG:  cpu time    2.0487: real time    2.0642
  RMM-DIIS:  cpu time    8.5467: real time    8.6154
    ORTHCH:  cpu time    0.1557: real time    0.1562
       DOS:  cpu time    0.0011: real time    0.0011
    CHARGE:  cpu time    0.4560: real time    0.4626
    MIXING:  cpu time    0.0089: real time    0.0089
    --------------------------------------------
      LOOP:  cpu time   11.6111: real time   11.7067

 eigenvalue-minimisations  :  3032
 total energy-change (2. order) : 0.9676327E+00  (-0.6292873E-01)
 number of electron     292.9999984 magnetization      -0.5086240
 augmentation part       13.0787463 magnetization      -0.6660815

 Broyden mixing:
  rms(total) = 0.60372E+00    rms(broyden)= 0.60315E+00
  rms(prec ) = 0.68426E+00
  weight for this iteration     100.00

 eigenvalues of (default mixing * dielectric matrix)
  average eigenvalue GAMMA=   0.9063
  2.1960  2.1960  1.5892  1.1082  1.1082  0.7351  0.3473  0.3473  0.5138  0.5138
  0.3347  0.3964  0.3964

 Free energy of the ion-electron system (eV)
  ---------------------------------------------------
  alpha Z        PSCENC =       157.21047059
  Ewald energy   TEWEN  =     30437.55909993
  -Hartree energ DENC   =    -40639.66468189
  -exchange      EXHF   =         0.00000000
  -V(xc)+E(xc)   XCENC  =      1023.42822479
  PAW double counting   =     31103.17273955   -31201.78832665
  entropy T*S    EENTRO =        -0.06109187
  eigenvalues    EBANDS =     -3590.41543271
  atomic energy  EATOM  =     12065.27733323
  Solvation  Ediel_sol  =         0.00000000
  ---------------------------------------------------
  free energy    TOTEN  =      -645.28166503 eV

  energy without entropy =     -645.22057317  energy(sigma->0) =     -645.25111910


--------------------------------------------------------------------------------------------------------




--------------------------------------- Iteration      1(  19)  ---------------------------------------


    POTLOK:  cpu time    0.3844: real time    0.3906
    SETDIJ:  cpu time    0.0117: real time    0.0117
    EDDIAG:  cpu time    1.9979: real time    2.0124
  RMM-DIIS:  cpu time    8.7226: real time    8.8059
    ORTHCH:  cpu time    0.2347: real time    0.2360
       DOS:  cpu time    0.0011: real time    0.0011
    CHARGE:  cpu time    0.4880: real time    0.4956
    MIXING:  cpu time    0.0105: real time    0.0105
    --------------------------------------------
      LOOP:  cpu time   11.8511: real time   11.9639

 eigenvalue-minimisations  :  3087
 total energy-change (2. order) :-0.4326364E+00  (-0.7080276E-02)
 number of electron     292.9999984 magnetization      -0.5083829
 augmentation part       13.0655954 magnetization      -0.5933522

 Broyden mixing:
  rms(total) = 0.57035E+00    rms(broyden)= 0.57018E+00
  rms(prec ) = 0.65142E+00
  weight for this iteration     100.00

 eigenvalues of (default mixing * dielectric matrix)
  average eigenvalue GAMMA=   0.8566
  2.1964  2.1964  1.5914  1.1117  1.1117  0.7449  0.3472  0.3472  0.5175  0.5175
  0.3344  0.4376  0.4376  0.1003

 Free energy of the ion-electron system (eV)
  ---------------------------------------------------
  alpha Z        PSCENC =       157.21047059
  Ewald energy   TEWEN  =     30437.55909993
  -Hartree energ DENC   =    -40638.31474683
  -exchange      EXHF   =         0.00000000
  -V(xc)+E(xc)   XCENC  =      1023.04805404
  PAW double counting   =     31126.78164438   -31225.44412730
  entropy T*S    EENTRO =        -0.06464889
  eigenvalues    EBANDS =     -3591.76738060
  atomic energy  EATOM  =     12065.27733323
  Solvation  Ediel_sol  =         0.00000000
  ---------------------------------------------------
  free energy    TOTEN  =      -645.71430146 eV

  energy without entropy =     -645.64965257  energy(sigma->0) =     -645.68197701


--------------------------------------------------------------------------------------------------------




--------------------------------------- Iteration      1(  20)  ---------------------------------------


    POTLOK:  cpu time    0.3877: real time    0.3915
    SETDIJ:  cpu time    0.0159: real time    0.0160
    EDDIAG:  cpu time    2.0375: real time    2.0606
  RMM-DIIS:  cpu time    9.5208: real time    9.5985
    ORTHCH:  cpu time    0.2589: real time    0.2601
       DOS:  cpu time    0.0010: real time    0.0010
    CHARGE:  cpu time    0.4735: real time    0.4814
    MIXING:  cpu time    0.0114: real time    0.0114
    --------------------------------------------
      LOOP:  cpu time   12.7066: real time   12.8204

 eigenvalue-minimisations  :  3390
 total energy-change (2. order) :-0.7449871E-02  (-0.1387591E-02)
 number of electron     292.9999984 magnetization      -0.5917412
 augmentation part       13.0785486 magnetization      -0.6179946

 Broyden mixing:
  rms(total) = 0.58465E+00    rms(broyden)= 0.58459E+00
  rms(prec ) = 0.67099E+00
  weight for this iteration     100.00

 eigenvalues of (default mixing * dielectric matrix)
  average eigenvalue GAMMA=   0.8157
  2.1909  2.1909  1.6327  1.1123  1.1123  0.7416  0.5182  0.5182  0.3472  0.3472
  0.3345  0.4316  0.4316  0.1634  0.1634

 Free energy of the ion-electron system (eV)
  ---------------------------------------------------
  alpha Z        PSCENC =       157.21047059
  Ewald energy   TEWEN  =     30437.55909993
  -Hartree energ DENC   =    -40638.17438561
  -exchange      EXHF   =         0.00000000
  -V(xc)+E(xc)   XCENC  =      1023.04254788
  PAW double counting   =     31127.48890930   -31226.16009353
  entropy T*S    EENTRO =        -0.06616595
  eigenvalues    EBANDS =     -3591.89946718
[...]
  Hartree 39999.34521 39966.72199-39203.87589     4.11860    -2.76165    -3.00978
  E(xc)   -1110.97252 -1110.64218 -1150.09923     0.01083    -0.00104    -0.00302
  Local  -83738.78628-83716.28937 86062.20095   -10.94178     5.82688     6.39267
  n-local  -289.17840  -286.49253  -269.95702    -0.14323    -0.03292    -0.00191
  augment    66.62362    64.93397    65.46920    -0.04198     0.02723     0.08337
  Kinetic  4382.71245  4369.74598  4984.62853    -0.28622     0.23777     0.29337
  Fock        0.00000     0.00000     0.00000     0.00000     0.00000     0.00000
  vdW        -1.53600    -1.68614    -0.04173     0.00244     0.00025     0.00432
  -------------------------------------------------------------------------------------
  Total      -2.30439    -2.36110    -3.49947     0.07377     0.01123    -0.01225
  in kB      -1.29842    -1.33037    -1.97179     0.04156     0.00633    -0.00690
  external pressure =       -1.53 kB  Pullay stress =        0.00 kB


 VOLUME and BASIS-vectors are now :
 -----------------------------------------------------------------------------
  energy-cutoff  :      440.00
  volume of cell :     2843.50
      direct lattice vectors                 reciprocal lattice vectors
    14.861160630 -0.003892508  0.000000000     0.067299762  0.039197741  0.000000000
    -7.430580315 12.757783281  0.000000000     0.000020534  0.078395483  0.000000000
     0.000000000  0.000000000 15.000000000     0.000000000  0.000000000  0.066666667

  length of vectors
    14.861161140 14.763961463 15.000000000     0.077882738  0.078395485  0.066666667


 FORCES acting on ions
    electron-ion (+dipol)            ewald-force                    non-local-force                 convergence-correction
 -----------------------------------------------------------------------------------------------
   0.617E+01 -.102E+02 0.791E+01   -.729E+01 0.111E+02 -.794E+01   0.112E+01 -.902E+00 0.329E-01   -.160E-04 0.603E-05 -.135E-04
   0.103E+01 -.281E+01 0.769E+01   -.974E+00 0.352E+01 -.772E+01   -.620E-01 -.711E+00 0.281E-01   0.262E-06 0.838E-07 -.132E-04
   -.453E+01 -.954E+01 0.734E+01   0.557E+01 0.106E+02 -.735E+01   -.104E+01 -.107E+01 0.206E-01   0.225E-05 0.344E-05 -.288E-05
   -.456E+01 -.245E+01 0.755E+01   0.464E+01 0.320E+01 -.754E+01   -.699E-01 -.755E+00 -.206E-02   0.971E-06 0.185E-04 -.291E-04
   -.380E+01 -.212E+01 0.661E+01   0.422E+01 0.247E+01 -.664E+01   -.419E+00 -.346E+00 0.210E-01   0.772E-05 0.177E-06 -.446E-05
   0.401E+00 -.320E+00 0.695E+01   -.359E+00 0.582E+00 -.696E+01   -.482E-01 -.281E+00 -.189E-02   0.739E-05 0.160E-04 -.310E-04
   -.248E+01 -.298E+00 0.766E+01   0.265E+01 0.272E+00 -.768E+01   -.178E+00 0.245E-01 0.252E-01   0.940E-05 0.244E-05 -.145E-04
   0.160E+01 -.551E+00 0.782E+01   -.164E+01 0.610E+00 -.785E+01   0.337E-01 -.596E-01 0.223E-01   -.667E-05 -.524E-05 -.143E-04
   -.169E+01 -.843E+00 0.758E+01   0.164E+01 0.756E+00 -.759E+01   0.602E-01 0.813E-01 0.103E-01   -.535E-05 -.145E-04 -.308E-04
   0.506E+00 -.778E+00 0.733E+01   -.539E+00 0.680E+00 -.736E+01   0.337E-01 0.955E-01 0.255E-01   -.319E-05 -.385E-05 -.355E-05
   0.572E+01 -.280E+01 0.698E+01   -.621E+01 0.293E+01 -.699E+01   0.489E+00 -.118E+00 0.175E-02   0.519E-06 -.177E-04 -.308E-04
   0.184E+01 -.115E+01 0.655E+01   -.194E+01 0.119E+01 -.658E+01   0.104E+00 -.591E-01 0.177E-01   0.178E-05 0.517E-06 -.400E-05
   0.142E+01 0.216E+01 0.682E+01   -.158E+01 -.203E+01 -.683E+01   0.167E+00 -.134E+00 0.802E-02   0.870E-06 0.732E-06 -.727E-05
   0.234E+01 0.252E+01 0.645E+01   -.231E+01 -.243E+01 -.647E+01   -.244E-01 -.687E-01 0.180E-01   0.106E-04 0.246E-04 -.188E-04
   0.168E+01 0.574E-01 0.876E+01   -.162E+01 0.389E+00 -.878E+01   -.703E-01 -.474E+00 0.215E-01   0.869E-05 0.227E-04 -.370E-04
   -.181E+01 0.633E+01 0.102E+02   0.231E+01 -.588E+01 -.103E+02   -.504E+00 -.457E+00 0.927E-01   0.209E-04 0.974E-05 -.836E-04
   0.147E+00 0.436E+01 0.729E+01   0.277E-02 -.379E+01 -.731E+01   -.149E+00 -.593E+00 0.201E-01   0.497E-07 0.209E-04 -.593E-04
   -.520E+00 0.644E+01 0.624E+01   0.564E+00 -.567E+01 -.586E+01   -.368E-01 -.786E+00 -.383E+00   0.962E-06 0.560E-04 -.127E-03
   -.318E+01 0.416E+01 0.833E+01   0.318E+01 -.395E+01 -.835E+01   0.119E-02 -.222E+00 0.207E-01   -.558E-05 0.191E-04 -.395E-04
   0.140E+01 0.720E+01 0.975E+01   -.193E+01 -.692E+01 -.984E+01   0.522E+00 -.275E+00 0.896E-01   -.215E-04 0.565E-05 -.863E-04
   -.177E+01 0.369E+01 0.778E+01   0.179E+01 -.373E+01 -.779E+01   -.185E-01 0.487E-01 0.931E-02   -.148E-05 -.824E-06 -.698E-05
   -.152E+01 0.396E+01 0.799E+01   0.146E+01 -.402E+01 -.802E+01   0.518E-01 0.635E-01 0.317E-01   -.696E-05 0.273E-04 -.182E-04
   0.995E+00 0.205E+01 0.598E+01   -.107E+01 -.204E+01 -.597E+01   0.807E-01 -.179E-01 -.143E-01   -.296E-05 -.115E-05 0.458E-05
   0.944E+00 0.247E+01 0.598E+01   -.910E+00 -.248E+01 -.601E+01   -.235E-01 0.250E-01 0.218E-01   -.255E-05 0.325E-05 0.667E-05
   0.866E+00 0.247E+01 0.516E+01   -.832E+00 -.251E+01 -.514E+01   -.290E-01 0.447E-01 -.214E-01   0.167E-04 0.175E-04 -.467E-05
   0.348E+01 0.539E+01 0.553E+01   -.334E+01 -.547E+01 -.557E+01   -.119E+00 0.799E-01 0.297E-01   0.213E-04 0.303E-05 -.146E-04
   0.450E+01 0.911E+01 0.697E+01   -.429E+01 -.909E+01 -.694E+01   -.200E+00 -.289E-01 -.295E-01   -.234E-05 0.251E-04 -.632E-04
   0.121E+02 0.661E+01 0.585E+01   -.118E+02 -.649E+01 -.596E+01   -.290E+00 -.117E+00 0.119E+00   0.304E-05 0.317E-04 -.858E-04
   -.168E+01 0.175E+02 0.124E+02   0.197E+01 -.164E+02 -.126E+02   -.303E+00 -.103E+01 0.231E+00   0.382E-04 0.880E-05 -.148E-03
   -.738E+01 0.348E+02 0.261E+02   0.136E+02 -.312E+02 -.252E+02   -.622E+01 -.359E+01 -.908E+00   0.572E-04 0.700E-04 -.182E-03
   0.143E+01 0.168E+02 0.112E+02   -.168E+01 -.158E+02 -.115E+02   0.251E+00 -.980E+00 0.224E+00   -.362E-04 0.547E-05 -.151E-03
   0.760E+01 0.357E+02 0.238E+02   -.139E+02 -.321E+02 -.229E+02   0.631E+01 -.357E+01 -.905E+00   -.574E-04 0.671E-04 -.186E-03
   -.409E+01 0.106E+02 0.792E+01   0.384E+01 -.107E+02 -.789E+01   0.249E+00 0.136E+00 -.315E-01   0.382E-05 0.233E-04 -.640E-04
   -.110E+02 0.879E+01 0.753E+01   0.107E+02 -.881E+01 -.764E+01   0.386E+00 0.318E-01 0.113E+00   0.108E-05 0.278E-04 -.856E-04
   -.181E+01 0.424E+01 0.658E+01   0.177E+01 -.435E+01 -.656E+01   0.357E-01 0.130E+00 -.177E-01   -.218E-04 0.156E-04 -.358E-05
   -.350E+01 0.614E+01 0.743E+01   0.352E+01 -.631E+01 -.747E+01   -.301E-01 0.182E+00 0.372E-01   -.244E-04 -.303E-05 -.134E-04
   -.151E+01 0.148E+01 0.621E+01   0.159E+01 -.167E+01 -.623E+01   -.857E-01 0.196E+00 0.131E-01   0.268E-05 -.200E-05 -.691E-05
   -.721E+00 0.306E+01 0.628E+01   0.127E+01 -.341E+01 -.630E+01   -.549E+00 0.341E+00 0.114E-01   0.134E-05 -.175E-05 -.663E-05
   0.417E+01 0.136E+01 0.404E+01   -.406E+01 -.140E+01 -.400E+01   -.122E+00 0.628E-01 -.367E-01   0.315E-04 -.284E-05 -.476E-04
   0.428E+01 -.285E+00 0.404E+01   -.403E+01 0.193E+00 -.400E+01   -.238E+00 0.847E-01 -.376E-01   0.312E-04 -.582E-05 -.478E-04
   0.248E+02 0.868E+01 0.138E+02   -.239E+02 -.914E+01 -.144E+02   -.826E+00 0.451E+00 0.575E+00   0.172E-04 0.839E-04 -.147E-03
   0.251E+02 -.898E+01 0.139E+02   -.242E+02 0.943E+01 -.144E+02   -.867E+00 -.435E+00 0.545E+00   0.165E-04 -.841E-04 -.148E-03
   -.232E+02 0.937E+01 0.128E+02   0.222E+02 -.100E+02 -.133E+02   0.101E+01 0.637E+00 0.492E+00   -.178E-04 0.885E-04 -.147E-03
   -.231E+02 -.478E+01 0.127E+02   0.216E+02 0.489E+01 -.131E+02   0.150E+01 -.104E+00 0.419E+00   -.207E-04 -.960E-04 -.145E-03
   -.511E+01 0.474E+01 0.688E+01   0.500E+01 -.522E+01 -.687E+01   0.103E+00 0.489E+00 -.163E-01   -.322E-04 -.777E-05 -.462E-04
   -.487E+01 0.781E+01 0.700E+01   0.480E+01 -.866E+01 -.698E+01   0.764E-01 0.847E+00 -.201E-01   -.306E-04 0.345E-05 -.460E-04
   -.103E+02 0.466E+01 0.752E+01   0.106E+02 -.603E+01 -.757E+01   -.250E+00 0.136E+01 0.423E-01   -.248E-04 -.102E-04 -.133E-04
   -.247E+02 0.988E+01 0.656E+01   0.301E+02 -.130E+02 -.656E+01   -.537E+01 0.309E+01 -.546E-02   -.808E-05 -.273E-04 -.405E-05
   -.647E+00 -.234E+01 0.546E+01   0.943E+00 0.219E+01 -.549E+01   -.308E+00 0.154E+00 0.217E-01   0.176E-04 -.551E-05 -.148E-04
   -.198E+01 -.359E+01 0.517E+01   0.260E+01 0.331E+01 -.515E+01   -.616E+00 0.278E+00 -.289E-01   0.177E-04 -.944E-05 -.511E-05
   0.107E+02 -.630E+01 0.593E+01   -.103E+02 0.619E+01 -.605E+01   -.325E+00 0.109E+00 0.118E+00   0.110E-04 -.323E-04 -.863E-04
   0.362E+01 -.104E+02 0.704E+01   -.327E+01 0.104E+02 -.701E+01   -.332E+00 -.929E-02 -.297E-01   0.732E-05 -.184E-04 -.643E-04
   -.729E+01 -.347E+02 0.265E+02   0.135E+02 0.311E+02 -.256E+02   -.624E+01 0.360E+01 -.823E+00   0.574E-04 -.640E-04 -.184E-03
   -.448E+00 -.185E+02 0.122E+02   0.618E+00 0.175E+02 -.124E+02   -.191E+00 0.100E+01 0.232E+00   0.366E-04 -.676E-05 -.150E-03
   0.117E+02 -.317E+02 0.223E+02   -.183E+02 0.278E+02 -.213E+02   0.665E+01 0.389E+01 -.953E+00   -.629E-04 -.710E-04 -.180E-03
   0.491E+01 -.185E+02 0.111E+02   -.575E+01 0.171E+02 -.113E+02   0.849E+00 0.135E+01 0.166E+00   -.465E-04 -.175E-05 -.147E-03
   -.494E+01 0.242E+01 0.735E+01   0.432E+01 -.396E+01 -.746E+01   0.606E+00 0.153E+01 0.106E+00   0.326E-05 -.427E-04 -.838E-04
   0.192E+02 0.345E+01 0.724E+01   -.247E+02 -.664E+01 -.704E+01   0.554E+01 0.320E+01 -.193E+00   -.107E-04 -.297E-04 -.616E-04
   -.220E+01 -.415E+01 0.966E+01   0.210E+01 0.404E+01 -.980E+01   0.894E-01 0.998E-01 0.152E+00   -.812E-05 -.331E-04 -.202E-04
   -.150E+01 -.307E+02 0.770E+01   0.146E+01 0.370E+02 -.772E+01   0.364E-01 -.627E+01 0.260E-01   0.193E-05 0.162E-04 -.686E-05
   -.107E+02 -.834E+00 0.602E+01   0.120E+02 0.128E+01 -.604E+01   -.135E+01 -.463E+00 0.196E-01   0.124E-04 0.331E-05 0.659E-05
   -.657E+01 -.664E+01 0.605E+01   0.730E+01 0.711E+01 -.604E+01   -.737E+00 -.484E+00 -.125E-01   0.469E-05 -.706E-06 0.438E-05
   -.424E+00 -.203E+01 0.643E+01   0.700E+00 0.210E+01 -.645E+01   -.273E+00 -.717E-01 0.206E-01   0.875E-05 -.157E-04 -.200E-04
   -.472E+00 -.502E+01 0.678E+01   0.635E+00 0.507E+01 -.679E+01   -.173E+00 -.576E-01 0.173E-02   0.346E-05 -.103E-05 -.832E-05
   -.215E+01 -.637E+01 0.101E+02   0.266E+01 0.612E+01 -.102E+02   -.508E+00 0.244E+00 0.964E-01   0.213E-04 -.750E-05 -.853E-04
   0.200E+01 -.497E+01 0.874E+01   -.194E+01 0.480E+01 -.876E+01   -.689E-01 0.176E+00 0.216E-01   0.548E-05 -.175E-04 -.390E-04
   0.143E+01 -.568E+01 0.602E+01   -.164E+01 0.502E+01 -.565E+01   0.214E+00 0.681E+00 -.374E+00   0.662E-06 -.548E-04 -.126E-03
   0.218E+01 -.728E+01 0.740E+01   -.236E+01 0.686E+01 -.743E+01   0.193E+00 0.436E+00 0.247E-01   -.219E-05 -.230E-04 -.597E-04
   0.125E+02 -.551E+01 0.101E+02   -.144E+02 0.561E+01 -.102E+02   0.194E+01 -.986E-01 0.921E-01   -.323E-04 0.146E-06 -.835E-04
   0.528E+01 -.835E+01 0.859E+01   -.608E+01 0.862E+01 -.862E+01   0.808E+00 -.261E+00 0.219E-01   -.106E-04 -.195E-04 -.386E-04
   0.364E+00 0.445E+00 -.629E+03   -.818E-01 -.551E+00 0.611E+03   -.306E+00 0.118E+00 0.182E+02   -.126E-04 0.133E-04 -.519E-03
 -----------------------------------------------------------------------------------------------
   0.635E-01 -.471E+00 -.178E+02   0.692E-13 0.709E-13 -.114E-12   -.650E-01 0.471E+00 0.178E+02   -.106E-04 0.282E-05 -.445E-02
 
 
 POSITION                                       TOTAL-FORCE (eV/Angst)
 -----------------------------------------------------------------------------------
      7.43611     12.73987      7.46471         0.009041     -0.001570      0.000136
      0.00842      1.41394      7.46578        -0.009003     -0.002921     -0.000380
      2.47683      0.01256      7.46333        -0.005685      0.005241      0.003189
      2.47361      1.43810      7.47379         0.012172     -0.002595      0.002598
      4.95066      0.02203      7.46601         0.000745      0.008651     -0.003694
      4.95278      1.44577      7.47575        -0.006171     -0.018204     -0.003086
      0.00100     12.75241      7.46585        -0.010448     -0.001020     -0.000163
      7.43240      1.41740      7.46477        -0.009271     -0.001666     -0.001419
      2.48027     12.72581      7.47368         0.014123     -0.006233      0.000868
      9.91270      1.38926      7.46308         0.000928     -0.003817     -0.000475
      4.95689     12.72469      7.47549        -0.004155      0.003679     -0.005194
     12.38584      1.39073      7.46604         0.005898     -0.019592     -0.004952
     13.62091      2.10375      7.46723         0.006730     -0.003162     -0.003497
     -1.24642      3.52828      7.47730         0.011025      0.017059     -0.002950
      1.23848      2.14121      7.47538        -0.004547     -0.026944      0.004580
      1.23680      3.56739      7.50095        -0.006249     -0.011628      0.001731
      3.71444      2.16587      7.49094         0.001417     -0.014397     -0.001922
      3.71679      3.58698      7.53701         0.006768     -0.008574     -0.003513
      6.19336      2.14239      7.47617        -0.008542     -0.014299      0.000519
      6.19633      3.56722      7.50073        -0.009843      0.002656     -0.000317
      8.67720      2.10842      7.46281        -0.004017      0.005280      0.001296
      8.68183      3.52917      7.47029        -0.010566      0.006615      0.002292
     11.14958      2.10069      7.46423         0.009108     -0.010034     -0.002286
     11.14932      3.52241      7.46638         0.011021      0.014049     -0.005241
     12.37921      4.23460      7.47481         0.004714      0.007237     -0.006066
     -2.48926      5.66506      7.48160         0.021961     -0.004008     -0.005475
     -0.01503      4.24596      7.50017         0.006690     -0.019778      0.002950
     -0.03999      5.66276      7.52610         0.002419      0.001530      0.002510
      2.47309      4.30906      7.55085        -0.008186      0.000834      0.003449
      2.42794      5.72154      7.64189        -0.020541     -0.040816      0.011900
      4.96057      4.30920      7.55316        -0.010973      0.040166      0.000953
      5.00784      5.72714      7.64619         0.006844     -0.013089      0.002697
      7.44900      4.24552      7.49456         0.001933      0.022808      0.003137
      7.47291      5.66273      7.51821         0.004436      0.006311     -0.001098
      9.91619      4.23730      7.46862        -0.005432      0.016908     -0.000677
      9.92327      5.66009      7.47362        -0.009027      0.014758      0.000008
     -3.71571      6.38250      7.47423        -0.012306      0.006515     -0.006365
     -3.71624      7.80760      7.47411         0.001324     -0.011805     -0.005669
     -1.26896      6.37733      7.50463        -0.014921      0.015871     -0.000382
     -1.26914      7.79864      7.50459         0.003195     -0.005821     -0.000347
      1.17840      6.36936      7.57899         0.020293     -0.021556      0.002706
      1.17896      7.80403      7.57877        -0.000847      0.028721     -0.000706
      6.25712      6.37307      7.57893        -0.010759     -0.006074     -0.005214
      6.25956      7.81284      7.57913         0.008808      0.010530      0.000611
      8.70159      6.37635      7.49258        -0.001135      0.011349      0.002811
      8.70284      7.79356      7.49223         0.006873     -0.003413      0.002180
     -4.94870      8.52391      7.47349        -0.001197      0.000279      0.000615
     -4.95661      9.94361      7.46892        -0.011707      0.008590      0.001017
     -2.49100      8.51417      7.48165        -0.013735      0.008348     -0.004717
     -2.49117      9.93544      7.47478         0.013968      0.001325     -0.005343
     -0.04136      8.51164      7.52568        -0.003690      0.002453      0.000563
     -0.01773      9.92748      7.49987         0.011316     -0.009658      0.003094
      2.42817      8.45022      7.64054        -0.006900      0.018394      0.002439
      2.47666      9.86259      7.55118        -0.008018     -0.018065      0.001813
      5.01097      8.45043      7.64766         0.018440      0.009633      0.032492
      4.97132      9.86076      7.55377         0.000785     -0.010640      0.006536
      7.48398      8.51867      7.51776        -0.007667      0.006222     -0.000603
      7.46186      9.93229      7.49489         0.018038      0.009659      0.002771
     -6.17927     10.64581      7.47101        -0.010888     -0.005828      0.006135
     -6.18420     12.05151      7.46357        -0.006712     -0.021165      0.002713
     -3.72587     10.65376      7.46641        -0.010316     -0.013864     -0.002735
     -3.71093     12.07232      7.46423        -0.007057     -0.005526     -0.001927
     -1.25373     10.64385      7.47721         0.003487     -0.001628     -0.001407
     -1.24389     12.06093      7.46733        -0.008724     -0.001109     -0.004043
      1.23620     10.60513      7.50089         0.005489     -0.002302      0.002929
      1.23902     12.02827      7.47543        -0.005905      0.001822      0.002629
      3.72281     10.58221      7.53748         0.007632      0.012818     -0.001965
      3.71850     11.99915      7.49081         0.018208      0.015773     -0.003842
      6.21118     10.60803      7.49950         0.016268      0.005192     -0.003275
      6.19407     12.03025      7.47536         0.011715      0.003601     -0.005019
      3.71065      7.08428      8.32481        -0.018674      0.011922     -0.012906
 -----------------------------------------------------------------------------------
    total drift:                               -0.001483     -0.000672     -0.000740


--------------------------------------------------------------------------------------------------------



  FREE ENERGIE OF THE ION-ELECTRON SYSTEM (eV)
  ---------------------------------------------------
  free  energy   TOTEN  =      -653.55811476 eV

  energy  without entropy=     -653.52562477  energy(sigma->0) =     -653.54186976
 
 d Force = 0.2818839E-03[ 0.117E-03, 0.447E-03]  d Energy = 0.2915717E-03-0.969E-05
 d Force =-0.1848018E+00[-0.186E+00,-0.184E+00]  d Ewald  =-0.1848018E+00 0.293E-07


--------------------------------------------------------------------------------------------------------


    POTLOK:  cpu time    0.4101: real time    0.4128


--------------------------------------------------------------------------------------------------------


 stress matrix after NEB project (eV)
     -2.30439      0.07377     -0.01225
      0.07377     -2.36110      0.01123
     -0.01225      0.01123     -3.49947
  FORCES: max atom, RMS     0.047218    0.017474
  FORCE total and by dimension    0.147237    0.040816
  Stress total and by dimension    4.810689    3.499468


--------------------------------------------------------------------------------------------------------


  
 reached required accuracy - stopping structural energy minimisation
     LOOP+:  cpu time  108.3675: real time  109.2482
    4ORBIT:  cpu time    0.0000: real time    0.0000

 total amount of memory used by VASP MPI-rank0   111575. kBytes
=======================================================================

   base      :      30000. kBytes
   nonlr-proj:       9913. kBytes
   fftplans  :      10852. kBytes
   grid      :      30996. kBytes
   one-center:        186. kBytes
   wavefun   :      29628. kBytes
 
  
  
 General timing and accounting informations for this job:
 ========================================================
  
                  Total CPU time used (sec):     1518.344
                            User time (sec):     1507.960
                          System time (sec):       10.384
                         Elapsed time (sec):     1537.009
  
                   Maximum memory used (kb):      487960.
                   Average memory used (kb):           0.
  
                          Minor page faults:      1931436
                          Major page faults:            0
                 Voluntary context switches:        11357
