 vasp.5.4.4.18Apr17-6-g9f103f2a35 (build Sep 02 2021 13:24:58) complex          
  
 executed on             LinuxIFC date 2023.01.15  13:02:11
 running on   48 total cores
 distrk:  each k-point on   48 cores,    1 groups
 distr:  one band on NCORES_PER_BAND=  12 cores,    4 groups


--------------------------------------------------------------------------------------------------------


 INCAR:
 POTCAR:    PAW_PBE C 08Apr2002                   
 POTCAR:    PAW_PBE N 08Apr2002                   
 POTCAR:    PAW_PBE C 08Apr2002                   
 POTCAR:    PAW_PBE Cr_pv 02Aug2007               
 POTCAR:    PAW_PBE C 08Apr2002                   
   SHA256 =  253f7b50bb8d59471dbedb8285d89021f4a42ed1a2c5d38a03a736e69125dd95 C/
   COPYR  = (c) Copyright 08Apr2002 Georg Kresse                                
   COPYR  = This file is part of the software VASP. Any use, copying, and all ot
   COPYR  = If you do not have a valid VASP license, you may not use, copy or di
   VRHFIN =C: s2p2                                                              
   LEXCH  = PE                                                                  
   EATOM  =   147.1560 eV,   10.8157 Ry                                         
                                                                                
   TITEL  = PAW_PBE C 08Apr2002                                                 
   LULTRA =        F    use ultrasoft PP ?                                      
   IUNSCR =        1    unscreen: 0-lin 1-nonlin 2-no                           
   RPACOR =    1.200    partial core radius                                     
   POMASS =   12.011; ZVAL   =    4.000    mass and valenz                      
   RCORE  =    1.500    outmost cutoff radius                                   
   RWIGS  =    1.630; RWIGS  =    0.863    wigner-seitz radius (au A)           
   ENMAX  =  400.000; ENMIN  =  300.000 eV                                      
   ICORE  =        2    local potential                                         
   LCOR   =        T    correct aug charges                                     
   LPAW   =        T    paw PP                                                  
   EAUG   =  644.873                                                            
   DEXC   =    0.000                                                            
   RMAX   =    1.529    core radius for proj-oper                               
   RAUG   =    1.300    factor for augmentation sphere                          
   RDEP   =    1.501    radius for radial grids                                 
   RDEPT  =    1.300    core radius for aug-charge                              
                                                                                
   Atomic configuration                                                         
    4 entries                                                                   
     n  l   j            E        occ.                                          
     1  0  0.50      -273.3789   2.0000                                         
     2  0  0.50       -13.7508   2.0000                                         
     2  1  0.50        -5.2854   2.0000                                         
     3  2  1.50        -5.4423   0.0000                                         
   Description                                                                  
     l       E           TYP  RCUT    TYP  RCUT                                 
     0    -13.7508458     23  1.200                                             
     0     -8.2022199     23  1.200                                             
     1     -5.2854383     23  1.500                                             
     1     34.0145650     23  1.500                                             
     2     -5.4423304      7  1.500                                             
  local pseudopotential read in
  partial core-charges read in
  partial kinetic energy density read in
  atomic valenz-charges read in
  non local Contribution for L=           0  read in
    real space projection operators read in
  non local Contribution for L=           0  read in
    real space projection operators read in
  non local Contribution for L=           1  read in
    real space projection operators read in
  non local Contribution for L=           1  read in
    real space projection operators read in
    PAW grid and wavefunctions read in
 
   number of l-projection  operators is LMAX  =           4
   number of lm-projection operators is LMMAX =           8
 
 POTCAR:    PAW_PBE N 08Apr2002                   
   SHA256 =  e053789ff3a61a86a1b75d8a110fcc91f86041011e7b0817c7c99e4e8a6349d7 N/
   COPYR  = (c) Copyright 08Apr2002 Georg Kresse                                
   COPYR  = This file is part of the software VASP. Any use, copying, and all ot
   COPYR  = If you do not have a valid VASP license, you may not use, copy or di
   VRHFIN =N: s2p3                                                              
   LEXCH  = PE                                                                  
   EATOM  =   264.5486 eV,   19.4438 Ry                                         
                                                                                
   TITEL  = PAW_PBE N 08Apr2002                                                 
   LULTRA =        F    use ultrasoft PP ?                                      
   IUNSCR =        1    unscreen: 0-lin 1-nonlin 2-no                           
   RPACOR =    1.200    partial core radius                                     
   POMASS =   14.001; ZVAL   =    5.000    mass and valenz                      
   RCORE  =    1.500    outmost cutoff radius                                   
   RWIGS  =    1.400; RWIGS  =    0.741    wigner-seitz radius (au A)           
   ENMAX  =  400.000; ENMIN  =  300.000 eV                                      
   ICORE  =        2    local potential                                         
   LCOR   =        T    correct aug charges                                     
   LPAW   =        T    paw PP                                                  
   EAUG   =  627.112                                                            
   DEXC   =    0.000                                                            
   RMAX   =    1.529    core radius for proj-oper                               
   RAUG   =    1.300    factor for augmentation sphere                          
   RDEP   =    1.514    radius for radial grids                                 
   RDEPT  =    1.338    core radius for aug-charge                              
                                                                                
   Atomic configuration                                                         
    4 entries                                                                   
     n  l   j            E        occ.                                          
     1  0  0.50      -384.7179   2.0000                                         
     2  0  0.50       -18.5828   2.0000                                         
     2  1  0.50        -7.0898   3.0000                                         
     3  2  1.50        -6.8029   0.0000                                         
   Description                                                                  
     l       E           TYP  RCUT    TYP  RCUT                                 
     0    -18.5828119     23  1.200                                             
     0    -13.5018863     23  1.200                                             
     1     -7.0897853     23  1.500                                             
     1      9.5240782     23  1.500                                             
     2     -6.8029130      7  1.500                                             
  local pseudopotential read in
  partial core-charges read in
  partial kinetic energy density read in
  atomic valenz-charges read in
  non local Contribution for L=           0  read in
    real space projection operators read in
  non local Contribution for L=           0  read in
    real space projection operators read in
  non local Contribution for L=           1  read in
    real space projection operators read in
  non local Contribution for L=           1  read in
    real space projection operators read in
    PAW grid and wavefunctions read in
 
   number of l-projection  operators is LMAX  =           4
   number of lm-projection operators is LMMAX =           8
 
 POTCAR:    PAW_PBE C 08Apr2002                   
   SHA256 =  253f7b50bb8d59471dbedb8285d89021f4a42ed1a2c5d38a03a736e69125dd95 C/
   COPYR  = (c) Copyright 08Apr2002 Georg Kresse                                
   COPYR  = This file is part of the software VASP. Any use, copying, and all ot
   COPYR  = If you do not have a valid VASP license, you may not use, copy or di
   VRHFIN =C: s2p2                                                              
   LEXCH  = PE                                                                  
   EATOM  =   147.1560 eV,   10.8157 Ry                                         
                                                                                
   TITEL  = PAW_PBE C 08Apr2002                                                 
   LULTRA =        F    use ultrasoft PP ?                                      
   IUNSCR =        1    unscreen: 0-lin 1-nonlin 2-no                           
   RPACOR =    1.200    partial core radius                                     
   POMASS =   12.011; ZVAL   =    4.000    mass and valenz                      
   RCORE  =    1.500    outmost cutoff radius                                   
   RWIGS  =    1.630; RWIGS  =    0.863    wigner-seitz radius (au A)           
   ENMAX  =  400.000; ENMIN  =  300.000 eV                                      
   ICORE  =        2    local potential                                         
   LCOR   =        T    correct aug charges                                     
   LPAW   =        T    paw PP                                                  
   EAUG   =  644.873                                                            
   DEXC   =    0.000                                                            
   RMAX   =    1.529    core radius for proj-oper                               
   RAUG   =    1.300    factor for augmentation sphere                          
   RDEP   =    1.501    radius for radial grids                                 
   RDEPT  =    1.300    core radius for aug-charge                              
                                                                                
   Atomic configuration                                                         
    4 entries                                                                   
     n  l   j            E        occ.                                          
     1  0  0.50      -273.3789   2.0000                                         
     2  0  0.50       -13.7508   2.0000                                         
     2  1  0.50        -5.2854   2.0000                                         
     3  2  1.50        -5.4423   0.0000                                         
   Description                                                                  
     l       E           TYP  RCUT    TYP  RCUT                                 
     0    -13.7508458     23  1.200                                             
     0     -8.2022199     23  1.200                                             
     1     -5.2854383     23  1.500                                             
     1     34.0145650     23  1.500                                             
     2     -5.4423304      7  1.500                                             
  local pseudopotential read in
  partial core-charges read in
  partial kinetic energy density read in
  atomic valenz-charges read in
  non local Contribution for L=           0  read in
    real space projection operators read in
  non local Contribution for L=           0  read in
    real space projection operators read in
  non local Contribution for L=           1  read in
    real space projection operators read in
  non local Contribution for L=           1  read in
    real space projection operators read in
    PAW grid and wavefunctions read in
 
   number of l-projection  operators is LMAX  =           4
   number of lm-projection operators is LMMAX =           8
 
 POTCAR:    PAW_PBE Cr_pv 02Aug2007               
   SHA256 =  c9a7df34d3cdbacf1090e328ef39c0b420964e11c23f63548d1ac9dd218cdba0 Cr
   COPYR  = (c) Copyright 02Aug2007 Georg Kresse                                
   COPYR  = This file is part of the software VASP. Any use, copying, and all ot
   COPYR  = If you do not have a valid VASP license, you may not use, copy or di
   VRHFIN =Cr : p6d5s1                                                          
   LEXCH  = PE                                                                  
   EATOM  =  1647.9177 eV,  121.1185 Ry                                         
                                                                                
   TITEL  = PAW_PBE Cr_pv 02Aug2007                                             
   LULTRA =        F    use ultrasoft PP ?                                      
   IUNSCR =        1    unscreen: 0-lin 1-nonlin 2-no                           
   RPACOR =    2.080    partial core radius                                     
   POMASS =   51.996; ZVAL   =   12.000    mass and valenz                      
   RCORE  =    2.300    outmost cutoff radius                                   
   RWIGS  =    2.500; RWIGS  =    1.323    wigner-seitz radius (au A)           
   ENMAX  =  265.681; ENMIN  =  199.261 eV                                      
   ICORE  =        3    local potential                                         
   LCOR   =        T    correct aug charges                                     
   LPAW   =        T    paw PP                                                  
   EAUG   =  519.424                                                            
   DEXC   =    0.000                                                            
   RMAX   =    2.356    core radius for proj-oper                               
   RAUG   =    1.300    factor for augmentation sphere                          
   RDEP   =    2.447    radius for radial grids                                 
   RDEPT  =    1.882    core radius for aug-charge                              
                                                                                
   Atomic configuration                                                         
    8 entries                                                                   
     n  l   j            E        occ.                                          
     1  0  0.50     -5880.4963   2.0000                                         
     2  0  0.50      -667.0865   2.0000                                         
     2  1  1.50      -560.6250   6.0000                                         
     3  0  0.50       -73.9860   2.0000                                         
     3  1  1.50       -45.4378   6.0000                                         
     3  2  2.50        -2.9137   5.0000                                         
     4  0  0.50        -4.0071   1.0000                                         
     4  3  2.50        -1.3606   0.0000                                         
   Description                                                                  
     l       E           TYP  RCUT    TYP  RCUT                                 
     1    -45.4377911     23  2.000                                             
     1      1.3605826     23  2.000                                             
     2     -2.9136672     23  2.300                                             
     2     -4.2742498     23  2.300                                             
     0     -4.0071320     23  2.300                                             
     0      9.4498803     23  2.300                                             
     3      2.7211652     23  2.300                                             
  local pseudopotential read in
  partial core-charges read in
  partial kinetic energy density read in
  atomic valenz-charges read in
  non local Contribution for L=           1  read in
    real space projection operators read in
  non local Contribution for L=           1  read in
    real space projection operators read in
  non local Contribution for L=           2  read in
    real space projection operators read in
  non local Contribution for L=           2  read in
    real space projection operators read in
  non local Contribution for L=           0  read in
    real space projection operators read in
  non local Contribution for L=           0  read in
    real space projection operators read in
    PAW grid and wavefunctions read in
 
   number of l-projection  operators is LMAX  =           6
   number of lm-projection operators is LMMAX =          18
 
 Optimization of the real space projectors (new method)

 maximal supplied QI-value         = 25.13
 optimisation between [QCUT,QGAM] = [ 11.81, 23.88] = [ 39.08,159.64] Ry 
 Optimized for a Real-space Cutoff    1.18 Angstroem

   l    n(q)    QCUT    max X(q) W(low)/X(q) W(high)/X(q)  e(spline) 
   0      8    11.813   115.676    0.10E-03    0.16E-03    0.35E-06
   0      8    11.813    87.132    0.10E-03    0.16E-03    0.35E-06
   1      8    11.813     4.429    0.16E-03    0.13E-04    0.22E-06
   1      8    11.813     2.733    0.13E-03    0.10E-04    0.18E-06
 Optimization of the real space projectors (new method)

 maximal supplied QI-value         = 25.13
 optimisation between [QCUT,QGAM] = [ 11.81, 23.88] = [ 39.08,159.64] Ry 
 Optimized for a Real-space Cutoff    1.41 Angstroem

   l    n(q)    QCUT    max X(q) W(low)/X(q) W(high)/X(q)  e(spline) 
   0     10    11.813    79.467    0.48E-04    0.30E-04    0.67E-06
   0     10    11.813    66.151    0.47E-04    0.30E-04    0.67E-06
   1     10    11.813    20.169    0.11E-03    0.17E-03    0.11E-05
   1     10    11.813    14.454    0.11E-03    0.17E-03    0.11E-05
 Optimization of the real space projectors (new method)

 maximal supplied QI-value         = 25.13
 optimisation between [QCUT,QGAM] = [ 11.81, 23.88] = [ 39.08,159.64] Ry 
 Optimized for a Real-space Cutoff    1.18 Angstroem

   l    n(q)    QCUT    max X(q) W(low)/X(q) W(high)/X(q)  e(spline) 
   0      8    11.813   115.676    0.10E-03    0.16E-03    0.35E-06
   0      8    11.813    87.132    0.10E-03    0.16E-03    0.35E-06
   1      8    11.813     4.429    0.16E-03    0.13E-04    0.22E-06
   1      8    11.813     2.733    0.13E-03    0.10E-04    0.18E-06
 Optimization of the real space projectors (new method)

 maximal supplied QI-value         = 16.25
 optimisation between [QCUT,QGAM] = [ 11.86, 23.89] = [ 39.41,159.82] Ry 
 Optimized for a Real-space Cutoff    1.33 Angstroem

   l    n(q)    QCUT    max X(q) W(low)/X(q) W(high)/X(q)  e(spline) 
   1      9    11.864     3.262    0.48E-04    0.16E-03    0.14E-06
   1      9    11.864     5.741    0.74E-04    0.40E-03    0.35E-06
   2      9    11.864    60.438    0.17E-03    0.21E-03    0.26E-06
   2      9    11.864    55.380    0.17E-03    0.21E-03    0.27E-06
   0      9    11.864    80.273    0.40E-04    0.47E-04    0.12E-06
   0      9    11.864    36.654    0.35E-04    0.41E-04    0.11E-06
  PAW_PBE C 08Apr2002                   :
 energy of atom  1       EATOM= -147.1560
 kinetic energy error for atom=    0.0066 (will be added to EATOM!!)
  PAW_PBE N 08Apr2002                   :
 energy of atom  2       EATOM= -264.5486
 kinetic energy error for atom=    0.0116 (will be added to EATOM!!)
  PAW_PBE C 08Apr2002                   :
 energy of atom  3       EATOM= -147.1560
 kinetic energy error for atom=    0.0066 (will be added to EATOM!!)
  PAW_PBE Cr_pv 02Aug2007               :
 energy of atom  4       EATOM=-1647.9177
 kinetic energy error for atom=    0.0054 (will be added to EATOM!!)
 
 
 POSCAR: POSCAR-clean                            
  positions in cartesian coordinates
  No initial velocities read in
 exchange correlation table for  LEXCH =        8
   RHO(1)=    0.500       N(1)  =     2000
   RHO(2)=  100.500       N(2)  =     4000
 


--------------------------------------------------------------------------------------------------------


 ion  position               nearest neighbor table
   1  0.000  1.000  0.498-   2 1.42  60 1.42  70 1.43
   2  0.056  0.111  0.498-   1 1.42  13 1.42  15 1.43
   3  0.168  0.002  0.498-   4 1.42  62 1.43  60 1.43
   4  0.224  0.113  0.498-   3 1.42  15 1.42  17 1.44
   5  0.334  0.002  0.498-   6 1.42  62 1.43  64 1.43
   6  0.390  0.113  0.498-   5 1.42  19 1.42  17 1.44
   7  0.500  1.000  0.498-   8 1.42  64 1.42  66 1.43
   8  0.556  0.111  0.498-   7 1.42  21 1.42  19 1.43
   9  0.666  0.998  0.498-  10 1.42  66 1.42  68 1.44
  10  0.722  0.109  0.498-   9 1.42  23 1.43  21 1.43
  11  0.832  0.998  0.498-  12 1.42  70 1.42  68 1.44
  12  0.888  0.109  0.498-  11 1.42  23 1.43  13 1.43
  13  0.999  0.165  0.498-  14 1.42   2 1.42  12 1.43
  14  0.054  0.277  0.499-  13 1.42  25 1.42  27 1.43
  15  0.167  0.168  0.498-  16 1.42   4 1.42   2 1.43
  16  0.223  0.280  0.500-  15 1.42  27 1.43  29 1.44
  17  0.335  0.170  0.499-  18 1.42   4 1.44   6 1.44
  18  0.391  0.281  0.503-  17 1.42  31 1.44  29 1.44
  19  0.501  0.168  0.498-  20 1.42   6 1.42   8 1.43
  20  0.557  0.280  0.500-  19 1.42  33 1.43  31 1.44
  21  0.667  0.165  0.498-  22 1.42   8 1.42  10 1.43
  22  0.723  0.277  0.498-  21 1.42  35 1.42  33 1.43
  23  0.833  0.165  0.498-  24 1.42  10 1.43  12 1.43
  24  0.888  0.276  0.498-  23 1.42  25 1.42  35 1.43
  25  0.999  0.332  0.498-  14 1.42  26 1.42  24 1.42
  26  0.054  0.444  0.499-  39 1.42  37 1.42  25 1.42
  27  0.165  0.333  0.500-  28 1.42  16 1.43  14 1.43
  28  0.219  0.444  0.502-  41 1.41  27 1.42  39 1.42
  29  0.335  0.338  0.503-  30 1.41  18 1.44  16 1.44
  30  0.387  0.448  0.510-  41 1.41  29 1.41  71 2.00
  31  0.503  0.338  0.504-  32 1.41  18 1.44  20 1.44
  32  0.562  0.448  0.510-  43 1.41  31 1.41  71 2.00
  33  0.668  0.333  0.500-  34 1.42  20 1.43  22 1.43
  34  0.725  0.444  0.501-  43 1.41  33 1.42  45 1.42
  35  0.833  0.332  0.498-  22 1.42  36 1.42  24 1.43
  36  0.890  0.444  0.498-  45 1.42  37 1.42  35 1.42
  37  0.000  0.500  0.498-  36 1.42  26 1.42  38 1.42
  38  0.056  0.611  0.498-  47 1.42  49 1.42  37 1.42
  39  0.165  0.500  0.500-  26 1.42  28 1.42  40 1.42
  40  0.220  0.611  0.500-  49 1.42  51 1.42  39 1.42
  41  0.329  0.499  0.505-  30 1.41  28 1.41  42 1.44
  42  0.385  0.612  0.505-  53 1.41  51 1.41  41 1.44
  43  0.671  0.499  0.505-  32 1.41  34 1.41  44 1.44
  44  0.727  0.612  0.505-  55 1.41  57 1.41  43 1.44
  45  0.836  0.500  0.499-  36 1.42  34 1.42  46 1.42
  46  0.891  0.611  0.499-  47 1.42  57 1.42  45 1.42
  47  0.001  0.667  0.498-  46 1.42  38 1.42  48 1.42
  48  0.057  0.779  0.498-  59 1.42  47 1.42  61 1.43
  49  0.166  0.667  0.499-  40 1.42  38 1.42  50 1.42
  50  0.222  0.779  0.498-  63 1.42  49 1.42  61 1.42
  51  0.331  0.667  0.502-  42 1.41  52 1.42  40 1.42
  52  0.388  0.778  0.500-  51 1.42  65 1.43  63 1.43
  53  0.494  0.663  0.510-  42 1.41  54 1.41  71 2.00
  54  0.553  0.773  0.503-  53 1.41  67 1.44  65 1.44
  55  0.669  0.663  0.510-  44 1.41  56 1.41  71 2.00
  56  0.721  0.773  0.504-  55 1.41  67 1.44  69 1.44
  57  0.837  0.667  0.501-  44 1.41  58 1.42  46 1.42
  58  0.891  0.778  0.500-  57 1.42  69 1.42  59 1.43
  59  0.002  0.835  0.498-  60 1.42  48 1.42  58 1.43
  60  0.057  0.946  0.498-  59 1.42   1 1.42   3 1.43
  61  0.168  0.835  0.498-  62 1.42  50 1.42  48 1.43
  62  0.223  0.946  0.498-  61 1.42   3 1.43   5 1.43
  63  0.333  0.835  0.499-  64 1.42  50 1.42  52 1.43
  64  0.389  0.946  0.498-  63 1.42   7 1.42   5 1.43
  65  0.499  0.832  0.500-  66 1.42  52 1.43  54 1.44
  66  0.555  0.943  0.498-  65 1.42   9 1.42   7 1.43
  67  0.665  0.830  0.503-  68 1.42  56 1.44  54 1.44
  68  0.721  0.941  0.499-  67 1.42   9 1.44  11 1.44
  69  0.833  0.832  0.500-  70 1.42  58 1.42  56 1.44
  70  0.889  0.943  0.498-  69 1.42  11 1.42   1 1.43
  71  0.528  0.556  0.554-  55 2.00  32 2.00  53 2.00  30 2.00
 

IMPORTANT INFORMATION: All symmetrisations will be switched off!
NOSYMM: (Re-)initialisation of all symmetry stuff for point group C_1.

 
 
 KPOINTS: K-Points                                

Automatic generation of k-mesh.
Space group operators:
 irot       det(A)        alpha          n_x          n_y          n_z        tau_x        tau_y        tau_z
    1     1.000000     0.000000     1.000000     0.000000     0.000000     0.000000     0.000000     0.000000
 
 Subroutine IBZKPT returns following result:
 ===========================================
 
 Found      4 irreducible k-points:
 
 Following reciprocal coordinates:
            Coordinates               Weight
  0.000000  0.000000  0.000000      1.000000
  0.500000  0.000000  0.000000      1.000000
 -0.000000  0.500000  0.000000      1.000000
  0.500000  0.500000  0.000000      1.000000
 
 Following cartesian coordinates:
            Coordinates               Weight
  0.000000  0.000000  0.000000      1.000000
  0.033606  0.019589  0.000000      1.000000
 -0.000000  0.039178  0.000000      1.000000
  0.033606  0.058767  0.000000      1.000000
 


--------------------------------------------------------------------------------------------------------




 Dimension of arrays:
   k-points           NKPTS =      4   k-points in BZ     NKDIM =      4   number of bands    NBANDS=    184
   number of dos      NEDOS =    301   number of ions     NIONS =     71
   non local maximal  LDIM  =      6   non local SUM 2l+1 LMDIM =     18
   total plane-waves  NPLWV = ******
   max r-space proj   IRMAX =   7110   max aug-charges    IRDMAX=  21308
   dimension x,y,z NGX =   120 NGY =  120 NGZ =  120
   dimension x,y,z NGXF=   240 NGYF=  240 NGZF=  240
   support grid    NGXF=   240 NGYF=  240 NGZF=  240
   ions per type =              28   1  41   1
   NGX,Y,Z   is equivalent  to a cutoff of  13.41, 13.50, 13.30 a.u.
   NGXF,Y,Z  is equivalent  to a cutoff of  26.82, 27.01, 26.60 a.u.

 SYSTEM =  unknown system                          
 POSCAR =  POSCAR-clean                            

 Startparameter for this run:
   NWRITE =      2    write-flag & timer
   PREC   = accura    normal or accurate (medium, high low for compatibility)
   ISTART =      0    job   : 0-new  1-cont  2-samecut
   ICHARG =      2    charge: 1-file 2-atom 10-const
   ISPIN  =      2    spin polarized calculation?
   LNONCOLLINEAR =      F non collinear calculations
   LSORBIT =      F    spin-orbit coupling
   INIWAV =      1    electr: 0-lowe 1-rand  2-diag
   LASPH  =      F    aspherical Exc in radial PAW
   METAGGA=      F    non-selfconsistent MetaGGA calc.

 Electronic Relaxation 1
   ENCUT  =  550.0 eV  40.42 Ry    6.36 a.u.  28.45 28.25 28.68*2*pi/ulx,y,z
   ENINI  =  550.0     initial cutoff
   ENAUG  =  644.9 eV  augmentation charge cutoff
   NELM   =     50;   NELMIN=  2; NELMDL= -5     # of ELM steps 
   EDIFF  = 0.1E-04   stopping-criterion for ELM
   LREAL  =      T    real-space projection
   NLSPLINE    = F    spline interpolate recip. space projectors
   LCOMPAT=      F    compatible to vasp.4.4
   GGA_COMPAT  = T    GGA compatible to vasp.4.4-vasp.4.6
   LMAXPAW     = -100 max onsite density
   LMAXMIX     =    2 max onsite mixed and CHGCAR
   VOSKOWN=      0    Vosko Wilk Nusair interpolation
   ROPT   =   -0.00025  -0.00025  -0.00025  -0.00025
 Ionic relaxation
   EDIFFG = -.5E-01   stopping-criterion for IOM
   NSW    =    400    number of steps for IOM
   NBLOCK =      1;   KBLOCK =    400    inner block; outer block 
   IBRION =      2    ionic relax: 0-MD 1-quasi-New 2-CG
   NFREE  =      1    steps in history (QN), initial steepest desc. (CG)
   ISIF   =      3    stress and relaxation
   IWAVPR =     11    prediction:  0-non 1-charg 2-wave 3-comb
   ISYM   =      0    0-nonsym 1-usesym 2-fastsym
   LCORR  =      T    Harris-Foulkes like correction to forces

   POTIM  = 0.3000    time-step for ionic-motion
   TEIN   =    0.0    initial temperature
   TEBEG  =    0.0;   TEEND  =   0.0 temperature during run
   SMASS  =  -3.00    Nose mass-parameter (am)
   estimated Nose-frequenzy (Omega)   =  0.10E-29 period in steps =****** mass=  -0.506E-26a.u.
   SCALEE = 1.0000    scale energy and forces
   NPACO  =    256;   APACO  = 16.0  distance and # of slots for P.C.
   PSTRESS=    0.0 pullay stress

  Mass of Ions in am
   POMASS =  12.01 14.00 12.01 52.00
  Ionic Valenz
   ZVAL   =   4.00  5.00  4.00 12.00
  Atomic Wigner-Seitz radii
   RWIGS  =  -1.00 -1.00 -1.00 -1.00
  virtual crystal weights 
   VCA    =   1.00  1.00  1.00  1.00
   NELECT =     293.0000    total number of electrons
   NUPDOWN=      -1.0000    fix difference up-down

 DOS related values:
   EMIN   =  10.00;   EMAX   =-10.00  energy-range for DOS
   EFERMI =   0.00
   ISMEAR =     0;   SIGMA  =   0.10  broadening in eV -4-tet -1-fermi 0-gaus

 Electronic relaxation 2 (details)
   IALGO  =     68    algorithm
   LDIAG  =      T    sub-space diagonalisation (order eigenvalues)
   LSUBROT=      F    optimize rotation matrix (better conditioning)
   TURBO    =      0    0=normal 1=particle mesh
   IRESTART =      0    0=no restart 2=restart with 2 vectors
   NREBOOT  =      0    no. of reboots
   NMIN     =      0    reboot dimension
   EREF     =   0.00    reference energy to select bands
   IMIX   =      4    mixing-type and parameters
     AMIX     =   0.40;   BMIX     =  1.00
     AMIX_MAG =   1.60;   BMIX_MAG =  1.00
     AMIN     =   0.10
     WC   =   100.;   INIMIX=   1;  MIXPRE=   1;  MAXMIX= -45

 Intra band minimization:
   WEIMIN = 0.0010     energy-eigenvalue tresh-hold
   EBREAK =  0.14E-07  absolut break condition
   DEPER  =   0.30     relativ break condition  

   TIME   =   0.40     timestep for ELM

  volume/ion in A,a.u.               =      40.12       270.71
  Fermi-wavevector in a.u.,A,eV,Ry     =   0.767079  1.449569  8.005805  0.588410
  Thomas-Fermi vector in A             =   1.867557
 
 Write flags
   LWAVE        =      F    write WAVECAR
   LDOWNSAMPLE  =      F    k-point downsampling of WAVECAR
   LCHARG       =      F    write CHGCAR
   LVTOT        =      F    write LOCPOT, total local potential
   LVHAR        =      F    write LOCPOT, Hartree potential only
   LELF         =      F    write electronic localiz. function (ELF)
   LORBIT       =      0    0 simple, 1 ext, 2 COOP (PROOUT), +10 PAW based schemes


 Dipole corrections
   LMONO  =      F    monopole corrections only (constant potential shift)
   LDIPOL =      F    correct potential (dipole corrections)
   IDIPOL =      0    1-x, 2-y, 3-z, 4-all directions 
   EPSILON=  1.0000000 bulk dielectric constant

 Exchange correlation treatment:
   GGA     =    --    GGA type
   LEXCH   =     8    internal setting for exchange type
   VOSKOWN=      0    Vosko Wilk Nusair interpolation
   LHFCALC =     F    Hartree Fock is set to
   LHFONE  =     F    Hartree Fock one center treatment
   AEXX    =    0.0000 exact exchange contribution

 Linear response parameters
   LEPSILON=     F    determine dielectric tensor
   LRPA    =     F    only Hartree local field effects (RPA)
   LNABLA  =     F    use nabla operator in PAW spheres
   LVEL    =     F    velocity operator in full k-point grid
   LINTERFAST=   F  fast interpolation
   KINTER  =     0    interpolate to denser k-point grid
   CSHIFT  =0.1000    complex shift for real part using Kramers Kronig
   OMEGAMAX=  -1.0    maximum frequency
   DEG_THRESHOLD= 0.2000000E-02 threshold for treating states as degnerate
   RTIME   =   -0.100 relaxation time in fs
  (WPLASMAI=    0.000 imaginary part of plasma frequency in eV, 0.658/RTIME)
   DFIELD  = 0.0000000 0.0000000 0.0000000 field for delta impulse in time
 
 Orbital magnetization related:
   ORBITALMAG=     F  switch on orbital magnetization
   LCHIMAG   =     F  perturbation theory with respect to B field
   DQ        =  0.001000  dq finite difference perturbation B field
   LLRAUG    =     F  two centre corrections for induced B field



--------------------------------------------------------------------------------------------------------


 conjugate gradient relaxation of ions
 charge density and potential will be updated during run
 spin polarized calculation
 RMM-DIIS sequential band-by-band and
  variant of blocked Davidson during initial phase
 perform sub-space diagonalisation
    before iterative eigenvector-optimisation
 modified Broyden-mixing scheme, WC =      100.0
 initial mixing is a Kerker type mixing with AMIX =  0.4000 and BMIX =      1.0000
 Hartree-type preconditioning will be used
 using additional bands           37
 real space projection scheme for non local part
 use partial core corrections
 calculate Harris-corrections to forces 
   (improved forces if not selfconsistent)
 use gradient corrections 
 use of overlap-Matrix (Vanderbilt PP)
 Gauss-broadening in eV      SIGMA  =   0.10


--------------------------------------------------------------------------------------------------------


  energy-cutoff  :      550.00
  volume of cell :     2848.21
      direct lattice vectors                 reciprocal lattice vectors
    14.878307727  0.000105424  0.000000000     0.067211667  0.039178051  0.000000000
    -7.439153864 12.762195204  0.000000000    -0.000000555  0.078356102  0.000000000
     0.000000000  0.000000000 15.000000000     0.000000000  0.000000000  0.066666667

  length of vectors
    14.878307728 14.772089786 15.000000000     0.077796709  0.078356102  0.066666667


 
 k-points in units of 2pi/SCALE and weight: K-Points                                
   0.00000000  0.00000000  0.00000000       0.250
   0.03360583  0.01958903  0.00000000       0.250
  -0.00000028  0.03917805  0.00000000       0.250
   0.03360556  0.05876708  0.00000000       0.250
 
 k-points in reciprocal lattice and weights: K-Points                                
   0.00000000  0.00000000  0.00000000       0.250
   0.50000000  0.00000000  0.00000000       0.250
  -0.00000000  0.50000000  0.00000000       0.250
   0.50000000  0.50000000  0.00000000       0.250
 
 position of ions in fractional coordinates (direct lattice) 
   0.00014703  0.99993181  0.49766807
   0.05571316  0.11129367  0.49774774
   0.16803225  0.00210520  0.49753985
   0.22355821  0.11343998  0.49825115
   0.33432830  0.00207694  0.49777234
   0.39014706  0.11341551  0.49841838
   0.50002407  0.99989044  0.49775648
   0.55582710  0.11125266  0.49767590
   0.66571506  0.99774295  0.49825147
   0.72152612  0.10907882  0.49753824
   0.83231512  0.99776674  0.49841003
   0.88783929  0.10910686  0.49776801
   0.99908442  0.16549374  0.49784405
   0.05430809  0.27667161  0.49853746
   0.16734775  0.16806595  0.49834347
   0.22284185  0.27957445  0.49997583
   0.33528932  0.17029644  0.49941211
   0.39084341  0.28141813  0.50254970
   0.50097822  0.16802960  0.49842000
   0.55697129  0.27954076  0.49998817
   0.66664919  0.16545038  0.49752014
   0.72257294  0.27663324  0.49802908
   0.83255361  0.16485921  0.49764969
   0.88821716  0.27620991  0.49780056
   0.99906908  0.33222521  0.49838447
   0.05442247  0.44382388  0.49884723
   0.16531768  0.33288444  0.50001215
   0.21898612  0.44382270  0.50165224
   0.33514858  0.33773328  0.50339031
   0.38694525  0.44827387  0.50958670
   0.50284791  0.33770682  0.50360105
   0.56160602  0.44823797  0.50998391
   0.66778145  0.33285443  0.49963749
   0.72504010  0.44380782  0.50114295
   0.83335701  0.33221195  0.49791518
   0.88957865  0.44380677  0.49825237
   0.00003314  0.49990030  0.49835048
   0.05573614  0.61130743  0.49834565
   0.16452790  0.49985599  0.50032235
   0.22027264  0.61134265  0.50031499
   0.32877881  0.49923631  0.50514604
   0.38513300  0.61194665  0.50514739
   0.67071104  0.49923365  0.50517220
   0.72707059  0.61195035  0.50517224
   0.83551700  0.49986026  0.49948453
   0.89125350  0.61133457  0.49948422
   0.00136430  0.66739252  0.49824937
   0.05673614  0.77898562  0.49790902
   0.16620335  0.66738054  0.49883406
   0.22244721  0.77897560  0.49837060
   0.33076298  0.66736579  0.50164604
   0.38803591  0.77830247  0.50000539
   0.49425975  0.66291375  0.50958718
   0.55300964  0.77344715  0.50338828
   0.66896610  0.66295341  0.50998288
   0.72073432  0.77348097  0.50359479
   0.83682433  0.66738081  0.50114212
   0.89051054  0.77833045  0.49963539
   0.00151950  0.83455528  0.49802741
   0.05677874  0.94573836  0.49751926
   0.16759972  0.83498348  0.49779087
   0.22328727  0.94632847  0.49764984
   0.33324173  0.83452222  0.49853136
   0.38919606  0.94569806  0.49784785
   0.49886656  0.83160652  0.49997424
   0.55488261  0.94311446  0.49834783
   0.66501623  0.82976534  0.50254304
   0.72058356  0.94088512  0.49940688
   0.83301728  0.83164625  0.49998031
   0.88852543  0.94315192  0.49840894
   0.52788678  0.55561308  0.55407295
 
 position of ions in cartesian coordinates  (Angst):
  -7.43645893 12.76132490  7.46502101
   0.00098677  1.42035737  7.46621609
   2.48437460  0.02688469  7.46309769
   2.48227038  1.44776676  7.47376727
   4.95878870  0.02654158  7.46658504
   4.96101252  1.44747206  7.47627575
   0.00117320 12.76084966  7.46634727
   7.44214093  1.41988678  7.46513856
   2.48235028 12.73346045  7.47377203
   9.92363354  1.39216125  7.46307356
   4.96090025 12.73378160  7.47615045
  12.39788345  1.39253665  7.46652020
  13.63355202  2.11216869  7.46766080
  -1.25019027  3.53094287  7.47806186
   1.23958287  2.14490807  7.47515208
   1.23571236  3.56800714  7.49963746
   3.72167632  2.17339173  7.49118168
   3.72157576  3.59155433  7.53824552
   6.20371007  2.14447940  7.47630003
   6.20724356  3.56761241  7.49982262
   8.68780104  2.11158030  7.46280215
   8.69274532  3.53052356  7.47043619
  11.16057575  2.10405319  7.46474541
  11.16040021  3.52513843  7.46700843
  12.39298273  4.24002833  7.47576708
  -2.49195986  5.66417272  7.48270852
  -0.01673121  4.24835367  7.50018218
  -0.04352248  5.66417505  7.52478359
   2.47399392  4.31025334  7.55085470
   2.42231217  5.72099937  7.64380057
   4.96927299  4.30993342  7.55401582
   5.02123589  5.72055973  7.64975858
   7.45930259  4.24802358  7.49456242
   7.48581505  5.66403852  7.51714419
   9.92756627  4.23984160  7.46872767
   9.93387816  5.66404236  7.47378561
  -3.71834223  6.37982525  7.47525727
  -3.71835051  7.80163060  7.47518475
  -1.27060894  6.37927707  7.50483528
  -1.27058799  7.80209747  7.50472492
   1.17777658  6.37138591  7.57719062
   1.17776199  7.80982318  7.57721079
   6.26516932  6.37138797  7.57758296
   6.26518706  7.80990654  7.57758361
   8.71254167  6.37940228  7.49226792
   8.71253189  7.80206507  7.49226324
  -4.94453714  8.51739379  7.47374059
  -4.95085604  9.94157246  7.46863529
  -2.49192199  8.51725823  7.48251084
  -2.48528121  9.94146208  7.47555906
  -0.04344336  8.51708741  7.52469062
  -0.01659412  9.93288892  7.50008080
   2.42223119  8.46028680  7.64380763
   2.47405524  9.87094181  7.55082413
   5.02127100  8.46081135  7.64974323
   4.96926315  9.87139105  7.55392179
   7.48578134  8.51733237  7.51713176
   7.45916989  9.93329897  7.49453080
  -6.18577746 10.65075751  7.47041111
  -6.19072161 12.06970350  7.46278894
  -3.71797037 10.65623981  7.46686302
  -3.71774635 12.07725221  7.46474766
  -1.25006613 10.65037063  7.47797042
  -1.24461459 12.06922431  7.46771775
   1.23584141 10.61317732  7.49961357
   1.23974067 12.03626939  7.47521740
   3.72156413 10.58969736  7.53814562
   3.72167477 12.00783549  7.49110317
   6.20714301 10.61371955  7.49970466
   6.20350242 12.03678263  7.47613410
   3.72077071  7.09089829  8.31109430
 


--------------------------------------------------------------------------------------------------------


 k-point  1 :   0.0000 0.0000 0.0000  plane waves:   83445
 k-point  2 :   0.5000 0.0000 0.0000  plane waves:   83448
 k-point  3 :  -0.0000 0.5000 0.0000  plane waves:   83436
 k-point  4 :   0.5000 0.5000 0.0000  plane waves:   83444

 maximum and minimum number of plane-waves per node :      6984     6935

 maximum number of plane-waves:     83448
 maximum index in each direction: 
   IXMAX=   28   IYMAX=   28   IZMAX=   28
   IXMIN=  -28   IYMIN=  -28   IZMIN=  -28


 real space projection operators:
  total allocation   :      18580.11 KBytes
  max/ min on nodes  :       1558.42       1535.53


 parallel 3D FFT for wavefunctions:
    minimum data exchange during FFTs selected (reduces bandwidth)
 parallel 3D FFT for charge:
    minimum data exchange during FFTs selected (reduces bandwidth)


 total amount of memory used by VASP MPI-rank0   135477. kBytes
=======================================================================

   base      :      30000. kBytes
   nonlr-proj:      10488. kBytes
   fftplans  :      14072. kBytes
   grid      :      39398. kBytes
   one-center:        186. kBytes
   wavefun   :      41333. kBytes
 
     INWAV:  cpu time    0.0000: real time    0.0001
 Broyden mixing: mesh for mixing (old mesh)
   NGX = 57   NGY = 57   NGZ = 57
  (NGX  =240   NGY  =240   NGZ  =240)
  gives a total of 185193 points

 initial charge density was supplied:
 charge density of overlapping atoms calculated
 number of electron     293.0000000 magnetization       1.0000000
 keeping initial charge density in first step


--------------------------------------------------------------------------------------------------------


 Maximum index for non-local projection operator          608
 Maximum index for augmentation-charges          402 (set IRDMAX)


--------------------------------------------------------------------------------------------------------


 First call to EWALD:  gamma=   0.125
 Maximum number of real-space cells 3x 3x 3
 Maximum number of reciprocal cells 3x 3x 3

    FEWALD:  cpu time    0.0021: real time    0.0022


--------------------------------------- Iteration      1(   1)  ---------------------------------------


    POTLOK:  cpu time    0.5340: real time    0.5738
    SETDIJ:  cpu time    0.0165: real time    0.0211
     EDDAV:  cpu time   16.8812: real time   17.0620
       DOS:  cpu time    0.0013: real time    0.0016
    --------------------------------------------
      LOOP:  cpu time   17.4331: real time   17.6585

 eigenvalue-minimisations  :  3248
 total energy-change (2. order) : 0.2743882E+04  (-0.1173086E+05)
 number of electron     293.0000000 magnetization       1.0000000
 augmentation part      293.0000000 magnetization       1.0000000

 Free energy of the ion-electron system (eV)
  ---------------------------------------------------
  alpha Z        PSCENC =       156.95040625
  Ewald energy   TEWEN  =     30379.13023378
  -Hartree energ DENC   =    -39545.06358666
  -exchange      EXHF   =         0.00000000
  -V(xc)+E(xc)   XCENC  =       982.53697468
  PAW double counting   =      9000.30529238    -9089.18527416
  entropy T*S    EENTRO =        -0.11343173
  eigenvalues    EBANDS =     -1206.43674319
  atomic energy  EATOM  =     12065.75791449
  Solvation  Ediel_sol  =         0.00000000
  ---------------------------------------------------
  free energy    TOTEN  =      2743.88178583 eV

  energy without entropy =     2743.99521756  energy(sigma->0) =     2743.93850170


--------------------------------------------------------------------------------------------------------




--------------------------------------- Iteration      1(   2)  ---------------------------------------


     EDDAV:  cpu time   21.7126: real time   21.9613
       DOS:  cpu time    0.0010: real time    0.0010
    --------------------------------------------
      LOOP:  cpu time   21.7136: real time   21.9623

 eigenvalue-minimisations  :  4312
 total energy-change (2. order) :-0.2915638E+04  (-0.2786550E+04)
 number of electron     293.0000000 magnetization       1.0000000
 augmentation part      293.0000000 magnetization       1.0000000

 Free energy of the ion-electron system (eV)
  ---------------------------------------------------
  alpha Z        PSCENC =       156.95040625
  Ewald energy   TEWEN  =     30379.13023378
  -Hartree energ DENC   =    -39545.06358666
  -exchange      EXHF   =         0.00000000
  -V(xc)+E(xc)   XCENC  =       982.53697468
  PAW double counting   =      9000.30529238    -9089.18527416
  entropy T*S    EENTRO =        -0.03063264
  eigenvalues    EBANDS =     -4122.15791748
  atomic energy  EATOM  =     12065.75791449
  Solvation  Ediel_sol  =         0.00000000
  ---------------------------------------------------
  free energy    TOTEN  =      -171.75658937 eV

  energy without entropy =     -171.72595673  energy(sigma->0) =     -171.74127305


--------------------------------------------------------------------------------------------------------




--------------------------------------- Iteration      1(   3)  ---------------------------------------


     EDDAV:  cpu time   19.0612: real time   19.2998
       DOS:  cpu time    0.0009: real time    0.0009
    --------------------------------------------
      LOOP:  cpu time   19.0621: real time   19.3007

 eigenvalue-minimisations  :  3568
 total energy-change (2. order) :-0.5123382E+03  (-0.5093581E+03)
 number of electron     293.0000000 magnetization       1.0000000
 augmentation part      293.0000000 magnetization       1.0000000

 Free energy of the ion-electron system (eV)
  ---------------------------------------------------
  alpha Z        PSCENC =       156.95040625
  Ewald energy   TEWEN  =     30379.13023378
  -Hartree energ DENC   =    -39545.06358666
  -exchange      EXHF   =         0.00000000
  -V(xc)+E(xc)   XCENC  =       982.53697468
  PAW double counting   =      9000.30529238    -9089.18527416
  entropy T*S    EENTRO =        -0.04248760
  eigenvalues    EBANDS =     -4634.48426633
  atomic energy  EATOM  =     12065.75791449
  Solvation  Ediel_sol  =         0.00000000
  ---------------------------------------------------
  free energy    TOTEN  =      -684.09479317 eV

  energy without entropy =     -684.05230558  energy(sigma->0) =     -684.07354937


--------------------------------------------------------------------------------------------------------




--------------------------------------- Iteration      1(   4)  ---------------------------------------


     EDDAV:  cpu time   18.8257: real time   18.9768
       DOS:  cpu time    0.0010: real time    0.0010
    --------------------------------------------
      LOOP:  cpu time   18.8267: real time   18.9778

 eigenvalue-minimisations  :  3552
 total energy-change (2. order) :-0.1944430E+02  (-0.1929408E+02)
 number of electron     293.0000000 magnetization       1.0000000
 augmentation part      293.0000000 magnetization       1.0000000

 Free energy of the ion-electron system (eV)
  ---------------------------------------------------
  alpha Z        PSCENC =       156.95040625
  Ewald energy   TEWEN  =     30379.13023378
  -Hartree energ DENC   =    -39545.06358666
  -exchange      EXHF   =         0.00000000
  -V(xc)+E(xc)   XCENC  =       982.53697468
  PAW double counting   =      9000.30529238    -9089.18527416
  entropy T*S    EENTRO =        -0.04105508
  eigenvalues    EBANDS =     -4653.92999981
  atomic energy  EATOM  =     12065.75791449
  Solvation  Ediel_sol  =         0.00000000
  ---------------------------------------------------
  free energy    TOTEN  =      -703.53909413 eV

  energy without entropy =     -703.49803905  energy(sigma->0) =     -703.51856659


--------------------------------------------------------------------------------------------------------




--------------------------------------- Iteration      1(   5)  ---------------------------------------


     EDDAV:  cpu time   20.7607: real time   21.0445
       DOS:  cpu time    0.0010: real time    0.0012
    CHARGE:  cpu time    0.9908: real time    1.0043
    MIXING:  cpu time    0.0093: real time    0.0120
    --------------------------------------------
      LOOP:  cpu time   21.7619: real time   22.0621

 eigenvalue-minimisations  :  4040
 total energy-change (2. order) :-0.6213227E+00  (-0.6193517E+00)
 number of electron     292.9999998 magnetization       0.7743056
 augmentation part       11.6630835 magnetization       0.7609683

 Broyden mixing:
  rms(total) = 0.46452E+01    rms(broyden)= 0.46448E+01
  rms(prec ) = 0.54156E+01
  weight for this iteration     100.00

 Free energy of the ion-electron system (eV)
  ---------------------------------------------------
  alpha Z        PSCENC =       156.95040625
  Ewald energy   TEWEN  =     30379.13023378
  -Hartree energ DENC   =    -39545.06358666
  -exchange      EXHF   =         0.00000000
  -V(xc)+E(xc)   XCENC  =       982.53697468
  PAW double counting   =      9000.30529238    -9089.18527416
  entropy T*S    EENTRO =        -0.04080234
  eigenvalues    EBANDS =     -4654.55157524
  atomic energy  EATOM  =     12065.75791449
  Solvation  Ediel_sol  =         0.00000000
  ---------------------------------------------------
  free energy    TOTEN  =      -704.16041682 eV

  energy without entropy =     -704.11961448  energy(sigma->0) =     -704.14001565


--------------------------------------------------------------------------------------------------------




--------------------------------------- Iteration      1(   6)  ---------------------------------------


    POTLOK:  cpu time    0.5395: real time    0.5503
    SETDIJ:  cpu time    0.0133: real time    0.0139
    EDDIAG:  cpu time    3.2928: real time    3.3312
  RMM-DIIS:  cpu time   17.9614: real time   18.1149
    ORTHCH:  cpu time    0.2850: real time    0.2858
       DOS:  cpu time    0.0010: real time    0.0010
    CHARGE:  cpu time    1.0340: real time    1.0490
    MIXING:  cpu time    0.0094: real time    0.0100
    --------------------------------------------
      LOOP:  cpu time   23.1364: real time   23.3560

 eigenvalue-minimisations  :  4148
 total energy-change (2. order) :-0.2798433E+02  (-0.5227569E+02)
 number of electron     293.0000008 magnetization       0.7164774
 augmentation part       17.3446791 magnetization       0.9071396

 Broyden mixing:
  rms(total) = 0.83579E+01    rms(broyden)= 0.83578E+01
  rms(prec ) = 0.92433E+01
  weight for this iteration     100.00

 eigenvalues of (default mixing * dielectric matrix)
  average eigenvalue GAMMA=   0.2168
  0.2168

 Free energy of the ion-electron system (eV)
  ---------------------------------------------------
  alpha Z        PSCENC =       156.95040625
  Ewald energy   TEWEN  =     30379.13023378
  -Hartree energ DENC   =    -39837.52953353
  -exchange      EXHF   =         0.00000000
  -V(xc)+E(xc)   XCENC  =       996.31183022
  PAW double counting   =     15150.39803468   -15239.11049263
  entropy T*S    EENTRO =        -0.05496899
  eigenvalues    EBANDS =     -4403.99817507
  atomic energy  EATOM  =     12065.75791449
  Solvation  Ediel_sol  =         0.00000000
  ---------------------------------------------------
  free energy    TOTEN  =      -732.14475079 eV

  energy without entropy =     -732.08978180  energy(sigma->0) =     -732.11726630


--------------------------------------------------------------------------------------------------------




--------------------------------------- Iteration      1(   7)  ---------------------------------------


    POTLOK:  cpu time    0.5394: real time    0.5487
    SETDIJ:  cpu time    0.0127: real time    0.0151
    EDDIAG:  cpu time    3.2207: real time    3.2528
  RMM-DIIS:  cpu time   13.2072: real time   13.3171
    ORTHCH:  cpu time    0.8134: real time    0.8151
       DOS:  cpu time    0.0009: real time    0.0009
    CHARGE:  cpu time    0.9947: real time    1.0095
    MIXING:  cpu time    0.0095: real time    0.0101
    --------------------------------------------
      LOOP:  cpu time   18.7985: real time   18.9692

 eigenvalue-minimisations  :  3020
 total energy-change (2. order) : 0.6971861E+02  (-0.5444467E+01)
 number of electron     293.0000006 magnetization       0.6149543
 augmentation part       15.2305373 magnetization       0.6027686

 Broyden mixing:
  rms(total) = 0.31687E+01    rms(broyden)= 0.31686E+01
  rms(prec ) = 0.38067E+01
  weight for this iteration     100.00

 eigenvalues of (default mixing * dielectric matrix)
  average eigenvalue GAMMA=   0.4698
  0.5039  0.4358

 Free energy of the ion-electron system (eV)
  ---------------------------------------------------
  alpha Z        PSCENC =       156.95040625
  Ewald energy   TEWEN  =     30379.13023378
  -Hartree energ DENC   =    -39960.45574231
  -exchange      EXHF   =         0.00000000
  -V(xc)+E(xc)   XCENC  =      1000.89169732
  PAW double counting   =     16744.11795601   -16839.67715193
  entropy T*S    EENTRO =        -0.00153931
  eigenvalues    EBANDS =     -4209.13991746
  atomic energy  EATOM  =     12065.75791449
  Solvation  Ediel_sol  =         0.00000000
  ---------------------------------------------------
  free energy    TOTEN  =      -662.42614315 eV

  energy without entropy =     -662.42460384  energy(sigma->0) =     -662.42537350


--------------------------------------------------------------------------------------------------------




--------------------------------------- Iteration      1(   8)  ---------------------------------------


    POTLOK:  cpu time    0.5692: real time    0.5746
    SETDIJ:  cpu time    0.0206: real time    0.0207
    EDDIAG:  cpu time    3.2500: real time    3.2762
  RMM-DIIS:  cpu time   13.7859: real time   13.9060
    ORTHCH:  cpu time    0.5208: real time    0.5317
       DOS:  cpu time    0.0011: real time    0.0011
    CHARGE:  cpu time    1.0439: real time    1.0560
    MIXING:  cpu time    0.0110: real time    0.0116
    --------------------------------------------
      LOOP:  cpu time   19.2025: real time   19.3781

 eigenvalue-minimisations  :  3160
 total energy-change (2. order) : 0.6792223E-01  (-0.2204454E+01)
 number of electron     293.0000000 magnetization       0.3444379
 augmentation part       11.2127277 magnetization       0.2955180

 Broyden mixing:
  rms(total) = 0.28381E+01    rms(broyden)= 0.28378E+01
  rms(prec ) = 0.34812E+01
  weight for this iteration     100.00

 eigenvalues of (default mixing * dielectric matrix)
  average eigenvalue GAMMA=   0.8610
  1.9001  0.3414  0.3414

 Free energy of the ion-electron system (eV)
  ---------------------------------------------------
  alpha Z        PSCENC =       156.95040625
  Ewald energy   TEWEN  =     30379.13023378
  -Hartree energ DENC   =    -40142.56979787
  -exchange      EXHF   =         0.00000000
  -V(xc)+E(xc)   XCENC  =      1007.66703037
  PAW double counting   =     19682.63171582   -19782.18453967
  entropy T*S    EENTRO =        -0.03106521
  eigenvalues    EBANDS =     -4029.71011888
  atomic energy  EATOM  =     12065.75791449
  Solvation  Ediel_sol  =         0.00000000
  ---------------------------------------------------
  free energy    TOTEN  =      -662.35822092 eV

  energy without entropy =     -662.32715571  energy(sigma->0) =     -662.34268831


--------------------------------------------------------------------------------------------------------




--------------------------------------- Iteration      1(   9)  ---------------------------------------


    POTLOK:  cpu time    0.4233: real time    0.4272
    SETDIJ:  cpu time    0.0149: real time    0.0151
    EDDIAG:  cpu time    3.2798: real time    3.3047
  RMM-DIIS:  cpu time   13.1072: real time   13.2076
    ORTHCH:  cpu time    0.3638: real time    0.3700
       DOS:  cpu time    0.0011: real time    0.0011
    CHARGE:  cpu time    1.0078: real time    1.0174
    MIXING:  cpu time    0.0116: real time    0.0117
    --------------------------------------------
      LOOP:  cpu time   18.2094: real time   18.3548

 eigenvalue-minimisations  :  2980
 total energy-change (2. order) : 0.1517869E+02  (-0.2084211E+01)
 number of electron     293.0000002 magnetization       0.2758362
 augmentation part       12.2532814 magnetization       0.2447884

 Broyden mixing:
  rms(total) = 0.10844E+01    rms(broyden)= 0.10842E+01
  rms(prec ) = 0.12109E+01
  weight for this iteration     100.00

 eigenvalues of (default mixing * dielectric matrix)
  average eigenvalue GAMMA=   0.9281
  2.2172  0.7929  0.3511  0.3511

 Free energy of the ion-electron system (eV)
  ---------------------------------------------------
  alpha Z        PSCENC =       156.95040625
  Ewald energy   TEWEN  =     30379.13023378
  -Hartree energ DENC   =    -40451.98012144
  -exchange      EXHF   =         0.00000000
  -V(xc)+E(xc)   XCENC  =      1020.69495739
  PAW double counting   =     27990.23881736   -28092.56294989
  entropy T*S    EENTRO =        -0.03065851
  eigenvalues    EBANDS =     -3715.37812706
  atomic energy  EATOM  =     12065.75791449
  Solvation  Ediel_sol  =         0.00000000
  ---------------------------------------------------
  free energy    TOTEN  =      -647.17952763 eV

  energy without entropy =     -647.14886912  energy(sigma->0) =     -647.16419838


--------------------------------------------------------------------------------------------------------




--------------------------------------- Iteration      1(  10)  ---------------------------------------


    POTLOK:  cpu time    0.5556: real time    0.5602
    SETDIJ:  cpu time    0.0140: real time    0.0149
    EDDIAG:  cpu time    3.2910: real time    3.3203
  RMM-DIIS:  cpu time   13.2768: real time   13.3859
    ORTHCH:  cpu time    0.5530: real time    0.5550
       DOS:  cpu time    0.0009: real time    0.0009
    CHARGE:  cpu time    0.9805: real time    0.9919
    MIXING:  cpu time    0.0122: real time    0.0123
    --------------------------------------------
      LOOP:  cpu time   18.6840: real time   18.8414

 eigenvalue-minimisations  :  3023
 total energy-change (2. order) :-0.6996951E+00  (-0.2927073E+00)
 number of electron     293.0000005 magnetization       0.2190937
 augmentation part       13.7420264 magnetization       0.2525946

 Broyden mixing:
  rms(total) = 0.14200E+01    rms(broyden)= 0.14196E+01
  rms(prec ) = 0.17614E+01
  weight for this iteration     100.00

 eigenvalues of (default mixing * dielectric matrix)
  average eigenvalue GAMMA=   0.9220
  2.3446  1.0667  0.3483  0.3483  0.5019

 Free energy of the ion-electron system (eV)
  ---------------------------------------------------
  alpha Z        PSCENC =       156.95040625
  Ewald energy   TEWEN  =     30379.13023378
  -Hartree energ DENC   =    -40491.80330864
  -exchange      EXHF   =         0.00000000
  -V(xc)+E(xc)   XCENC  =      1021.40384469
  PAW double counting   =     29385.81841586   -29486.85676432
  entropy T*S    EENTRO =        -0.00098020
  eigenvalues    EBANDS =     -3678.27898465
  atomic energy  EATOM  =     12065.75791449
  Solvation  Ediel_sol  =         0.00000000
  ---------------------------------------------------
  free energy    TOTEN  =      -647.87922274 eV

  energy without entropy =     -647.87824254  energy(sigma->0) =     -647.87873264


--------------------------------------------------------------------------------------------------------




--------------------------------------- Iteration      1(  11)  ---------------------------------------


    POTLOK:  cpu time    0.5330: real time    0.5367
    SETDIJ:  cpu time    0.0210: real time    0.0212
    EDDIAG:  cpu time    3.1940: real time    3.2261
  RMM-DIIS:  cpu time   13.4898: real time   13.5957
    ORTHCH:  cpu time    0.4789: real time    0.4803
       DOS:  cpu time    0.0010: real time    0.0010
    CHARGE:  cpu time    0.9917: real time    1.0008
    MIXING:  cpu time    0.0122: real time    0.0123
    --------------------------------------------
      LOOP:  cpu time   18.7217: real time   18.8741

 eigenvalue-minimisations  :  3114
 total energy-change (2. order) : 0.1211063E+01  (-0.3687428E-01)
 number of electron     293.0000004 magnetization       0.2242106
 augmentation part       12.7183533 magnetization       0.0580426

 Broyden mixing:
  rms(total) = 0.67969E+00    rms(broyden)= 0.67933E+00
  rms(prec ) = 0.69850E+00
  weight for this iteration     100.00

 eigenvalues of (default mixing * dielectric matrix)
  average eigenvalue GAMMA=   0.9568
  2.1022  2.0331  0.3479  0.3479  0.5309  0.3783

 Free energy of the ion-electron system (eV)
  ---------------------------------------------------
  alpha Z        PSCENC =       156.95040625
  Ewald energy   TEWEN  =     30379.13023378
  -Hartree energ DENC   =    -40524.43003993
  -exchange      EXHF   =         0.00000000
  -V(xc)+E(xc)   XCENC  =      1021.77836702
  PAW double counting   =     30032.28178535   -30132.60835199
  entropy T*S    EENTRO =        -0.07155568
  eigenvalues    EBANDS =     -3645.45691950
  atomic energy  EATOM  =     12065.75791449
  Solvation  Ediel_sol  =         0.00000000
  ---------------------------------------------------
  free energy    TOTEN  =      -646.66816021 eV

  energy without entropy =     -646.59660454  energy(sigma->0) =     -646.63238237


--------------------------------------------------------------------------------------------------------




--------------------------------------- Iteration      1(  12)  ---------------------------------------


    POTLOK:  cpu time    0.5371: real time    0.5412
    SETDIJ:  cpu time    0.0152: real time    0.0154
    EDDIAG:  cpu time    3.3057: real time    3.3317
  RMM-DIIS:  cpu time   12.9097: real time   13.0034
    ORTHCH:  cpu time    0.2716: real time    0.2726
       DOS:  cpu time    0.0011: real time    0.0010
    CHARGE:  cpu time    1.0121: real time    1.0253
    MIXING:  cpu time    0.0124: real time    0.0128
    --------------------------------------------
      LOOP:  cpu time   18.0649: real time   18.2032

 eigenvalue-minimisations  :  2949
 total energy-change (2. order) :-0.1383665E+00  (-0.1644276E-01)
 number of electron     293.0000004 magnetization       0.1854848
 augmentation part       12.9431263 magnetization      -0.2749235

 Broyden mixing:
  rms(total) = 0.66689E+00    rms(broyden)= 0.66670E+00
  rms(prec ) = 0.69836E+00
  weight for this iteration     100.00

 eigenvalues of (default mixing * dielectric matrix)
  average eigenvalue GAMMA=   0.8336
  2.0705  2.0705  0.3479  0.3479  0.5532  0.3872  0.0579

 Free energy of the ion-electron system (eV)
  ---------------------------------------------------
  alpha Z        PSCENC =       156.95040625
  Ewald energy   TEWEN  =     30379.13023378
  -Hartree energ DENC   =    -40548.30002247
  -exchange      EXHF   =         0.00000000
  -V(xc)+E(xc)   XCENC  =      1021.45948484
  PAW double counting   =     30423.41237202   -30522.32233105
  entropy T*S    EENTRO =        -0.02740434
  eigenvalues    EBANDS =     -3622.86718019
  atomic energy  EATOM  =     12065.75791449
  Solvation  Ediel_sol  =         0.00000000
  ---------------------------------------------------
  free energy    TOTEN  =      -646.80652668 eV

  energy without entropy =     -646.77912234  energy(sigma->0) =     -646.79282451


--------------------------------------------------------------------------------------------------------




--------------------------------------- Iteration      1(  13)  ---------------------------------------


    POTLOK:  cpu time    0.5379: real time    0.5420
    SETDIJ:  cpu time    0.0148: real time    0.0148
    EDDIAG:  cpu time    3.2661: real time    3.2924
  RMM-DIIS:  cpu time   13.1707: real time   13.2681
    ORTHCH:  cpu time    0.2748: real time    0.2759
       DOS:  cpu time    0.0010: real time    0.0010
    CHARGE:  cpu time    0.9882: real time    0.9959
    MIXING:  cpu time    0.0125: real time    0.0126
    --------------------------------------------
      LOOP:  cpu time   18.2660: real time   18.4026

 eigenvalue-minimisations  :  3012
 total energy-change (2. order) : 0.6687390E-01  (-0.1803477E-02)
 number of electron     293.0000004 magnetization       0.3684261
 augmentation part       12.9310608 magnetization      -0.1128669

 Broyden mixing:
  rms(total) = 0.70620E+00    rms(broyden)= 0.70619E+00
  rms(prec ) = 0.73250E+00
  weight for this iteration     100.00

 eigenvalues of (default mixing * dielectric matrix)
  average eigenvalue GAMMA=   0.9196
  2.2085  2.2085  0.6048  0.6048  0.6404  0.3473  0.3473  0.3951

 Free energy of the ion-electron system (eV)
  ---------------------------------------------------
  alpha Z        PSCENC =       156.95040625
  Ewald energy   TEWEN  =     30379.13023378
  -Hartree energ DENC   =    -40546.06847977
  -exchange      EXHF   =         0.00000000
  -V(xc)+E(xc)   XCENC  =      1021.40277056
  PAW double counting   =     30434.38713052   -30533.25790593
  entropy T*S    EENTRO =        -0.02880850
  eigenvalues    EBANDS =     -3625.01291418
  atomic energy  EATOM  =     12065.75791449
  Solvation  Ediel_sol  =         0.00000000
  ---------------------------------------------------
  free energy    TOTEN  =      -646.73965278 eV

  energy without entropy =     -646.71084428  energy(sigma->0) =     -646.72524853


--------------------------------------------------------------------------------------------------------




--------------------------------------- Iteration      1(  14)  ---------------------------------------


    POTLOK:  cpu time    0.5151: real time    0.5193
    SETDIJ:  cpu time    0.0148: real time    0.0148
    EDDIAG:  cpu time    3.2691: real time    3.2941
  RMM-DIIS:  cpu time   13.2839: real time   13.3855
    ORTHCH:  cpu time    0.2780: real time    0.2796
       DOS:  cpu time    0.0010: real time    0.0010
    CHARGE:  cpu time    1.0232: real time    1.0347
    MIXING:  cpu time    0.0116: real time    0.0117
    --------------------------------------------
      LOOP:  cpu time   18.3968: real time   18.5407

 eigenvalue-minimisations  :  3030
 total energy-change (2. order) :-0.1214848E+00  (-0.9143482E-02)
 number of electron     293.0000004 magnetization       0.5521888
 augmentation part       12.8338219 magnetization       0.1262883

 Broyden mixing:
  rms(total) = 0.55366E+00    rms(broyden)= 0.55364E+00
  rms(prec ) = 0.56528E+00
  weight for this iteration     100.00

 eigenvalues of (default mixing * dielectric matrix)
  average eigenvalue GAMMA=   0.9080
  2.1983  2.1983  0.8550  0.8550  0.5946  0.3478  0.3478  0.4326  0.3430

 Free energy of the ion-electron system (eV)
  ---------------------------------------------------
  alpha Z        PSCENC =       156.95040625
  Ewald energy   TEWEN  =     30379.13023378
  -Hartree energ DENC   =    -40562.30458056
  -exchange      EXHF   =         0.00000000
  -V(xc)+E(xc)   XCENC  =      1021.57819035
  PAW double counting   =     30498.22975442   -30596.82321378
  entropy T*S    EENTRO =        -0.02270217
  eigenvalues    EBANDS =     -3609.35714041
  atomic energy  EATOM  =     12065.75791449
  Solvation  Ediel_sol  =         0.00000000
  ---------------------------------------------------
  free energy    TOTEN  =      -646.86113762 eV

  energy without entropy =     -646.83843545  energy(sigma->0) =     -646.84978654


--------------------------------------------------------------------------------------------------------




--------------------------------------- Iteration      1(  15)  ---------------------------------------


    POTLOK:  cpu time    0.5116: real time    0.5209
    SETDIJ:  cpu time    0.0151: real time    0.0152
    EDDIAG:  cpu time    3.2060: real time    3.2301
  RMM-DIIS:  cpu time   12.8559: real time   12.9687
    ORTHCH:  cpu time    0.3452: real time    0.3462
       DOS:  cpu time    0.0011: real time    0.0011
    CHARGE:  cpu time    0.9876: real time    0.9964
    MIXING:  cpu time    0.0137: real time    0.0137
    --------------------------------------------
      LOOP:  cpu time   17.9361: real time   18.0924

 eigenvalue-minimisations  :  2962
 total energy-change (2. order) :-0.6771312E-01  (-0.1360125E-01)
 number of electron     293.0000004 magnetization       0.9694322
 augmentation part       12.9366224 magnetization       0.6261364

 Broyden mixing:
  rms(total) = 0.51080E+00    rms(broyden)= 0.51079E+00
  rms(prec ) = 0.54222E+00
  weight for this iteration     100.00

 eigenvalues of (default mixing * dielectric matrix)
  average eigenvalue GAMMA=   1.0092
  2.1015  2.1015  1.5107  1.5107  0.6090  0.6090  0.3475  0.3475  0.5649  0.3894

 Free energy of the ion-electron system (eV)
  ---------------------------------------------------
  alpha Z        PSCENC =       156.95040625
  Ewald energy   TEWEN  =     30379.13023378
  -Hartree energ DENC   =    -40574.52007104
  -exchange      EXHF   =         0.00000000
  -V(xc)+E(xc)   XCENC  =      1021.90179650
  PAW double counting   =     30480.16934754   -30578.75707065
  entropy T*S    EENTRO =        -0.02286009
  eigenvalues    EBANDS =     -3597.53854752
  atomic energy  EATOM  =     12065.75791449
  Solvation  Ediel_sol  =         0.00000000
  ---------------------------------------------------
  free energy    TOTEN  =      -646.92885074 eV

  energy without entropy =     -646.90599065  energy(sigma->0) =     -646.91742069


--------------------------------------------------------------------------------------------------------




--------------------------------------- Iteration      1(  16)  ---------------------------------------


    POTLOK:  cpu time    0.5540: real time    0.5616
    SETDIJ:  cpu time    0.0149: real time    0.0154
    EDDIAG:  cpu time    3.2292: real time    3.2576
  RMM-DIIS:  cpu time   13.1047: real time   13.1995
    ORTHCH:  cpu time    0.3730: real time    0.3740
       DOS:  cpu time    0.0010: real time    0.0010
    CHARGE:  cpu time    0.9874: real time    1.0014
    MIXING:  cpu time    0.0120: real time    0.0125
    --------------------------------------------
      LOOP:  cpu time   18.2762: real time   18.4230

 eigenvalue-minimisations  :  2982
 total energy-change (2. order) : 0.8020828E-01  (-0.2352900E-01)
 number of electron     293.0000004 magnetization       1.0388837
 augmentation part       12.9009436 magnetization       0.7487072

 Broyden mixing:
  rms(total) = 0.28155E+00    rms(broyden)= 0.28149E+00
  rms(prec ) = 0.31753E+00
  weight for this iteration     100.00

 eigenvalues of (default mixing * dielectric matrix)
  average eigenvalue GAMMA=   1.0347
  2.1305  2.1305  1.7847  1.7847  0.6432  0.6432  0.3475  0.3475  0.6117  0.5726
  0.3852

 Free energy of the ion-electron system (eV)
  ---------------------------------------------------
  alpha Z        PSCENC =       156.95040625
  Ewald energy   TEWEN  =     30379.13023378
  -Hartree energ DENC   =    -40603.28055396
  -exchange      EXHF   =         0.00000000
  -V(xc)+E(xc)   XCENC  =      1022.80629683
  PAW double counting   =     30399.93667436   -30498.58569486
  entropy T*S    EENTRO =        -0.03090062
  eigenvalues    EBANDS =     -3569.53301872
  atomic energy  EATOM  =     12065.75791449
  Solvation  Ediel_sol  =         0.00000000
  ---------------------------------------------------
  free energy    TOTEN  =      -646.84864245 eV

  energy without entropy =     -646.81774183  energy(sigma->0) =     -646.83319214


--------------------------------------------------------------------------------------------------------




--------------------------------------- Iteration      1(  17)  ---------------------------------------


    POTLOK:  cpu time    0.4169: real time    0.4209
    SETDIJ:  cpu time    0.0151: real time    0.0152
    EDDIAG:  cpu time    3.1905: real time    3.2187
  RMM-DIIS:  cpu time   13.5925: real time   13.6920
    ORTHCH:  cpu time    0.3101: real time    0.3113
       DOS:  cpu time    0.0009: real time    0.0009
    CHARGE:  cpu time    0.9882: real time    0.9973
    MIXING:  cpu time    0.0142: real time    0.0144
    --------------------------------------------
      LOOP:  cpu time   18.5284: real time   18.6708

 eigenvalue-minimisations  :  3124
 total energy-change (2. order) :-0.8412191E-01  (-0.4117597E-02)
 number of electron     293.0000003 magnetization       1.4452183
 augmentation part       12.8654966 magnetization       1.1334882

 Broyden mixing:
  rms(total) = 0.23765E+00    rms(broyden)= 0.23765E+00
  rms(prec ) = 0.26485E+00
  weight for this iteration     100.00

 eigenvalues of (default mixing * dielectric matrix)
  average eigenvalue GAMMA=   1.0915
  2.1535  2.1535  2.1419  2.1419  0.7523  0.7523  0.3475  0.3475  0.3871  0.6272
  0.6272  0.6661

 Free energy of the ion-electron system (eV)
  ---------------------------------------------------
  alpha Z        PSCENC =       156.95040625
  Ewald energy   TEWEN  =     30379.13023378
  -Hartree energ DENC   =    -40608.80639070
  -exchange      EXHF   =         0.00000000
  -V(xc)+E(xc)   XCENC  =      1022.74319916
  PAW double counting   =     30406.32205901   -30504.99667472
  entropy T*S    EENTRO =        -0.03109606
  eigenvalues    EBANDS =     -3564.00241558
  atomic energy  EATOM  =     12065.75791449
  Solvation  Ediel_sol  =         0.00000000
  ---------------------------------------------------
  free energy    TOTEN  =      -646.93276437 eV

  energy without entropy =     -646.90166830  energy(sigma->0) =     -646.91721633


--------------------------------------------------------------------------------------------------------




--------------------------------------- Iteration      1(  18)  ---------------------------------------


    POTLOK:  cpu time    0.5385: real time    0.5436
    SETDIJ:  cpu time    0.0152: real time    0.0152
    EDDIAG:  cpu time    3.2871: real time    3.3118
  RMM-DIIS:  cpu time   12.9571: real time   13.0589
    ORTHCH:  cpu time    0.3086: real time    0.3093
       DOS:  cpu time    0.0011: real time    0.0012
    CHARGE:  cpu time    1.0247: real time    1.0357
    MIXING:  cpu time    0.0122: real time    0.0128
    --------------------------------------------
      LOOP:  cpu time   18.1444: real time   18.2886

 eigenvalue-minimisations  :  2974
 total energy-change (2. order) :-0.4855469E-01  (-0.1018323E-01)
 number of electron     293.0000003 magnetization       1.5858629
 augmentation part       12.8302083 magnetization       1.2441033

 Broyden mixing:
  rms(total) = 0.11440E+00    rms(broyden)= 0.11438E+00
  rms(prec ) = 0.13985E+00
  weight for this iteration     100.00

 eigenvalues of (default mixing * dielectric matrix)
  average eigenvalue GAMMA=   1.1062
  2.1912  2.1912  2.2247  2.2247  0.7432  0.7432  0.3475  0.3475  0.9109  0.8456
  0.3864  0.6121  0.6121

 Free energy of the ion-electron system (eV)
  ---------------------------------------------------
  alpha Z        PSCENC =       156.95040625
  Ewald energy   TEWEN  =     30379.13023378
  -Hartree energ DENC   =    -40639.91542910
  -exchange      EXHF   =         0.00000000
  -V(xc)+E(xc)   XCENC  =      1023.23778118
  PAW double counting   =     30382.83728151   -30481.54881805
  entropy T*S    EENTRO =        -0.03644018
  eigenvalues    EBANDS =     -3533.39424893
  atomic energy  EATOM  =     12065.75791449
  Solvation  Ediel_sol  =         0.00000000
  ---------------------------------------------------
  free energy    TOTEN  =      -646.98131906 eV

  energy without entropy =     -646.94487888  energy(sigma->0) =     -646.96309897


--------------------------------------------------------------------------------------------------------




--------------------------------------- Iteration      1(  19)  ---------------------------------------


    POTLOK:  cpu time    0.5202: real time    0.5254
    SETDIJ:  cpu time    0.0147: real time    0.0148
    EDDIAG:  cpu time    3.2294: real time    3.2544
  RMM-DIIS:  cpu time   12.9828: real time   13.0793
    ORTHCH:  cpu time    0.4913: real time    0.4925
       DOS:  cpu time    0.0009: real time    0.0009
    CHARGE:  cpu time    1.0052: real time    1.0205
    MIXING:  cpu time    0.0151: real time    0.0153
    --------------------------------------------
      LOOP:  cpu time   18.2595: real time   18.4032

 eigenvalue-minimisations  :  2985
 total energy-change (2. order) :-0.6053033E-01  (-0.3395346E-02)
 number of electron     293.0000003 magnetization       1.6183250
 augmentation part       12.8077526 magnetization       1.2628287

 Broyden mixing:
  rms(total) = 0.10438E+00    rms(broyden)= 0.10438E+00
  rms(prec ) = 0.12007E+00
  weight for this iteration     100.00

 eigenvalues of (default mixing * dielectric matrix)
  average eigenvalue GAMMA=   1.1203
  2.2591  2.2591  2.1952  2.1952  1.6662  0.7462  0.7462  0.3475  0.3475  0.7348
  0.3868  0.6242  0.6242  0.5523

 Free energy of the ion-electron system (eV)
  ---------------------------------------------------
  alpha Z        PSCENC =       156.95040625
  Ewald energy   TEWEN  =     30379.13023378
  -Hartree energ DENC   =    -40653.86415141
  -exchange      EXHF   =         0.00000000
  -V(xc)+E(xc)   XCENC  =      1023.35251298
  PAW double counting   =     30395.75904745   -30494.45302539
  entropy T*S    EENTRO =        -0.03602094
  eigenvalues    EBANDS =     -3519.63876661
  atomic energy  EATOM  =     12065.75791449
  Solvation  Ediel_sol  =         0.00000000
  ---------------------------------------------------
  free energy    TOTEN  =      -647.04184939 eV

  energy without entropy =     -647.00582845  energy(sigma->0) =     -647.02383892


--------------------------------------------------------------------------------------------------------




--------------------------------------- Iteration      1(  20)  ---------------------------------------


    POTLOK:  cpu time    0.5695: real time    0.5743
    SETDIJ:  cpu time    0.0205: real time    0.0207
    EDDIAG:  cpu time    3.2399: real time    3.2658
  RMM-DIIS:  cpu time   13.0622: real time   13.1553
    ORTHCH:  cpu time    0.3943: real time    0.3955
       DOS:  cpu time    0.0010: real time    0.0010
    CHARGE:  cpu time    0.9892: real time    0.9985
    MIXING:  cpu time    0.0149: real time    0.0151
    --------------------------------------------
      LOOP:  cpu time   18.2914: real time   18.4262

 eigenvalue-minimisations  :  2964
 total energy-change (2. order) :-0.8131085E-01  (-0.2238756E-02)
 number of electron     293.0000003 magnetization       1.7224760
 augmentation part       12.7868148 magnetization       1.3554526

 Broyden mixing:
  rms(total) = 0.70609E-01    rms(broyden)= 0.70606E-01
  rms(prec ) = 0.82527E-01
  weight for this iteration     100.00

 eigenvalues of (default mixing * dielectric matrix)
  average eigenvalue GAMMA=   1.1504
  2.4551  2.4551  2.1528  2.1528  1.9886  0.7686  0.7686  0.3475  0.3475  0.7093
  0.7093  0.7782  0.3866  0.6176  0.6176

 Free energy of the ion-electron system (eV)
  ---------------------------------------------------
  alpha Z        PSCENC =       156.95040625
  Ewald energy   TEWEN  =     30379.13023378
  -Hartree energ DENC   =    -40660.44260300
  -exchange      EXHF   =         0.00000000
  -V(xc)+E(xc)   XCENC  =      1023.27081887
  PAW double counting   =     30381.61146081   -30480.30598541
  entropy T*S    EENTRO =        -0.03366516
  eigenvalues    EBANDS =     -3513.06174087
  atomic energy  EATOM  =     12065.75791449
  Solvation  Ediel_sol  =         0.00000000
  ---------------------------------------------------
  free energy    TOTEN  =      -647.12316025 eV

  energy without entropy =     -647.08949509  energy(sigma->0) =     -647.10632767


[...]
  E(xc)   -1111.05755 -1110.67787 -1150.15126     0.00678     0.01416     0.00157
  Local  -83769.50481-83793.53365 86109.85210   -11.41289   -39.66893   -13.58026
  n-local  -289.31873  -287.19469  -269.14143    -0.21149    -0.00340    -0.21036
  augment    66.23342    64.85061    65.79554    -0.09868    -0.40617     0.01286
  Kinetic  4385.18893  4370.98826  4983.13224     0.77158    -1.85380    -0.31819
  Fock        0.00000     0.00000     0.00000     0.00000     0.00000     0.00000
  vdW        -1.48227    -1.63709    -0.04014     0.00181    -0.00256     0.00459
  -------------------------------------------------------------------------------------
  Total       0.20591    -0.03276    -0.75129     0.17156    -0.00126    -0.00130
  in kB       0.11610    -0.01847    -0.42363     0.09674    -0.00071    -0.00073
  external pressure =       -0.11 kB  Pullay stress =        0.00 kB


 VOLUME and BASIS-vectors are now :
 -----------------------------------------------------------------------------
  energy-cutoff  :      550.00
  volume of cell :     2841.41
      direct lattice vectors                 reciprocal lattice vectors
    14.853071780  0.023521220  0.000000000     0.067264056  0.039205183  0.000000000
    -7.426535890 12.741655181  0.000000000    -0.000124170  0.078410366  0.000000000
     0.000000000  0.000000000 15.000000000     0.000000000  0.000000000  0.066666667

  length of vectors
    14.853090404 14.747990103 15.000000000     0.077855633  0.078410464  0.066666667


 FORCES acting on ions
    electron-ion (+dipol)            ewald-force                    non-local-force                 convergence-correction
 -----------------------------------------------------------------------------------------------
   0.321E+01 0.135E+01 0.790E+01   -.337E+01 -.160E+01 -.793E+01   0.163E+00 0.260E+00 0.261E-01   -.814E-03 -.803E-03 -.284E-03
   -.311E+00 0.364E+01 0.805E+01   -.152E+00 -.395E+01 -.808E+01   0.458E+00 0.298E+00 0.285E-01   -.593E-03 0.450E-03 -.521E-03
   0.173E+00 0.455E+01 0.724E+01   -.146E+00 -.490E+01 -.726E+01   -.159E-01 0.332E+00 0.262E-01   0.635E-03 -.121E-02 -.216E-04
   -.203E+01 0.966E+01 0.714E+01   0.216E+01 -.104E+02 -.716E+01   -.108E+00 0.664E+00 0.161E-01   0.262E-03 -.349E-03 0.119E-03
   -.287E+01 0.136E+01 0.697E+01   0.295E+01 -.143E+01 -.699E+01   -.803E-01 0.767E-01 0.260E-01   0.393E-03 -.121E-02 -.983E-04
   -.116E+01 0.419E+01 0.672E+01   0.166E+01 -.440E+01 -.673E+01   -.485E+00 0.210E+00 0.876E-02   0.323E-03 -.738E-03 0.837E-04
   -.238E+01 -.651E-01 0.754E+01   0.248E+01 0.103E-01 -.755E+01   -.111E+00 0.598E-01 0.173E-01   0.212E-02 -.131E-02 0.358E-03
   0.157E+01 0.873E+00 0.779E+01   -.153E+01 -.882E+00 -.782E+01   -.652E-01 0.429E-02 0.316E-01   0.203E-02 -.968E-03 0.358E-03
   -.898E+00 -.798E+00 0.747E+01   0.966E+00 0.703E+00 -.749E+01   -.499E-01 0.111E+00 0.163E-01   -.564E-03 -.517E-03 -.721E-04
   0.825E+00 -.797E+00 0.764E+01   -.831E+00 0.656E+00 -.766E+01   0.130E-01 0.145E+00 0.294E-01   0.107E-03 -.131E-02 -.142E-03
   0.271E+01 0.618E-01 0.690E+01   -.282E+01 -.222E+00 -.690E+01   0.104E+00 0.164E+00 0.675E-03   -.284E-02 -.268E-03 -.279E-03
   0.816E+00 -.677E+00 0.668E+01   -.983E+00 0.483E+00 -.670E+01   0.178E+00 0.206E+00 0.218E-01   -.225E-02 -.715E-03 -.480E-03
   0.636E+01 0.603E+01 0.681E+01   -.663E+01 -.620E+01 -.682E+01   0.251E+00 0.184E+00 0.383E-02   -.894E-03 0.164E-03 -.725E-03
   0.627E+01 0.233E+01 0.620E+01   -.678E+01 -.264E+01 -.622E+01   0.509E+00 0.292E+00 0.975E-02   -.567E-03 -.443E-03 -.912E-03
   0.842E+01 0.149E+02 0.990E+01   -.863E+01 -.161E+02 -.992E+01   0.195E+00 0.120E+01 0.142E-01   -.679E-03 0.385E-03 -.137E-03
   0.215E+02 0.202E+02 0.133E+02   -.261E+02 -.230E+02 -.135E+02   0.465E+01 0.285E+01 0.245E+00   -.710E-03 0.372E-03 0.541E-03
   -.813E+01 0.136E+02 0.693E+01   0.844E+01 -.145E+02 -.696E+01   -.313E+00 0.848E+00 0.316E-01   0.697E-03 -.245E-03 0.280E-03
   -.264E+02 0.226E+02 0.727E+01   0.318E+02 -.248E+02 -.710E+01   -.539E+01 0.215E+01 -.170E+00   0.460E-03 0.149E-02 0.472E-03
   -.565E+01 0.657E+01 0.756E+01   0.584E+01 -.650E+01 -.757E+01   -.183E+00 -.731E-01 0.998E-03   0.925E-03 -.812E-03 -.204E-04
   -.599E+00 0.601E+01 0.913E+01   0.531E+00 -.597E+01 -.923E+01   0.663E-01 -.408E-01 0.820E-01   -.110E-03 0.280E-03 -.896E-03
   -.250E+01 0.443E+01 0.795E+01   0.255E+01 -.446E+01 -.796E+01   -.541E-01 0.572E-01 0.129E-01   0.134E-02 -.217E-02 0.164E-03
   -.248E+01 0.228E+01 0.758E+01   0.247E+01 -.234E+01 -.761E+01   -.900E-03 0.602E-01 0.267E-01   0.110E-02 -.859E-03 0.112E-03
   0.125E+01 0.226E+01 0.618E+01   -.133E+01 -.231E+01 -.616E+01   0.801E-01 0.672E-01 -.161E-01   -.174E-02 -.142E-02 -.472E-03
   0.663E+00 0.196E+01 0.626E+01   -.762E+00 -.203E+01 -.629E+01   0.130E+00 0.582E-01 0.267E-01   -.978E-03 -.522E-03 -.570E-03
   0.394E+01 0.446E+01 0.525E+01   -.414E+01 -.445E+01 -.523E+01   0.202E+00 -.303E-02 -.263E-01   -.119E-02 -.195E-03 -.101E-02
   0.494E+01 0.257E+01 0.613E+01   -.503E+01 -.260E+01 -.617E+01   0.113E+00 -.338E-02 0.265E-01   -.160E-02 0.265E-03 -.995E-03
   0.158E+02 0.105E+02 0.817E+01   -.169E+02 -.101E+02 -.811E+01   0.109E+01 -.379E+00 -.509E-01   0.130E-03 -.834E-03 -.120E-03
   0.195E+02 0.208E+01 0.890E+01   -.198E+02 -.146E+01 -.905E+01   0.293E+00 -.631E+00 0.157E+00   0.754E-04 0.148E-02 0.738E-03
   0.605E+00 0.233E+02 0.143E+02   -.237E+00 -.218E+02 -.149E+02   -.374E+00 -.146E+01 0.540E+00   0.104E-02 0.185E-02 0.324E-02
   -.537E+01 0.629E+01 0.932E+01   0.129E+02 0.395E+01 -.717E+01   -.756E+01 -.102E+02 -.214E+01   0.134E-02 0.165E-02 0.365E-02
   -.123E+02 0.199E+02 0.136E+02   0.132E+02 -.183E+02 -.139E+02   -.874E+00 -.162E+01 0.268E+00   -.746E-03 0.968E-03 -.124E-02
   -.318E+01 0.325E+02 0.338E+02   -.264E+01 -.283E+02 -.331E+02   0.587E+01 -.419E+01 -.713E+00   -.254E-02 0.199E-02 -.114E-02
   -.573E+01 0.109E+02 0.722E+01   0.567E+01 -.109E+02 -.720E+01   0.548E-01 0.771E-02 -.344E-01   0.514E-03 -.323E-03 -.436E-03
   -.144E+02 0.723E+01 0.731E+01   0.143E+02 -.710E+01 -.741E+01   0.176E+00 -.146E+00 0.965E-01   0.704E-03 0.138E-02 -.576E-03
   -.479E+00 0.433E+01 0.677E+01   0.406E+00 -.435E+01 -.676E+01   0.640E-01 0.292E-01 -.654E-02   0.906E-03 -.110E-03 -.194E-04
   -.335E+01 0.345E+01 0.703E+01   0.328E+01 -.350E+01 -.707E+01   0.634E-01 0.544E-01 0.390E-01   0.774E-03 0.554E-03 0.198E-03
   0.109E+01 0.103E-01 0.654E+01   -.120E+01 0.236E-01 -.654E+01   0.105E+00 -.174E-01 0.308E-02   -.862E-03 0.322E-03 -.550E-03
   -.233E+00 -.662E+00 0.755E+01   0.205E+00 0.656E+00 -.758E+01   0.297E-01 -.160E-01 0.395E-01   -.128E-02 0.135E-02 -.353E-03
   0.935E+01 -.129E+01 0.512E+01   -.966E+01 0.152E+01 -.509E+01   0.283E+00 -.202E+00 -.320E-01   0.130E-03 0.773E-03 -.209E-03
   0.680E+01 -.302E+01 0.274E+01   -.676E+01 0.315E+01 -.266E+01   -.258E-01 -.146E+00 -.883E-01   -.300E-04 0.706E-03 0.325E-03
   0.292E+02 -.185E+01 0.149E+02   -.291E+02 0.213E+01 -.157E+02   -.147E+00 -.290E+00 0.755E+00   0.101E-02 0.181E-02 0.245E-02
   0.283E+02 -.130E+02 0.140E+02   -.274E+02 0.140E+02 -.147E+02   -.820E+00 -.948E+00 0.746E+00   0.767E-03 0.575E-03 0.892E-03
   -.270E+02 0.973E+01 0.169E+02   0.263E+02 -.100E+02 -.174E+02   0.671E+00 0.288E+00 0.577E+00   -.604E-03 0.134E-02 -.130E-02
   -.266E+02 -.113E+02 0.124E+02   0.257E+02 0.118E+02 -.130E+02   0.893E+00 -.507E+00 0.651E+00   -.195E-03 0.350E-03 0.726E-03
   -.586E+01 0.160E+01 0.538E+01   0.581E+01 -.159E+01 -.534E+01   0.429E-01 0.875E-02 -.347E-01   0.778E-03 0.139E-02 0.619E-03
   -.662E+01 -.138E+01 0.539E+01   0.651E+01 0.137E+01 -.533E+01   0.741E-01 0.155E-01 -.590E-01   0.113E-02 0.775E-03 0.101E-02
   -.297E+01 -.360E+01 0.818E+01   0.293E+01 0.359E+01 -.823E+01   0.532E-01 0.115E-01 0.495E-01   0.501E-03 0.449E-03 0.243E-03
   -.161E+01 -.276E+01 0.692E+01   0.155E+01 0.276E+01 -.690E+01   0.537E-01 0.253E-01 -.255E-01   0.122E-02 -.215E-02 0.362E-04
   0.362E+01 -.403E+01 0.634E+01   -.364E+01 0.410E+01 -.638E+01   0.206E-01 -.719E-01 0.413E-01   -.143E-02 0.112E-02 -.135E-03
   0.146E+01 -.326E+01 0.583E+01   -.139E+01 0.330E+01 -.580E+01   -.793E-01 -.433E-01 -.208E-01   -.861E-03 -.320E-03 -.144E-03
   0.116E+02 -.873E+01 0.211E+01   -.114E+02 0.879E+01 -.215E+01   -.216E+00 -.478E-01 0.351E-01   0.116E-02 -.116E-03 0.786E-03
   0.525E+01 -.101E+02 0.546E+01   -.503E+01 0.102E+02 -.545E+01   -.204E+00 -.129E+00 -.271E-01   0.925E-03 0.151E-02 0.501E-03
   -.580E+01 -.394E+02 0.357E+02   0.119E+02 0.363E+02 -.352E+02   -.618E+01 0.315E+01 -.534E+00   0.991E-03 0.427E-03 -.356E-03
   0.772E+00 -.193E+02 0.145E+02   -.487E+00 0.185E+02 -.147E+02   -.308E+00 0.827E+00 0.186E+00   0.242E-03 0.834E-03 -.112E-02
   0.592E+01 -.364E+02 0.200E+02   -.120E+02 0.329E+02 -.189E+02   0.615E+01 0.350E+01 -.107E+01   -.157E-02 -.140E-03 0.222E-02
   -.532E+00 -.191E+02 0.114E+02   0.262E+00 0.181E+02 -.116E+02   0.272E+00 0.986E+00 0.201E+00   -.951E-03 0.192E-03 0.814E-03
   -.126E+02 -.703E+01 0.443E+01   0.124E+02 0.696E+01 -.454E+01   0.245E+00 0.635E-01 0.113E+00   0.902E-03 0.355E-03 0.121E-02
   -.507E+01 -.933E+01 0.693E+01   0.482E+01 0.934E+01 -.688E+01   0.268E+00 -.354E-01 -.431E-01   -.559E-04 -.687E-03 0.107E-02
   -.234E+01 -.164E+01 0.795E+01   0.224E+01 0.157E+01 -.797E+01   0.118E+00 0.595E-01 0.270E-01   0.608E-04 -.138E-02 0.528E-03
   -.178E+01 -.207E+01 0.807E+01   0.173E+01 0.197E+01 -.808E+01   0.593E-01 0.116E+00 0.158E-01   0.320E-03 -.159E-02 0.682E-04
   -.520E+00 -.149E+01 0.655E+01   0.542E+00 0.144E+01 -.658E+01   -.125E-01 0.411E-01 0.248E-01   0.283E-03 -.158E-02 -.397E-03
   -.106E+01 0.508E+00 0.604E+01   0.113E+01 -.577E+00 -.602E+01   -.908E-01 0.794E-01 -.245E-01   0.863E-03 -.155E-02 -.258E-03
   0.871E+00 -.334E+01 0.655E+01   -.785E+00 0.336E+01 -.658E+01   -.700E-01 -.186E-01 0.288E-01   0.357E-03 0.264E-03 0.329E-03
   0.153E+01 -.315E+01 0.737E+01   -.146E+01 0.312E+01 -.739E+01   -.724E-01 0.419E-01 0.172E-01   0.118E-02 -.973E-03 0.154E-03
   -.129E+01 -.818E+01 0.100E+02   0.175E+01 0.799E+01 -.101E+02   -.475E+00 0.201E+00 0.984E-01   0.138E-02 0.133E-02 -.350E-03
   0.247E+01 -.451E+01 0.825E+01   -.239E+01 0.437E+01 -.828E+01   -.899E-01 0.128E+00 0.261E-01   0.141E-02 -.617E-04 0.718E-04
   0.749E+00 -.923E+01 0.591E+01   -.707E+00 0.864E+01 -.554E+01   -.508E-01 0.626E+00 -.384E+00   -.150E-02 -.556E-04 -.525E-03
   0.359E+00 -.636E+01 0.673E+01   -.403E+00 0.596E+01 -.676E+01   0.484E-01 0.386E+00 0.181E-01   -.178E-02 0.363E-03 -.317E-03
   0.247E+01 -.709E+01 0.108E+02   -.295E+01 0.681E+01 -.109E+02   0.495E+00 0.301E+00 0.112E+00   -.644E-03 -.843E-03 0.497E-03
   -.147E+01 -.425E+01 0.884E+01   0.133E+01 0.402E+01 -.887E+01   0.147E+00 0.253E+00 0.338E-01   -.956E-03 -.127E-02 -.183E-03
   -.598E+01 -.190E+02 -.641E+03   0.694E+01 0.192E+02 0.623E+03   -.977E+00 -.160E+00 0.177E+02   0.467E-02 -.144E-02 -.953E-03
 -----------------------------------------------------------------------------------------------
   0.738E+00 -.600E-01 -.178E+02   0.163E-12 0.171E-11 -.455E-12   -.742E+00 0.790E-01 0.178E+02   0.462E-02 -.198E-02 0.655E-02
 
 
 POSITION                                       TOTAL-FORCE (eV/Angst)
 -----------------------------------------------------------------------------------
      0.00371      0.00113      7.46423         0.003060      0.002837     -0.004434
      0.00264      1.42518      7.46465        -0.006533     -0.016139     -0.006437
      2.48104      0.02856      7.46365         0.012362     -0.019047     -0.001189
      2.47918      1.44562      7.47528         0.020941     -0.031454      0.000326
      4.94754      0.03651      7.46544        -0.003781      0.008134     -0.000954
      4.94395      1.46141      7.47700         0.021635      0.003004      0.000732
      7.42647      0.01158      7.46639        -0.003244      0.004188      0.006381
      7.42310      1.43616      7.46540        -0.027553     -0.006523      0.005492
      2.47758     12.73200      7.47399         0.017949      0.013348     -0.000962
      9.90356      1.41080      7.46239         0.006922      0.000813      0.001163
      4.95166     12.73660      7.47549        -0.009883      0.002563     -0.000790
     12.37574      1.41372      7.46546         0.008964      0.010337      0.000229
     13.61316      2.13388      7.46680        -0.018056      0.015876     -0.006734
     -1.23911      3.52597      7.47695        -0.006628     -0.020975     -0.011434
      1.24442      2.14930      7.47362        -0.008175      0.001260     -0.000766
      1.24145      3.56440      7.49758         0.005314     -0.013325      0.007951
      3.70205      2.18229      7.49282        -0.001816      0.006297      0.002391
      3.69435      3.60435      7.53654        -0.012920     -0.019365     -0.000244
      6.18326      2.16207      7.47838        -0.001031     -0.007117     -0.005184
      6.17503      3.58405      7.50141        -0.002291     -0.007700     -0.011189
      8.66617      2.12839      7.46276        -0.000211      0.027481      0.005665
      8.66749      3.54632      7.47146        -0.014251     -0.003681      0.004065
     11.13938      2.12264      7.46340         0.004549      0.013260     -0.002304
     11.14031      3.54401      7.46534         0.030464     -0.006116     -0.003360
     12.37544      4.25770      7.47382         0.000735      0.001466     -0.011431
     -2.48380      5.65447      7.47932         0.014762     -0.025746     -0.009400
     -0.00447      4.24471      7.49725        -0.018232      0.018088      0.004686
     -0.03557      5.65952      7.51990        -0.000211     -0.007718      0.008456
      2.46133      4.29961      7.55643         0.003227     -0.008448      0.013376
      2.43481      5.68986      7.67369        -0.007589     -0.008149      0.016144
      4.92755      4.33663      7.54712        -0.004783     -0.012076     -0.001038
      4.98520      5.75085      7.62621         0.029548      0.003155     -0.007746
      7.43153      4.26125      7.49608        -0.000318      0.002963     -0.011434
      7.46289      5.67826      7.51796        -0.017804     -0.019774     -0.009929
      9.90681      4.25500      7.46844        -0.007872      0.004442      0.004658
      9.91592      5.67593      7.47495        -0.002025      0.006489      0.005104
     -3.70994      6.36744      7.47294        -0.004897      0.015241     -0.005113
     -3.70680      7.78959      7.47086         0.001204     -0.018569      0.001829
     -1.26031      6.36958      7.50187        -0.028850      0.021228      0.002658
     -1.25634      7.79093      7.50823         0.013416     -0.015206     -0.006786
      1.18971      6.34778      7.58034        -0.015186     -0.023873      0.012027
      1.20004      7.78697      7.57944         0.019268      0.010801      0.015764
      6.24722      6.38644      7.56813         0.017470      0.000351     -0.006151
      6.25107      7.81579      7.58037         0.006617     -0.011013      0.005653
      8.69399      6.39020      7.49690        -0.003897      0.019068      0.004919
      8.69749      7.80966      7.49781        -0.024753      0.001696      0.005681
     -4.93289      8.50250      7.47248         0.007776      0.006655      0.002766
     -4.93922      9.92487      7.46784        -0.008904      0.018581     -0.000379
     -2.47928      8.50472      7.47972         0.004211      0.001144     -0.000175
     -2.47521      9.92722      7.47310        -0.001449     -0.002839      0.003150
     -0.02501      8.49911      7.53535        -0.017867      0.010544     -0.001944
     -0.00743      9.91884      7.50468         0.016322     -0.014729     -0.007360
      2.44623      8.44631      7.62202        -0.011338      0.013752     -0.001487
      2.48046      9.86230      7.54337        -0.011978     -0.005080     -0.005933
      4.99927      8.46039      7.65398         0.008159      0.008803      0.014081
      4.95880      9.87194      7.55360        -0.012134      0.013087      0.012525
      7.47014      8.52344      7.52648         0.010590     -0.011109      0.004330
      7.44604      9.93971      7.49818         0.014117     -0.012396      0.005629
     -6.17571     10.63325      7.47108         0.017381     -0.013442      0.004545
     -6.18075     12.05021      7.46248         0.008731      0.010258      0.002498
     -3.70826     10.63948      7.46475         0.009756     -0.006344     -0.005075
     -3.70921     12.06162      7.46401        -0.012275      0.009575     -0.005560
     -1.24171     10.63676      7.47755         0.017165      0.007508      0.004584
     -1.24171     12.05757      7.46630         0.001210      0.014732      0.004711
      1.24112     10.60354      7.50077        -0.016224      0.005669     -0.006834
      1.23820     12.02918      7.47652        -0.000781     -0.018013     -0.001843
      3.71807     10.59073      7.53646        -0.010676      0.021190     -0.009699
      3.71497     12.01059      7.49178         0.002123     -0.012928     -0.007625
      6.19597     10.61643      7.49907         0.005703      0.016409      0.006554
      6.19378     12.03972      7.47474        -0.002610      0.023194     -0.003326
      3.70922      7.08827      8.32905        -0.002624      0.003409     -0.018475
 -----------------------------------------------------------------------------------
    total drift:                                0.000927      0.017018     -0.024847


--------------------------------------------------------------------------------------------------------



  FREE ENERGIE OF THE ION-ELECTRON SYSTEM (eV)
  ---------------------------------------------------
  free  energy   TOTEN  =      -653.65112088 eV

  energy  without entropy=     -653.62113839  energy(sigma->0) =     -653.63612963
 
 d Force = 0.7923825E-03[ 0.254E-04, 0.156E-02]  d Energy = 0.8053146E-03-0.129E-04
 d Force = 0.6094273E+00[ 0.615E+00, 0.604E+00]  d Ewald  =-0.6430698E+01 0.704E+01


--------------------------------------------------------------------------------------------------------


    POTLOK:  cpu time    0.5497: real time    0.5551


--------------------------------------------------------------------------------------------------------


 Conjugate gradient step on ions:
 trial-energy change:   -0.000805  1 .order   -0.000809   -0.001612   -0.000006
  (g-gl).g = 0.167E-02      g.g   = 0.168E-02  gl.gl    = 0.216E-02
 g(Force)  = 0.160E-02   g(Stress)= 0.796E-04 ortho     = 0.201E-04
 gamma     =   0.77390
 trial     =   0.95097
 opt step  =   0.95463  (harmonic =   0.95463) maximal distance =0.00331816
 next E    =  -653.651125   (d E  =  -0.00081)


--------------------------------------------------------------------------------------------------------


  
 reached required accuracy - stopping structural energy minimisation
     LOOP+:  cpu time  121.8709: real time  122.8381
    4ORBIT:  cpu time    0.0000: real time    0.0000

 total amount of memory used by VASP MPI-rank0   135477. kBytes
=======================================================================

   base      :      30000. kBytes
   nonlr-proj:      10488. kBytes
   fftplans  :      14072. kBytes
   grid      :      39398. kBytes
   one-center:        186. kBytes
   wavefun   :      41333. kBytes
 
  
  
 General timing and accounting informations for this job:
 ========================================================
  
                  Total CPU time used (sec):     2820.883
                            User time (sec):     2795.933
                          System time (sec):       24.950
                         Elapsed time (sec):     2850.789
  
                   Maximum memory used (kb):      608776.
                   Average memory used (kb):           0.
  
                          Minor page faults:      5042421
                          Major page faults:           36
                 Voluntary context switches:        24393
