       N       E                     dE             d eps       ncg     rms          rms(c)
DAV:   1     0.251671901820E+04    0.25167E+04   -0.11230E+05  4392   0.107E+03
DAV:   2    -0.244023478506E+03   -0.27607E+04   -0.26355E+04  5456   0.280E+02
DAV:   3    -0.699972565345E+03   -0.45595E+03   -0.45191E+03  4568   0.120E+02
DAV:   4    -0.716468242599E+03   -0.16496E+02   -0.16355E+02  4640   0.281E+01
DAV:   5    -0.717012807382E+03   -0.54456E+00   -0.54340E+00  5320   0.424E+00    0.479E+01
DAV:   6    -0.711172816195E+03    0.58400E+01   -0.75138E+01  4776   0.305E+01    0.715E+01
DAV:   7    -0.675392729925E+03    0.35780E+02   -0.76133E+01  5328   0.602E+01    0.253E+01
DAV:   8    -0.668568549804E+03    0.68242E+01   -0.31148E+01  4776   0.125E+01    0.225E+01
DAV:   9    -0.664604285409E+03    0.39643E+01   -0.20758E+01  4624   0.137E+01    0.147E+01
DAV:  10    -0.663407403313E+03    0.11969E+01   -0.82020E+00  5224   0.105E+01    0.734E+00
DAV:  11    -0.663309922441E+03    0.97481E-01   -0.10418E+00  4968   0.297E+00    0.555E+00
DAV:  12    -0.663223662916E+03    0.86260E-01   -0.45785E-01  4536   0.213E+00    0.306E+00
DAV:  13    -0.663225226755E+03   -0.15638E-02   -0.19783E-01  4784   0.129E+00    0.204E+00
DAV:  14    -0.663230963728E+03   -0.57370E-02   -0.43901E-02  4440   0.516E-01    0.169E+00
DAV:  15    -0.663231110130E+03   -0.14640E-03   -0.81110E-03  4792   0.245E-01    0.124E+00
DAV:  16    -0.663230019158E+03    0.10910E-02   -0.29214E-03  4888   0.137E-01    0.922E-01
DAV:  17    -0.663229789032E+03    0.23013E-03   -0.18896E-03  4488   0.946E-02    0.692E-01
DAV:  18    -0.663229643019E+03    0.14601E-03   -0.34086E-04  3432   0.519E-02    0.471E-01
DAV:  19    -0.663229608619E+03    0.34401E-04   -0.11518E-04  2608   0.283E-02
   1 F= -.66979735E+03 E0= -.66979735E+03  d E =0.000000E+00  mag=     0.9995
