  71  71   0   0
  0.4011563E+02  0.1487831E-08  0.1477209E-08  0.1500000E-08  0.3000000E-15
  1.000000000000000E-004
  CAR 
 unknown system                          
      5.28810006    -48.59956468  301     -2.04337357      1.00000000
    -48.600  0.0000E+00  0.0000E+00  0.0000E+00  0.0000E+00
    -48.420  0.0000E+00  0.0000E+00  0.0000E+00  0.0000E+00
    -48.240  0.0000E+00  0.0000E+00  0.0000E+00  0.0000E+00
    -48.061  0.0000E+00  0.0000E+00  0.0000E+00  0.0000E+00
    -47.881  0.0000E+00  0.0000E+00  0.0000E+00  0.0000E+00
    -47.701  0.0000E+00  0.0000E+00  0.0000E+00  0.0000E+00
    -47.522  0.0000E+00  0.0000E+00  0.0000E+00  0.0000E+00
    -47.342  0.0000E+00  0.0000E+00  0.0000E+00  0.0000E+00
    -47.163  0.0000E+00  0.0000E+00  0.0000E+00  0.0000E+00
    -46.983  0.0000E+00  0.0000E+00  0.0000E+00  0.0000E+00
    -46.803  0.0000E+00  0.0000E+00  0.0000E+00  0.0000E+00
    -46.624  0.1479E-12  0.0000E+00  0.2657E-13  0.0000E+00
    -46.444  0.2246E-06  0.0000E+00  0.4034E-07  0.0000E+00
    -46.264  0.7373E-03  0.0000E+00  0.1325E-03  0.0000E+00
    -46.085  0.1077E-01  0.0000E+00  0.2068E-02  0.0000E+00
    -45.905  0.1084E-01  0.0000E+00  0.4015E-02  0.0000E+00
    -45.726  0.1820E-01  0.0000E+00  0.7284E-02  0.0000E+00
    -45.546  0.1201E-02  0.0000E+00  0.7500E-02  0.0000E+00
    -45.366  0.5556E-06  0.0000E+00  0.7500E-02  0.0000E+00
    -45.187  0.6109E-12  0.0000E+00  0.7500E-02  0.0000E+00
    -45.007  0.0000E+00  0.0000E+00  0.7500E-02  0.0000E+00
    -44.827  0.0000E+00  0.0000E+00  0.7500E-02  0.0000E+00
    -44.648  0.0000E+00  0.0000E+00  0.7500E-02  0.0000E+00
    -44.468  0.0000E+00  0.6018E-14  0.7500E-02  0.1081E-14
    -44.289  0.0000E+00  0.2800E-07  0.7500E-02  0.5029E-08
    -44.109  0.0000E+00  0.2676E-03  0.7500E-02  0.4808E-04
    -43.929  0.0000E+00  0.9252E-02  0.7500E-02  0.1710E-02
    -43.750  0.0000E+00  0.1051E-01  0.7500E-02  0.3597E-02
    -43.570  0.0000E+00  0.1729E-01  0.7500E-02  0.6703E-02
    -43.390  0.0000E+00  0.4422E-02  0.7500E-02  0.7497E-02
    -43.211  0.0000E+00  0.1656E-04  0.7500E-02  0.7500E-02
    -43.031  0.0000E+00  0.1686E-09  0.7500E-02  0.7500E-02
    -42.852  0.0000E+00  0.3090E-17  0.7500E-02  0.7500E-02
    -42.672  0.0000E+00  0.0000E+00  0.7500E-02  0.7500E-02
    -42.492  0.0000E+00  0.0000E+00  0.7500E-02  0.7500E-02
    -42.313  0.0000E+00  0.0000E+00  0.7500E-02  0.7500E-02
    -42.133  0.0000E+00  0.0000E+00  0.7500E-02  0.7500E-02
    -41.953  0.0000E+00  0.0000E+00  0.7500E-02  0.7500E-02
    -41.774  0.0000E+00  0.0000E+00  0.7500E-02  0.7500E-02
    -41.594  0.0000E+00  0.0000E+00  0.7500E-02  0.7500E-02
    -41.415  0.0000E+00  0.0000E+00  0.7500E-02  0.7500E-02
    -41.235  0.0000E+00  0.0000E+00  0.7500E-02  0.7500E-02
    -41.055  0.0000E+00  0.0000E+00  0.7500E-02  0.7500E-02
    -40.876  0.0000E+00  0.0000E+00  0.7500E-02  0.7500E-02
    -40.696  0.0000E+00  0.0000E+00  0.7500E-02  0.7500E-02
    -40.516  0.0000E+00  0.0000E+00  0.7500E-02  0.7500E-02
    -40.337  0.0000E+00  0.0000E+00  0.7500E-02  0.7500E-02
    -40.157  0.0000E+00  0.0000E+00  0.7500E-02  0.7500E-02
    -39.978  0.0000E+00  0.0000E+00  0.7500E-02  0.7500E-02
    -39.798  0.0000E+00  0.0000E+00  0.7500E-02  0.7500E-02
    -39.618  0.0000E+00  0.0000E+00  0.7500E-02  0.7500E-02
    -39.439  0.0000E+00  0.0000E+00  0.7500E-02  0.7500E-02
    -39.259  0.0000E+00  0.0000E+00  0.7500E-02  0.7500E-02
    -39.079  0.0000E+00  0.0000E+00  0.7500E-02  0.7500E-02
    -38.900  0.0000E+00  0.0000E+00  0.7500E-02  0.7500E-02
    -38.720  0.0000E+00  0.0000E+00  0.7500E-02  0.7500E-02
    -38.541  0.0000E+00  0.0000E+00  0.7500E-02  0.7500E-02
    -38.361  0.0000E+00  0.0000E+00  0.7500E-02  0.7500E-02
    -38.181  0.0000E+00  0.0000E+00  0.7500E-02  0.7500E-02
    -38.002  0.0000E+00  0.0000E+00  0.7500E-02  0.7500E-02
    -37.822  0.0000E+00  0.0000E+00  0.7500E-02  0.7500E-02
    -37.642  0.0000E+00  0.0000E+00  0.7500E-02  0.7500E-02
    -37.463  0.0000E+00  0.0000E+00  0.7500E-02  0.7500E-02
    -37.283  0.0000E+00  0.0000E+00  0.7500E-02  0.7500E-02
    -37.104  0.0000E+00  0.0000E+00  0.7500E-02  0.7500E-02
    -36.924  0.0000E+00  0.0000E+00  0.7500E-02  0.7500E-02
    -36.744  0.0000E+00  0.0000E+00  0.7500E-02  0.7500E-02
    -36.565  0.0000E+00  0.0000E+00  0.7500E-02  0.7500E-02
    -36.385  0.0000E+00  0.0000E+00  0.7500E-02  0.7500E-02
    -36.205  0.0000E+00  0.0000E+00  0.7500E-02  0.7500E-02
    -36.026  0.0000E+00  0.0000E+00  0.7500E-02  0.7500E-02
    -35.846  0.0000E+00  0.0000E+00  0.7500E-02  0.7500E-02
    -35.667  0.0000E+00  0.0000E+00  0.7500E-02  0.7500E-02
    -35.487  0.0000E+00  0.0000E+00  0.7500E-02  0.7500E-02
    -35.307  0.0000E+00  0.0000E+00  0.7500E-02  0.7500E-02
    -35.128  0.0000E+00  0.0000E+00  0.7500E-02  0.7500E-02
    -34.948  0.0000E+00  0.0000E+00  0.7500E-02  0.7500E-02
    -34.768  0.0000E+00  0.0000E+00  0.7500E-02  0.7500E-02
    -34.589  0.0000E+00  0.0000E+00  0.7500E-02  0.7500E-02
    -34.409  0.0000E+00  0.0000E+00  0.7500E-02  0.7500E-02
    -34.230  0.0000E+00  0.0000E+00  0.7500E-02  0.7500E-02
    -34.050  0.0000E+00  0.0000E+00  0.7500E-02  0.7500E-02
    -33.870  0.0000E+00  0.0000E+00  0.7500E-02  0.7500E-02
    -33.691  0.0000E+00  0.0000E+00  0.7500E-02  0.7500E-02
    -33.511  0.0000E+00  0.0000E+00  0.7500E-02  0.7500E-02
    -33.331  0.0000E+00  0.0000E+00  0.7500E-02  0.7500E-02
    -33.152  0.0000E+00  0.0000E+00  0.7500E-02  0.7500E-02
    -32.972  0.0000E+00  0.0000E+00  0.7500E-02  0.7500E-02
    -32.793  0.0000E+00  0.0000E+00  0.7500E-02  0.7500E-02
    -32.613  0.0000E+00  0.0000E+00  0.7500E-02  0.7500E-02
    -32.433  0.0000E+00  0.0000E+00  0.7500E-02  0.7500E-02
    -32.254  0.0000E+00  0.0000E+00  0.7500E-02  0.7500E-02
    -32.074  0.0000E+00  0.0000E+00  0.7500E-02  0.7500E-02
    -31.894  0.0000E+00  0.0000E+00  0.7500E-02  0.7500E-02
    -31.715  0.0000E+00  0.0000E+00  0.7500E-02  0.7500E-02
    -31.535  0.0000E+00  0.0000E+00  0.7500E-02  0.7500E-02
    -31.356  0.0000E+00  0.0000E+00  0.7500E-02  0.7500E-02
    -31.176  0.0000E+00  0.0000E+00  0.7500E-02  0.7500E-02
    -30.996  0.0000E+00  0.0000E+00  0.7500E-02  0.7500E-02
    -30.817  0.0000E+00  0.0000E+00  0.7500E-02  0.7500E-02
    -30.637  0.0000E+00  0.0000E+00  0.7500E-02  0.7500E-02
    -30.457  0.0000E+00  0.0000E+00  0.7500E-02  0.7500E-02
    -30.278  0.0000E+00  0.0000E+00  0.7500E-02  0.7500E-02
    -30.098  0.0000E+00  0.0000E+00  0.7500E-02  0.7500E-02
    -29.919  0.0000E+00  0.0000E+00  0.7500E-02  0.7500E-02
    -29.739  0.0000E+00  0.0000E+00  0.7500E-02  0.7500E-02
    -29.559  0.0000E+00  0.0000E+00  0.7500E-02  0.7500E-02
    -29.380  0.0000E+00  0.0000E+00  0.7500E-02  0.7500E-02
    -29.200  0.0000E+00  0.0000E+00  0.7500E-02  0.7500E-02
    -29.020  0.0000E+00  0.0000E+00  0.7500E-02  0.7500E-02
    -28.841  0.0000E+00  0.0000E+00  0.7500E-02  0.7500E-02
    -28.661  0.0000E+00  0.0000E+00  0.7500E-02  0.7500E-02
    -28.482  0.0000E+00  0.0000E+00  0.7500E-02  0.7500E-02
    -28.302  0.0000E+00  0.0000E+00  0.7500E-02  0.7500E-02
    -28.122  0.0000E+00  0.0000E+00  0.7500E-02  0.7500E-02
    -27.943  0.0000E+00  0.0000E+00  0.7500E-02  0.7500E-02
    -27.763  0.0000E+00  0.0000E+00  0.7500E-02  0.7500E-02
    -27.583  0.0000E+00  0.0000E+00  0.7500E-02  0.7500E-02
    -27.404  0.0000E+00  0.0000E+00  0.7500E-02  0.7500E-02
    -27.224  0.0000E+00  0.0000E+00  0.7500E-02  0.7500E-02
    -27.044  0.0000E+00  0.0000E+00  0.7500E-02  0.7500E-02
    -26.865  0.0000E+00  0.0000E+00  0.7500E-02  0.7500E-02
    -26.685  0.0000E+00  0.0000E+00  0.7500E-02  0.7500E-02
    -26.506  0.0000E+00  0.0000E+00  0.7500E-02  0.7500E-02
    -26.326  0.0000E+00  0.0000E+00  0.7500E-02  0.7500E-02
    -26.146  0.0000E+00  0.0000E+00  0.7500E-02  0.7500E-02
    -25.967  0.0000E+00  0.0000E+00  0.7500E-02  0.7500E-02
    -25.787  0.0000E+00  0.0000E+00  0.7500E-02  0.7500E-02
    -25.607  0.0000E+00  0.0000E+00  0.7500E-02  0.7500E-02
    -25.428  0.0000E+00  0.0000E+00  0.7500E-02  0.7500E-02
    -25.248  0.0000E+00  0.0000E+00  0.7500E-02  0.7500E-02
    -25.069  0.0000E+00  0.0000E+00  0.7500E-02  0.7500E-02
    -24.889  0.0000E+00  0.0000E+00  0.7500E-02  0.7500E-02
    -24.709  0.3863E-17  0.4636E-17  0.7500E-02  0.7500E-02
    -24.530  0.1966E-09  0.2034E-09  0.7500E-02  0.7500E-02
    -24.350  0.1808E-04  0.1844E-04  0.7503E-02  0.7503E-02
    -24.170  0.4417E-02  0.4447E-02  0.8297E-02  0.8302E-02
    -23.991  0.9214E-02  0.9188E-02  0.9952E-02  0.9952E-02
    -23.811  0.2683E-03  0.2644E-03  0.1000E-01  0.1000E-01
    -23.632  0.2813E-07  0.2734E-07  0.1000E-01  0.1000E-01
    -23.452  0.6062E-14  0.5805E-14  0.1000E-01  0.1000E-01
    -23.272  0.0000E+00  0.0000E+00  0.1000E-01  0.1000E-01
    -23.093  0.0000E+00  0.0000E+00  0.1000E-01  0.1000E-01
    -22.913  0.0000E+00  0.0000E+00  0.1000E-01  0.1000E-01
    -22.733  0.0000E+00  0.0000E+00  0.1000E-01  0.1000E-01
    -22.554  0.0000E+00  0.0000E+00  0.1000E-01  0.1000E-01
    -22.374  0.0000E+00  0.0000E+00  0.1000E-01  0.1000E-01
    -22.195  0.0000E+00  0.0000E+00  0.1000E-01  0.1000E-01
    -22.015  0.1577E-14  0.1671E-14  0.1000E-01  0.1000E-01
    -21.835  0.8579E-08  0.8966E-08  0.1000E-01  0.1000E-01
    -21.656  0.1082E-03  0.1112E-03  0.1002E-01  0.1002E-01
    -21.476  0.6430E-02  0.6492E-02  0.1117E-01  0.1119E-01
    -21.296  0.1269E-01  0.1269E-01  0.1345E-01  0.1347E-01
    -21.117  0.1478E-01  0.1498E-01  0.1611E-01  0.1616E-01
    -20.937  0.1383E-01  0.1378E-01  0.1859E-01  0.1863E-01
    -20.758  0.1060E-01  0.1056E-01  0.2050E-01  0.2053E-01
    -20.578  0.1426E-01  0.1436E-01  0.2306E-01  0.2311E-01
    -20.398  0.1698E-01  0.1703E-01  0.2611E-01  0.2617E-01
    -20.219  0.9807E-02  0.9683E-02  0.2787E-01  0.2791E-01
    -20.039  0.9847E-02  0.1002E-01  0.2964E-01  0.2970E-01
    -19.859  0.1577E-01  0.1571E-01  0.3247E-01  0.3253E-01
    -19.680  0.1618E-01  0.1623E-01  0.3538E-01  0.3544E-01
    -19.500  0.1500E-01  0.1494E-01  0.3807E-01  0.3813E-01
    -19.321  0.8957E-02  0.9087E-02  0.3968E-01  0.3976E-01
    -19.141  0.1321E-01  0.1345E-01  0.4205E-01  0.4217E-01
    -18.961  0.1839E-01  0.1827E-01  0.4536E-01  0.4546E-01
    -18.782  0.1245E-01  0.1225E-01  0.4759E-01  0.4766E-01
    -18.602  0.1444E-01  0.1435E-01  0.5019E-01  0.5023E-01
    -18.422  0.1299E-01  0.1293E-01  0.5252E-01  0.5256E-01
    -18.243  0.1534E-01  0.1627E-01  0.5528E-01  0.5548E-01
    -18.063  0.1656E-01  0.1608E-01  0.5825E-01  0.5837E-01
    -17.884  0.1264E-01  0.1232E-01  0.6052E-01  0.6058E-01
    -17.704  0.7722E-02  0.7742E-02  0.6191E-01  0.6197E-01
    -17.524  0.1990E-01  0.2020E-01  0.6548E-01  0.6560E-01
    -17.345  0.1742E-01  0.1715E-01  0.6861E-01  0.6868E-01
    -17.165  0.1502E-01  0.1531E-01  0.7131E-01  0.7143E-01
    -16.985  0.1497E-01  0.1488E-01  0.7400E-01  0.7410E-01
    -16.806  0.1886E-01  0.1891E-01  0.7739E-01  0.7750E-01
    -16.626  0.1556E-01  0.1523E-01  0.8018E-01  0.8023E-01
    -16.447  0.7944E-02  0.8505E-02  0.8161E-01  0.8176E-01
    -16.267  0.1733E-01  0.1701E-01  0.8472E-01  0.8481E-01
    -16.087  0.1528E-01  0.1534E-01  0.8747E-01  0.8757E-01
    -15.908  0.1403E-01  0.1413E-01  0.8999E-01  0.9011E-01
    -15.728  0.1105E-01  0.1104E-01  0.9197E-01  0.9209E-01
    -15.548  0.7687E-02  0.7423E-02  0.9335E-01  0.9342E-01
    -15.369  0.7329E-02  0.7655E-02  0.9467E-01  0.9480E-01
    -15.189  0.1311E-01  0.1314E-01  0.9702E-01  0.9716E-01
    -15.010  0.1697E-01  0.1692E-01  0.1001E+00  0.1002E+00
    -14.830  0.2023E-01  0.2013E-01  0.1037E+00  0.1038E+00
    -14.650  0.1244E-01  0.1218E-01  0.1059E+00  0.1060E+00
    -14.471  0.1562E-01  0.1578E-01  0.1087E+00  0.1088E+00
    -14.291  0.1683E-01  0.1697E-01  0.1118E+00  0.1119E+00
    -14.111  0.1394E-01  0.1371E-01  0.1143E+00  0.1143E+00
    -13.932  0.1378E-01  0.1402E-01  0.1167E+00  0.1169E+00
    -13.752  0.1897E-01  0.1887E-01  0.1202E+00  0.1203E+00
    -13.573  0.1308E-01  0.1306E-01  0.1225E+00  0.1226E+00
    -13.393  0.1408E-01  0.1429E-01  0.1250E+00  0.1252E+00
    -13.213  0.1480E-01  0.1492E-01  0.1277E+00  0.1278E+00
    -13.034  0.1115E-01  0.1066E-01  0.1297E+00  0.1298E+00
    -12.854  0.1181E-01  0.1196E-01  0.1318E+00  0.1319E+00
    -12.674  0.2164E-01  0.2195E-01  0.1357E+00  0.1359E+00
    -12.495  0.1549E-01  0.1506E-01  0.1385E+00  0.1386E+00
    -12.315  0.1017E-01  0.1005E-01  0.1403E+00  0.1404E+00
    -12.136  0.1043E-01  0.1059E-01  0.1422E+00  0.1423E+00
    -11.956  0.1379E-01  0.1384E-01  0.1447E+00  0.1448E+00
    -11.776  0.2207E-01  0.2230E-01  0.1486E+00  0.1488E+00
    -11.597  0.2428E-01  0.2442E-01  0.1530E+00  0.1531E+00
    -11.417  0.1889E-01  0.1858E-01  0.1564E+00  0.1565E+00
    -11.237  0.8743E-02  0.8455E-02  0.1580E+00  0.1580E+00
    -11.058  0.1558E-01  0.1577E-01  0.1608E+00  0.1608E+00
    -10.878  0.1720E-01  0.1728E-01  0.1638E+00  0.1639E+00
    -10.699  0.1886E-01  0.1863E-01  0.1672E+00  0.1673E+00
    -10.519  0.1496E-01  0.1523E-01  0.1699E+00  0.1700E+00
    -10.339  0.3190E-01  0.3165E-01  0.1756E+00  0.1757E+00
    -10.160  0.2173E-01  0.2171E-01  0.1795E+00  0.1796E+00
     -9.980  0.2196E-01  0.2234E-01  0.1835E+00  0.1836E+00
     -9.800  0.2068E-01  0.2047E-01  0.1872E+00  0.1873E+00
     -9.621  0.2298E-01  0.2300E-01  0.1913E+00  0.1914E+00
     -9.441  0.3381E-01  0.3369E-01  0.1974E+00  0.1975E+00
     -9.262  0.3179E-01  0.3169E-01  0.2031E+00  0.2032E+00
     -9.082  0.2547E-01  0.2562E-01  0.2077E+00  0.2078E+00
     -8.902  0.3827E-01  0.3820E-01  0.2146E+00  0.2146E+00
     -8.723  0.3219E-01  0.3238E-01  0.2203E+00  0.2204E+00
     -8.543  0.4738E-01  0.4790E-01  0.2289E+00  0.2291E+00
     -8.363  0.5350E-01  0.5281E-01  0.2385E+00  0.2385E+00
     -8.184  0.3229E-01  0.3235E-01  0.2443E+00  0.2443E+00
     -8.004  0.2812E-01  0.2838E-01  0.2493E+00  0.2494E+00
     -7.825  0.3135E-01  0.3099E-01  0.2550E+00  0.2550E+00
     -7.645  0.2817E-01  0.2817E-01  0.2600E+00  0.2601E+00
     -7.465  0.3319E-01  0.3302E-01  0.2660E+00  0.2660E+00
     -7.286  0.3445E-01  0.3464E-01  0.2722E+00  0.2722E+00
     -7.106  0.2972E-01  0.2897E-01  0.2775E+00  0.2774E+00
     -6.926  0.3435E-01  0.3491E-01  0.2837E+00  0.2837E+00
     -6.747  0.2214E-01  0.2212E-01  0.2876E+00  0.2877E+00
     -6.567  0.1890E-01  0.1833E-01  0.2910E+00  0.2910E+00
     -6.388  0.1932E-01  0.1850E-01  0.2945E+00  0.2943E+00
     -6.208  0.3785E-01  0.3718E-01  0.3013E+00  0.3010E+00
     -6.028  0.2911E-01  0.3073E-01  0.3065E+00  0.3065E+00
     -5.849  0.2861E-01  0.2847E-01  0.3117E+00  0.3116E+00
     -5.669  0.2458E-01  0.2287E-01  0.3161E+00  0.3157E+00
     -5.489  0.1641E-01  0.1771E-01  0.3190E+00  0.3189E+00
     -5.310  0.1574E-01  0.1421E-01  0.3219E+00  0.3214E+00
     -5.130  0.1965E-01  0.1907E-01  0.3254E+00  0.3249E+00
     -4.951  0.3214E-01  0.2330E-01  0.3312E+00  0.3291E+00
     -4.771  0.2776E-01  0.3222E-01  0.3362E+00  0.3348E+00
     -4.591  0.3533E-01  0.3791E-01  0.3425E+00  0.3417E+00
     -4.412  0.1308E-01  0.1677E-01  0.3449E+00  0.3447E+00
     -4.232  0.3529E-02  0.2973E-02  0.3455E+00  0.3452E+00
     -4.052  0.1373E-01  0.8776E-02  0.3480E+00  0.3468E+00
     -3.873  0.2896E-01  0.1794E-01  0.3532E+00  0.3500E+00
     -3.693  0.1272E-01  0.1573E-01  0.3554E+00  0.3528E+00
     -3.514  0.9420E-02  0.1843E-01  0.3571E+00  0.3561E+00
     -3.334  0.1424E-01  0.1332E-01  0.3597E+00  0.3585E+00
     -3.154  0.1703E-01  0.7946E-02  0.3628E+00  0.3600E+00
     -2.975  0.5853E-02  0.6965E-02  0.3638E+00  0.3612E+00
     -2.795  0.9808E-02  0.3045E-02  0.3656E+00  0.3618E+00
     -2.615  0.4557E-02  0.6825E-03  0.3664E+00  0.3619E+00
     -2.436  0.2882E-02  0.3207E-03  0.3669E+00  0.3619E+00
     -2.256  0.3168E-02  0.3046E-02  0.3675E+00  0.3625E+00
     -2.077  0.5384E-02  0.6327E-02  0.3684E+00  0.3636E+00
     -1.897  0.1801E-02  0.9269E-02  0.3688E+00  0.3653E+00
     -1.717  0.6026E-02  0.1925E-02  0.3698E+00  0.3656E+00
     -1.538  0.1922E-01  0.2206E-02  0.3733E+00  0.3660E+00
     -1.358  0.1416E-01  0.9393E-02  0.3758E+00  0.3677E+00
     -1.178  0.9251E-02  0.2344E-02  0.3775E+00  0.3681E+00
     -0.999  0.4204E-02  0.5558E-02  0.3783E+00  0.3691E+00
     -0.819  0.1569E-01  0.2748E-01  0.3811E+00  0.3741E+00
     -0.640  0.1954E-01  0.2780E-01  0.3846E+00  0.3791E+00
     -0.460  0.1413E-01  0.2553E-01  0.3871E+00  0.3836E+00
     -0.280  0.1824E-01  0.2564E-01  0.3904E+00  0.3883E+00
     -0.101  0.1263E-01  0.1836E-01  0.3927E+00  0.3915E+00
      0.079  0.1139E-01  0.1093E-01  0.3947E+00  0.3935E+00
      0.259  0.2057E-01  0.1834E-01  0.3984E+00  0.3968E+00
      0.438  0.1779E-01  0.2518E-01  0.4016E+00  0.4013E+00
      0.618  0.1438E-01  0.1641E-01  0.4042E+00  0.4043E+00
      0.797  0.1163E-01  0.6565E-02  0.4063E+00  0.4055E+00
      0.977  0.1931E-01  0.1178E-01  0.4097E+00  0.4076E+00
      1.157  0.1274E-01  0.2219E-01  0.4120E+00  0.4116E+00
      1.336  0.1697E-01  0.1406E-01  0.4151E+00  0.4141E+00
      1.516  0.1890E-01  0.1979E-01  0.4185E+00  0.4176E+00
      1.696  0.2244E-01  0.2127E-01  0.4225E+00  0.4215E+00
      1.875  0.2753E-01  0.2728E-01  0.4274E+00  0.4264E+00
      2.055  0.3307E-01  0.3135E-01  0.4334E+00  0.4320E+00
      2.234  0.2846E-01  0.2621E-01  0.4385E+00  0.4367E+00
      2.414  0.2227E-01  0.2036E-01  0.4425E+00  0.4404E+00
      2.594  0.3836E-01  0.3951E-01  0.4494E+00  0.4475E+00
      2.773  0.4920E-01  0.5461E-01  0.4582E+00  0.4573E+00
      2.953  0.9740E-02  0.1497E-01  0.4600E+00  0.4599E+00
      3.133  0.1086E-03  0.2852E-03  0.4600E+00  0.4600E+00
      3.312  0.6955E-08  0.6092E-07  0.4600E+00  0.4600E+00
      3.492  0.1058E-14  0.3754E-13  0.4600E+00  0.4600E+00
      3.671  0.0000E+00  0.0000E+00  0.4600E+00  0.4600E+00
      3.851  0.0000E+00  0.0000E+00  0.4600E+00  0.4600E+00
      4.031  0.0000E+00  0.0000E+00  0.4600E+00  0.4600E+00
      4.210  0.0000E+00  0.0000E+00  0.4600E+00  0.4600E+00
      4.390  0.0000E+00  0.0000E+00  0.4600E+00  0.4600E+00
      4.570  0.0000E+00  0.0000E+00  0.4600E+00  0.4600E+00
      4.749  0.0000E+00  0.0000E+00  0.4600E+00  0.4600E+00
      4.929  0.0000E+00  0.0000E+00  0.4600E+00  0.4600E+00
      5.108  0.0000E+00  0.0000E+00  0.4600E+00  0.4600E+00
      5.288  0.0000E+00  0.0000E+00  0.4600E+00  0.4600E+00
