       N       E                     dE             d eps       ncg     rms          rms(c)
DAV:   1     0.273563002194E+04    0.27356E+04   -0.11740E+05  3256   0.127E+03
DAV:   2    -0.173465372760E+03   -0.29091E+04   -0.27803E+04  4312   0.295E+02
DAV:   3    -0.684355859288E+03   -0.51089E+03   -0.50800E+03  3560   0.129E+02
DAV:   4    -0.703749454627E+03   -0.19394E+02   -0.19247E+02  3560   0.311E+01
DAV:   5    -0.704375615950E+03   -0.62616E+00   -0.62431E+00  4080   0.480E+00    0.465E+01
RMM:   6    -0.732283646876E+03   -0.27908E+02   -0.53644E+02  4107   0.394E+01    0.840E+01
RMM:   7    -0.662409102877E+03    0.69875E+02   -0.56920E+01  3047   0.138E+01    0.322E+01
RMM:   8    -0.662363847892E+03    0.45255E-01   -0.22197E+01  3131   0.707E+00    0.283E+01
RMM:   9    -0.647146832956E+03    0.15217E+02   -0.20118E+01  2973   0.844E+00    0.116E+01
RMM:  10    -0.647591984871E+03   -0.44515E+00   -0.31092E+00  3004   0.311E+00    0.146E+01
RMM:  11    -0.646541051756E+03    0.10509E+01   -0.41579E-01  3119   0.104E+00    0.768E+00
RMM:  12    -0.646379503566E+03    0.16155E+00   -0.15641E-01  2944   0.916E-01    0.581E+00
RMM:  13    -0.646496918819E+03   -0.11742E+00   -0.29360E-02  2972   0.315E-01    0.722E+00
RMM:  14    -0.646338387641E+03    0.15853E+00   -0.29399E-02  2982   0.398E-01    0.725E+00
RMM:  15    -0.646322112465E+03    0.16275E-01   -0.75265E-03  3041   0.114E-01    0.537E+00
RMM:  16    -0.646336922447E+03   -0.14810E-01   -0.22004E-02  2944   0.341E-01    0.403E+00
RMM:  17    -0.646334541051E+03    0.23814E-02   -0.34909E-02  2988   0.287E-01    0.312E+00
RMM:  18    -0.646349685143E+03   -0.15144E-01   -0.68569E-03  3272   0.131E-01    0.353E+00
RMM:  19    -0.646328865822E+03    0.20819E-01   -0.48031E-03  2952   0.135E-01    0.370E+00
RMM:  20    -0.646287067840E+03    0.41798E-01   -0.34310E-02  2951   0.290E-01    0.306E+00
RMM:  21    -0.646305480611E+03   -0.18413E-01   -0.18463E-02  2955   0.328E-01    0.251E+00
RMM:  22    -0.646299987548E+03    0.54931E-02   -0.92968E-03  2960   0.162E-01    0.973E-01
RMM:  23    -0.646386101318E+03   -0.86114E-01   -0.20041E-02  2947   0.245E-01    0.448E+00
RMM:  24    -0.646414350659E+03   -0.28249E-01   -0.17903E-02  2978   0.265E-01    0.420E+00
RMM:  25    -0.646424113213E+03   -0.97626E-02   -0.68188E-03  3125   0.101E-01    0.397E+00
RMM:  26    -0.646423358680E+03    0.75453E-03   -0.15009E-03  3115   0.413E-02    0.388E+00
RMM:  27    -0.646424274208E+03   -0.91553E-03   -0.34163E-04  2797   0.219E-02    0.383E+00
RMM:  28    -0.646416929900E+03    0.73443E-02   -0.23478E-03  2930   0.754E-02    0.363E+00
RMM:  29    -0.646403442407E+03    0.13487E-01   -0.10014E-02  2994   0.143E-01    0.283E+00
RMM:  30    -0.646400268499E+03    0.31739E-02   -0.38283E-03  3008   0.904E-02    0.279E+00
RMM:  31    -0.646370883798E+03    0.29385E-01   -0.35303E-03  3021   0.866E-02    0.281E+00
RMM:  32    -0.646355539512E+03    0.15344E-01   -0.20229E-03  3038   0.605E-02    0.281E+00
RMM:  33    -0.646333592494E+03    0.21947E-01   -0.25531E-03  3042   0.697E-02    0.269E+00
RMM:  34    -0.646307223759E+03    0.26369E-01   -0.44031E-03  3009   0.972E-02    0.943E-01
RMM:  35    -0.646324214873E+03   -0.16991E-01   -0.16574E-03  2950   0.123E-01    0.204E+00
RMM:  36    -0.646331505401E+03   -0.72905E-02   -0.15920E-03  2999   0.143E-01    0.336E+00
RMM:  37    -0.646340413214E+03   -0.89078E-02   -0.98166E-04  2936   0.104E-01    0.458E+00
RMM:  38    -0.646339925741E+03    0.48747E-03   -0.72650E-04  2926   0.926E-02    0.511E+00
RMM:  39    -0.646336704756E+03    0.32210E-02   -0.30799E-04  2614   0.542E-02    0.530E+00
RMM:  40    -0.646333375084E+03    0.33297E-02   -0.84362E-05  2040   0.268E-02    0.531E+00
RMM:  41    -0.646336205010E+03   -0.28299E-02   -0.12060E-04  2083   0.163E-02    0.546E+00
RMM:  42    -0.646330384257E+03    0.58208E-02   -0.16237E-03  2993   0.566E-02    0.567E+00
RMM:  43    -0.646280412761E+03    0.49971E-01   -0.60896E-03  2980   0.114E-01    0.343E+00
RMM:  44    -0.646312064132E+03   -0.31651E-01   -0.45615E-03  3008   0.132E-01    0.160E+00
RMM:  45    -0.646369689422E+03   -0.57625E-01   -0.72206E-03  2938   0.301E-01    0.378E+00
RMM:  46    -0.646362909520E+03    0.67799E-02   -0.31255E-03  2939   0.183E-01    0.375E+00
RMM:  47    -0.646363361408E+03   -0.45189E-03   -0.11412E-03  2991   0.692E-02    0.347E+00
RMM:  48    -0.646348175363E+03    0.15186E-01   -0.18872E-03  2953   0.713E-02    0.359E+00
RMM:  49    -0.646345726358E+03    0.24490E-02   -0.29813E-04  2441   0.261E-02    0.354E+00
RMM:  50    -0.646343673394E+03    0.20530E-02   -0.12053E-04  2237   0.201E-02
   1 F= -.65273944E+03 E0= -.65271682E+03  d E =-.652739E+03  mag=    -0.0948
       N       E                     dE             d eps       ncg     rms          rms(c)
DAV:   1    -0.646349715808E+03   -0.39895E-02   -0.12685E+01  3208   0.103E+01    0.326E+00
RMM:   2    -0.646749323679E+03   -0.39961E+00   -0.78917E-01  3007   0.184E+00    0.555E+00
RMM:   3    -0.646506666587E+03    0.24266E+00   -0.17426E-01  3085   0.720E-01    0.264E+00
RMM:   4    -0.646296256555E+03    0.21041E+00   -0.10706E-01  3068   0.439E-01    0.164E+00
RMM:   5    -0.646324511751E+03   -0.28255E-01   -0.67488E-02  3014   0.389E-01    0.156E+00
RMM:   6    -0.646367977633E+03   -0.43466E-01   -0.64146E-02  3070   0.343E-01    0.156E+00
RMM:   7    -0.646344412018E+03    0.23566E-01   -0.93979E-03  3106   0.153E-01    0.148E+00
RMM:   8    -0.646353447721E+03   -0.90357E-02   -0.44333E-03  3201   0.760E-02    0.163E+00
RMM:   9    -0.646344472135E+03    0.89756E-02   -0.60290E-03  2952   0.115E-01    0.143E+00
RMM:  10    -0.646362940145E+03   -0.18468E-01   -0.10286E-01  2957   0.440E-01    0.129E+00
RMM:  11    -0.646387907105E+03   -0.24967E-01   -0.21290E-02  3186   0.158E-01    0.128E+00
RMM:  12    -0.646362278379E+03    0.25629E-01   -0.30868E-02  3090   0.208E-01    0.142E+00
RMM:  13    -0.646354674687E+03    0.76037E-02   -0.52900E-03  2881   0.838E-02    0.144E+00
RMM:  14    -0.646354033402E+03    0.64128E-03   -0.16094E-03  2491   0.235E-02    0.145E+00
RMM:  15    -0.646319883185E+03    0.34150E-01   -0.16142E-02  2924   0.161E-01    0.156E+00
RMM:  16    -0.646275421722E+03    0.44461E-01   -0.17590E-02  2963   0.177E-01    0.171E+00
RMM:  17    -0.646379590218E+03   -0.10417E+00   -0.56913E-02  2964   0.315E-01    0.151E+00
RMM:  18    -0.646478840652E+03   -0.99250E-01   -0.32268E-02  3029   0.241E-01    0.223E+00
RMM:  19    -0.646518934660E+03   -0.40094E-01   -0.13108E-02  3106   0.144E-01    0.316E+00
RMM:  20    -0.646554418713E+03   -0.35484E-01   -0.14025E-02  3105   0.155E-01    0.363E+00
RMM:  21    -0.646590027121E+03   -0.35608E-01   -0.21784E-02  3082   0.179E-01    0.431E+00
RMM:  22    -0.646601033326E+03   -0.11006E-01   -0.96417E-03  3262   0.915E-02    0.447E+00
RMM:  23    -0.646597645345E+03    0.33880E-02   -0.14980E-03  2850   0.529E-02    0.407E+00
RMM:  24    -0.646444887812E+03    0.15276E+00   -0.13991E-01  3009   0.534E-01    0.221E+00
RMM:  25    -0.646401047745E+03    0.43840E-01   -0.51152E-02  3125   0.295E-01    0.202E+00
RMM:  26    -0.646108372698E+03    0.29268E+00   -0.15865E-01  3059   0.558E-01    0.250E+00
RMM:  27    -0.646214561844E+03   -0.10619E+00   -0.14435E-02  3201   0.151E-01    0.231E+00
RMM:  28    -0.646260597762E+03   -0.46036E-01   -0.44004E-03  2831   0.814E-02    0.217E+00
RMM:  29    -0.646303394055E+03   -0.42796E-01   -0.37643E-03  2887   0.788E-02    0.201E+00
RMM:  30    -0.646412682626E+03   -0.10929E+00   -0.30087E-02  2947   0.222E-01    0.164E+00
RMM:  31    -0.646532916044E+03   -0.12023E+00   -0.84785E-02  2998   0.345E-01    0.116E+00
RMM:  32    -0.646541399268E+03   -0.84832E-02   -0.15038E-02  3168   0.102E-01    0.116E+00
RMM:  33    -0.646554269309E+03   -0.12870E-01   -0.73780E-03  3042   0.813E-02    0.118E+00
RMM:  34    -0.646577157067E+03   -0.22888E-01   -0.12420E-02  2956   0.106E-01    0.118E+00
RMM:  35    -0.646575284597E+03    0.18725E-02   -0.28280E-03  2577   0.317E-02    0.122E+00
RMM:  36    -0.646572739003E+03    0.25456E-02   -0.19271E-04  1999   0.130E-02    0.123E+00
RMM:  37    -0.646577036585E+03   -0.42976E-02   -0.21494E-04  2229   0.196E-02    0.119E+00
RMM:  38    -0.646556671464E+03    0.20365E-01   -0.33094E-03  2853   0.709E-02    0.127E+00
RMM:  39    -0.646526273821E+03    0.30398E-01   -0.12937E-02  2970   0.120E-01    0.135E+00
RMM:  40    -0.646586159415E+03   -0.59886E-01   -0.19534E-02  2973   0.191E-01    0.916E-01
RMM:  41    -0.646535850992E+03    0.50308E-01   -0.16760E-02  2986   0.158E-01    0.104E+00
RMM:  42    -0.646504451658E+03    0.31399E-01   -0.16172E-02  3002   0.131E-01    0.101E+00
RMM:  43    -0.646488837321E+03    0.15614E-01   -0.42259E-03  2914   0.686E-02    0.103E+00
RMM:  44    -0.646504120151E+03   -0.15283E-01   -0.90310E-04  2253   0.361E-02    0.101E+00
RMM:  45    -0.646515040929E+03   -0.10921E-01   -0.12036E-03  2669   0.416E-02    0.103E+00
RMM:  46    -0.646558185327E+03   -0.43144E-01   -0.16777E-02  2984   0.142E-01    0.958E-01
RMM:  47    -0.646580308188E+03   -0.22123E-01   -0.11195E-02  3018   0.104E-01    0.992E-01
RMM:  48    -0.646615063580E+03   -0.34755E-01   -0.27956E-02  3004   0.162E-01    0.105E+00
RMM:  49    -0.646592686518E+03    0.22377E-01   -0.57748E-03  2833   0.915E-02    0.107E+00
RMM:  50    -0.646590445052E+03    0.22415E-02   -0.42723E-04  2133   0.198E-02
   2 F= -.65299477E+03 E0= -.65298365E+03  d E =-.255328E+00  mag=     0.7183
       N       E                     dE             d eps       ncg     rms          rms(c)
DAV:   1    -0.646578959352E+03    0.13727E-01   -0.71542E-02  3272   0.726E-01    0.106E+00
RMM:   2    -0.646632611380E+03   -0.53652E-01   -0.76214E-02  2983   0.342E-01    0.143E+00
RMM:   3    -0.646626790799E+03    0.58206E-02   -0.19930E-02  3098   0.192E-01    0.117E+00
RMM:   4    -0.646626117551E+03    0.67325E-03   -0.32993E-03  3124   0.577E-02    0.123E+00
RMM:   5    -0.646596776255E+03    0.29341E-01   -0.17955E-02  2970   0.190E-01    0.134E+00
RMM:   6    -0.646600105646E+03   -0.33294E-02   -0.64098E-03  3063   0.113E-01    0.138E+00
RMM:   7    -0.646599925968E+03    0.17968E-03   -0.32694E-03  2972   0.823E-02    0.160E+00
RMM:   8    -0.646607704159E+03   -0.77782E-02   -0.17734E-03  2934   0.619E-02    0.172E+00
RMM:   9    -0.646623039224E+03   -0.15335E-01   -0.45815E-03  2963   0.893E-02    0.176E+00
RMM:  10    -0.646634125328E+03   -0.11086E-01   -0.44083E-03  3012   0.747E-02    0.178E+00
RMM:  11    -0.646643359314E+03   -0.92340E-02   -0.31091E-03  3008   0.641E-02    0.189E+00
RMM:  12    -0.646625331741E+03    0.18028E-01   -0.29965E-03  2902   0.777E-02    0.173E+00
RMM:  13    -0.646623108208E+03    0.22235E-02   -0.45043E-04  2348   0.281E-02    0.169E+00
RMM:  14    -0.646602129985E+03    0.20978E-01   -0.51391E-03  2963   0.931E-02    0.154E+00
RMM:  15    -0.646453208098E+03    0.14892E+00   -0.12389E-01  2980   0.447E-01    0.145E+00
RMM:  16    -0.646477023624E+03   -0.23816E-01   -0.92934E-03  3292   0.121E-01    0.138E+00
RMM:  17    -0.646476774746E+03    0.24888E-03   -0.21669E-03  2671   0.344E-02    0.135E+00
RMM:  18    -0.646454736373E+03    0.22038E-01   -0.26026E-03  2796   0.664E-02    0.139E+00
RMM:  19    -0.646466046721E+03   -0.11310E-01   -0.46537E-04  2347   0.307E-02    0.132E+00
RMM:  20    -0.646456187905E+03    0.98588E-02   -0.42942E-04  2371   0.282E-02    0.130E+00
RMM:  21    -0.646454331912E+03    0.18560E-02   -0.15288E-04  2046   0.127E-02    0.130E+00
RMM:  22    -0.646446871386E+03    0.74605E-02   -0.25701E-04  2091   0.213E-02    0.131E+00
RMM:  23    -0.646434564978E+03    0.12306E-01   -0.88037E-04  2270   0.347E-02    0.133E+00
RMM:  24    -0.646446616490E+03   -0.12052E-01   -0.11429E-03  2707   0.442E-02    0.129E+00
RMM:  25    -0.646450741241E+03   -0.41248E-02   -0.19342E-04  2127   0.174E-02    0.129E+00
RMM:  26    -0.646451433183E+03   -0.69194E-03   -0.26849E-04  2478   0.221E-02    0.131E+00
RMM:  27    -0.646439957809E+03    0.11475E-01   -0.40602E-04  2238   0.290E-02    0.134E+00
RMM:  28    -0.646503368928E+03   -0.63411E-01   -0.15437E-02  2963   0.156E-01    0.119E+00
RMM:  29    -0.646551455588E+03   -0.48087E-01   -0.17784E-02  3005   0.155E-01    0.110E+00
RMM:  30    -0.646567769200E+03   -0.16314E-01   -0.68473E-03  3078   0.854E-02    0.115E+00
RMM:  31    -0.646579758890E+03   -0.11990E-01   -0.43626E-03  3049   0.623E-02    0.121E+00
RMM:  32    -0.646596861255E+03   -0.17102E-01   -0.42572E-03  3011   0.737E-02    0.128E+00
RMM:  33    -0.646591407962E+03    0.54533E-02   -0.73502E-04  2319   0.317E-02    0.124E+00
RMM:  34    -0.646566414704E+03    0.24993E-01   -0.47443E-03  2944   0.951E-02    0.124E+00
RMM:  35    -0.646551022076E+03    0.15393E-01   -0.37922E-03  2961   0.781E-02    0.128E+00
RMM:  36    -0.646531648286E+03    0.19374E-01   -0.55020E-03  3013   0.968E-02    0.136E+00
RMM:  37    -0.646572373384E+03   -0.40725E-01   -0.75389E-03  2949   0.120E-01    0.120E+00
RMM:  38    -0.646602963198E+03   -0.30590E-01   -0.12479E-02  2966   0.129E-01    0.112E+00
RMM:  39    -0.646633090283E+03   -0.30127E-01   -0.20629E-02  3001   0.147E-01    0.117E+00
RMM:  40    -0.646646567229E+03   -0.13477E-01   -0.83267E-03  3068   0.905E-02    0.127E+00
RMM:  41    -0.646644602228E+03    0.19650E-02   -0.20481E-03  2547   0.414E-02    0.130E+00
RMM:  42    -0.646644684708E+03   -0.82480E-04   -0.42674E-04  2195   0.172E-02    0.130E+00
RMM:  43    -0.646650695633E+03   -0.60109E-02   -0.50803E-04  2593   0.280E-02    0.134E+00
RMM:  44    -0.646650325655E+03    0.36998E-03   -0.19254E-04  2114   0.142E-02    0.136E+00
RMM:  45    -0.646648331823E+03    0.19938E-02   -0.48944E-05  1863   0.107E-02    0.136E+00
RMM:  46    -0.646636835387E+03    0.11496E-01   -0.16971E-03  2711   0.451E-02    0.131E+00
RMM:  47    -0.646635250697E+03    0.15847E-02   -0.54578E-04  2218   0.243E-02    0.129E+00
RMM:  48    -0.646636491530E+03   -0.12408E-02   -0.62983E-05  1871   0.103E-02    0.128E+00
RMM:  49    -0.646641562801E+03   -0.50713E-02   -0.27665E-04  2085   0.199E-02    0.130E+00
RMM:  50    -0.646641764452E+03   -0.20165E-03   -0.32105E-05  1843   0.767E-03
   3 F= -.65304556E+03 E0= -.65303357E+03  d E =-.306117E+00  mag=     0.8449
       N       E                     dE             d eps       ncg     rms          rms(c)
DAV:   1    -0.646654700585E+03   -0.13138E-01   -0.90592E-01  3144   0.274E+00    0.121E+00
RMM:   2    -0.646717957817E+03   -0.63257E-01   -0.13662E-01  2999   0.650E-01    0.262E+00
RMM:   3    -0.646694185282E+03    0.23773E-01   -0.17918E-02  3339   0.215E-01    0.195E+00
RMM:   4    -0.646613060902E+03    0.81124E-01   -0.43209E-02  2964   0.302E-01    0.131E+00
RMM:   5    -0.646514820158E+03    0.98241E-01   -0.59759E-02  2984   0.335E-01    0.115E+00
RMM:   6    -0.646465135161E+03    0.49685E-01   -0.44112E-02  3054   0.253E-01    0.125E+00
RMM:   7    -0.646483871197E+03   -0.18736E-01   -0.65052E-03  3133   0.109E-01    0.120E+00
RMM:   8    -0.646628413316E+03   -0.14454E+00   -0.12734E-01  2987   0.411E-01    0.119E+00
RMM:   9    -0.646745267590E+03   -0.11685E+00   -0.10448E-01  3031   0.392E-01    0.209E+00
RMM:  10    -0.646238701693E+03    0.50657E+00   -0.51832E-01  2996   0.104E+00    0.181E+00
RMM:  11    -0.644121307283E+03    0.21174E+01   -0.16541E+00  3043   0.182E+00    0.532E+00
RMM:  12    -0.644938120497E+03   -0.81681E+00   -0.11953E-01  3231   0.506E-01    0.421E+00
RMM:  13    -0.645423723950E+03   -0.48560E+00   -0.63911E-02  2965   0.349E-01    0.342E+00
RMM:  14    -0.645291228110E+03    0.13250E+00   -0.22300E-02  3152   0.197E-01    0.378E+00
RMM:  15    -0.646074292345E+03   -0.78306E+00   -0.22701E-01  2969   0.624E-01    0.235E+00
RMM:  16    -0.646365764703E+03   -0.29147E+00   -0.11682E-01  3008   0.423E-01    0.188E+00
RMM:  17    -0.646479528889E+03   -0.11376E+00   -0.72595E-02  3113   0.303E-01    0.168E+00
RMM:  18    -0.646377884663E+03    0.10164E+00   -0.27344E-02  3023   0.233E-01    0.199E+00
RMM:  19    -0.646347102706E+03    0.30782E-01   -0.55971E-03  3078   0.999E-02    0.212E+00
RMM:  20    -0.646518487825E+03   -0.17139E+00   -0.78484E-02  2982   0.335E-01    0.198E+00
RMM:  21    -0.646609134236E+03   -0.90646E-01   -0.14432E-01  3052   0.335E-01    0.203E+00
RMM:  22    -0.646621903446E+03   -0.12769E-01   -0.40859E-02  3198   0.108E-01    0.221E+00
RMM:  23    -0.646633238230E+03   -0.11335E-01   -0.14329E-02  3134   0.104E-01    0.205E+00
RMM:  24    -0.646651789773E+03   -0.18552E-01   -0.12064E-02  3031   0.107E-01    0.211E+00
RMM:  25    -0.646659205581E+03   -0.74158E-02   -0.19126E-02  3052   0.175E-01    0.159E+00
RMM:  26    -0.646682007056E+03   -0.22801E-01   -0.20546E-02  3095   0.173E-01    0.159E+00
RMM:  27    -0.646696608112E+03   -0.14601E-01   -0.10291E-02  3171   0.956E-02    0.191E+00
RMM:  28    -0.646695310586E+03    0.12975E-02   -0.45766E-03  3074   0.830E-02    0.180E+00
RMM:  29    -0.646697280520E+03   -0.19699E-02   -0.29624E-03  3084   0.668E-02    0.177E+00
RMM:  30    -0.646707202464E+03   -0.99219E-02   -0.37989E-03  3055   0.826E-02    0.183E+00
RMM:  31    -0.646729100447E+03   -0.21898E-01   -0.41558E-03  3044   0.864E-02    0.197E+00
RMM:  32    -0.646709406212E+03    0.19694E-01   -0.16530E-03  2901   0.601E-02    0.204E+00
RMM:  33    -0.646704674597E+03    0.47316E-02   -0.44307E-04  2470   0.300E-02    0.202E+00
RMM:  34    -0.646721061487E+03   -0.16387E-01   -0.14927E-03  2940   0.540E-02    0.201E+00
RMM:  35    -0.646655285583E+03    0.65776E-01   -0.16762E-02  2998   0.186E-01    0.170E+00
RMM:  36    -0.646664529601E+03   -0.92440E-02   -0.37502E-03  3125   0.823E-02    0.148E+00
RMM:  37    -0.646685510715E+03   -0.20981E-01   -0.25627E-03  2823   0.694E-02    0.157E+00
RMM:  38    -0.646680728626E+03    0.47821E-02   -0.21357E-04  2198   0.214E-02    0.154E+00
RMM:  39    -0.646638029057E+03    0.42700E-01   -0.16291E-02  2969   0.152E-01    0.124E+00
RMM:  40    -0.646575477707E+03    0.62551E-01   -0.45405E-02  3013   0.256E-01    0.107E+00
RMM:  41    -0.646318212517E+03    0.25727E+00   -0.24772E-01  3019   0.628E-01    0.115E+00
RMM:  42    -0.646187234200E+03    0.13098E+00   -0.58661E-02  3132   0.291E-01    0.138E+00
RMM:  43    -0.646099906915E+03    0.87327E-01   -0.20813E-02  3197   0.163E-01    0.155E+00
RMM:  44    -0.646099265626E+03    0.64129E-03   -0.40775E-03  3093   0.510E-02    0.155E+00
RMM:  45    -0.646162097079E+03   -0.62831E-01   -0.31219E-03  2834   0.798E-02    0.142E+00
RMM:  46    -0.646248346399E+03   -0.86249E-01   -0.99787E-03  2977   0.130E-01    0.130E+00
RMM:  47    -0.646442359542E+03   -0.19401E+00   -0.85399E-02  3003   0.346E-01    0.928E-01
RMM:  48    -0.646565409085E+03   -0.12305E+00   -0.10070E-01  3051   0.337E-01    0.681E-01
RMM:  49    -0.646603805159E+03   -0.38396E-01   -0.43265E-02  3118   0.185E-01    0.725E-01
RMM:  50    -0.646598159486E+03    0.56457E-02   -0.10001E-02  3181   0.631E-02
   4 F= -.65299983E+03 E0= -.65298750E+03  d E =-.260385E+00  mag=     0.6586
       N       E                     dE             d eps       ncg     rms          rms(c)
DAV:   1    -0.646586637048E+03    0.17168E-01   -0.68128E+00  3320   0.856E+00    0.134E+00
RMM:   2    -0.646668042199E+03   -0.81405E-01   -0.52764E-01  3016   0.130E+00    0.153E+00
RMM:   3    -0.646663391421E+03    0.46508E-02   -0.74070E-02  3163   0.445E-01    0.173E+00
RMM:   4    -0.646650632269E+03    0.12759E-01   -0.13787E-02  3367   0.160E-01    0.134E+00
RMM:   5    -0.646641375413E+03    0.92569E-02   -0.20249E-02  2980   0.216E-01    0.135E+00
RMM:   6    -0.646644402710E+03   -0.30273E-02   -0.24826E-03  3205   0.705E-02    0.131E+00
RMM:   7    -0.646631496728E+03    0.12906E-01   -0.87820E-03  2972   0.169E-01    0.132E+00
RMM:   8    -0.646593495756E+03    0.38001E-01   -0.17859E-02  2989   0.253E-01    0.147E+00
RMM:   9    -0.646448123869E+03    0.14537E+00   -0.11851E-01  2978   0.507E-01    0.222E+00
RMM:  10    -0.646592832539E+03   -0.14471E+00   -0.60219E-02  3018   0.294E-01    0.170E+00
RMM:  11    -0.646613274280E+03   -0.20442E-01   -0.44822E-03  3030   0.102E-01    0.160E+00
RMM:  12    -0.646683092772E+03   -0.69818E-01   -0.71442E-02  2982   0.382E-01    0.170E+00
RMM:  13    -0.646722325485E+03   -0.39233E-01   -0.43752E-02  3110   0.254E-01    0.208E+00
RMM:  14    -0.646691463814E+03    0.30862E-01   -0.56512E-03  2951   0.129E-01    0.207E+00
RMM:  15    -0.646696405415E+03   -0.49416E-02   -0.95520E-04  2661   0.286E-02    0.206E+00
RMM:  16    -0.646696828015E+03   -0.42260E-03   -0.40752E-04  2237   0.158E-02    0.208E+00
RMM:  17    -0.646704206932E+03   -0.73789E-02   -0.65870E-04  2757   0.353E-02    0.212E+00
RMM:  18    -0.646709221180E+03   -0.50142E-02   -0.91724E-04  2987   0.429E-02    0.220E+00
RMM:  19    -0.646685352028E+03    0.23869E-01   -0.23311E-03  2919   0.705E-02    0.211E+00
RMM:  20    -0.646620878088E+03    0.64474E-01   -0.34053E-02  2958   0.246E-01    0.156E+00
RMM:  21    -0.646634028456E+03   -0.13150E-01   -0.69303E-03  3158   0.102E-01    0.139E+00
RMM:  22    -0.646540416256E+03    0.93612E-01   -0.61928E-02  3023   0.338E-01    0.165E+00
RMM:  23    -0.646017507388E+03    0.52291E+00   -0.43883E-01  3028   0.891E-01    0.268E+00
RMM:  24    -0.646147698421E+03   -0.13019E+00   -0.24229E-02  3360   0.179E-01    0.243E+00
RMM:  25    -0.646044766595E+03    0.10293E+00   -0.11360E-02  3133   0.132E-01    0.259E+00
RMM:  26    -0.646093321103E+03   -0.48555E-01   -0.23834E-03  2856   0.571E-02    0.249E+00
RMM:  27    -0.646154340029E+03   -0.61019E-01   -0.29760E-03  2803   0.736E-02    0.245E+00
RMM:  28    -0.645947151929E+03    0.20719E+00   -0.27335E-02  2950   0.230E-01    0.290E+00
RMM:  29    -0.645974706515E+03   -0.27555E-01   -0.14938E-03  2614   0.425E-02    0.285E+00
RMM:  30    -0.645992834540E+03   -0.18128E-01   -0.38298E-04  2109   0.220E-02    0.283E+00
RMM:  31    -0.646037122165E+03   -0.44288E-01   -0.13216E-03  2436   0.521E-02    0.273E+00
RMM:  32    -0.646257251419E+03   -0.22013E+00   -0.46591E-02  2953   0.278E-01    0.219E+00
RMM:  33    -0.646465147120E+03   -0.20790E+00   -0.95524E-02  2979   0.374E-01    0.156E+00
RMM:  34    -0.646507670528E+03   -0.42523E-01   -0.25669E-02  3100   0.151E-01    0.146E+00
RMM:  35    -0.646585667279E+03   -0.77997E-01   -0.49597E-02  2986   0.242E-01    0.120E+00
RMM:  36    -0.646605641900E+03   -0.19975E-01   -0.21642E-02  3105   0.126E-01    0.119E+00
RMM:  37    -0.646651077807E+03   -0.45436E-01   -0.42422E-02  2988   0.200E-01    0.106E+00
RMM:  38    -0.646670620709E+03   -0.19543E-01   -0.27987E-02  3076   0.124E-01    0.114E+00
RMM:  39    -0.646665947911E+03    0.46728E-02   -0.67024E-03  2672   0.485E-02    0.120E+00
RMM:  40    -0.646662241636E+03    0.37063E-02   -0.86999E-04  2152   0.262E-02    0.123E+00
RMM:  41    -0.646639618820E+03    0.22623E-01   -0.50275E-03  2943   0.860E-02    0.126E+00
RMM:  42    -0.646645863495E+03   -0.62447E-02   -0.26770E-04  2311   0.229E-02    0.125E+00
RMM:  43    -0.646634067812E+03    0.11796E-01   -0.19205E-03  2834   0.490E-02    0.128E+00
RMM:  44    -0.646626110930E+03    0.79569E-02   -0.18626E-03  2652   0.457E-02    0.130E+00
RMM:  45    -0.646621553773E+03    0.45572E-02   -0.11108E-03  2358   0.323E-02    0.130E+00
RMM:  46    -0.646625418656E+03   -0.38649E-02   -0.18127E-04  2037   0.155E-02    0.129E+00
RMM:  47    -0.646649390245E+03   -0.23972E-01   -0.51477E-03  2972   0.939E-02    0.128E+00
RMM:  48    -0.646645174846E+03    0.42154E-02   -0.36853E-04  2313   0.263E-02    0.131E+00
RMM:  49    -0.646645705308E+03   -0.53046E-03   -0.24044E-04  2142   0.189E-02    0.135E+00
RMM:  50    -0.646642066291E+03    0.36390E-02   -0.39934E-04  2442   0.290E-02
   5 F= -.65304793E+03 E0= -.65303750E+03  d E =-.480994E-01  mag=     0.7626
       N       E                     dE             d eps       ncg     rms          rms(c)
DAV:   1    -0.646645741813E+03   -0.36505E-04   -0.52584E-02  3536   0.750E-01    0.138E+00
RMM:   2    -0.646729503086E+03   -0.83761E-01   -0.13114E-01  3050   0.492E-01    0.285E+00
RMM:   3    -0.646682218764E+03    0.47284E-01   -0.51573E-02  3124   0.330E-01    0.134E+00
RMM:   4    -0.646678522739E+03    0.36960E-02   -0.10507E-02  3202   0.115E-01    0.148E+00
RMM:   5    -0.646540924598E+03    0.13760E+00   -0.10336E-01  2954   0.475E-01    0.159E+00
RMM:   6    -0.646413314909E+03    0.12761E+00   -0.12571E-01  2979   0.446E-01    0.173E+00
RMM:   7    -0.646565951073E+03   -0.15264E+00   -0.61136E-02  2995   0.296E-01    0.138E+00
RMM:   8    -0.646696551391E+03   -0.13060E+00   -0.15010E-01  3016   0.466E-01    0.166E+00
RMM:   9    -0.646848655179E+03   -0.15210E+00   -0.27387E-01  3006   0.668E-01    0.258E+00
RMM:  10    -0.646811821381E+03    0.36834E-01   -0.23433E-02  3045   0.244E-01    0.271E+00
RMM:  11    -0.646755848811E+03    0.55973E-01   -0.99399E-03  2964   0.146E-01    0.232E+00
RMM:  12    -0.646822158826E+03   -0.66310E-01   -0.37903E-02  2988   0.261E-01    0.217E+00
RMM:  13    -0.646817793043E+03    0.43658E-02   -0.18586E-02  3189   0.149E-01    0.196E+00
RMM:  14    -0.646859152288E+03   -0.41359E-01   -0.24021E-02  3067   0.202E-01    0.148E+00
RMM:  15    -0.646908780401E+03   -0.49628E-01   -0.46891E-02  3060   0.289E-01    0.724E-01
RMM:  16    -0.646910579363E+03   -0.17990E-02   -0.78088E-03  2996   0.133E-01    0.106E+00
RMM:  17    -0.646937374004E+03   -0.26795E-01   -0.86303E-03  3105   0.121E-01    0.679E-01
RMM:  18    -0.646954107729E+03   -0.16734E-01   -0.12432E-02  3110   0.143E-01    0.264E-01
RMM:  19    -0.646958062542E+03   -0.39548E-02   -0.28224E-03  2971   0.813E-02    0.501E-01
RMM:  20    -0.646963467181E+03   -0.54046E-02   -0.18074E-03  3066   0.562E-02    0.303E-01
RMM:  21    -0.646963250717E+03    0.21646E-03   -0.52151E-04  2613   0.217E-02    0.310E-01
RMM:  22    -0.646968571645E+03   -0.53209E-02   -0.66381E-03  2994   0.119E-01    0.204E-01
RMM:  23    -0.646969124821E+03   -0.55318E-03   -0.11981E-03  2857   0.375E-02    0.224E-01
RMM:  24    -0.646970595752E+03   -0.14709E-02   -0.28529E-04  2366   0.275E-02    0.135E-01
RMM:  25    -0.646971097654E+03   -0.50190E-03   -0.87289E-05  2108   0.106E-02    0.101E-01
RMM:  26    -0.646971137487E+03   -0.39834E-04   -0.38146E-05  1906   0.826E-03    0.100E-01
RMM:  27    -0.646971130471E+03    0.70164E-05   -0.20115E-05  1852   0.544E-03
   6 F= -.65337665E+03 E0= -.65336003E+03  d E =-.376827E+00  mag=     1.6165
       N       E                     dE             d eps       ncg     rms          rms(c)
DAV:   1    -0.646980739673E+03   -0.96022E-02   -0.98628E-01  3456   0.327E+00    0.331E-01
RMM:   2    -0.646985636305E+03   -0.48966E-02   -0.63608E-02  3063   0.477E-01    0.182E-01
RMM:   3    -0.646984425546E+03    0.12108E-02   -0.35272E-03  3304   0.118E-01    0.174E-01
RMM:   4    -0.646984103710E+03    0.32184E-03   -0.70188E-04  3103   0.485E-02    0.107E-01
RMM:   5    -0.646983914939E+03    0.18877E-03   -0.28184E-04  3020   0.315E-02    0.669E-02
RMM:   6    -0.646984313604E+03   -0.39867E-03   -0.90642E-05  2171   0.211E-02    0.152E-02
RMM:   7    -0.646984813060E+03   -0.49946E-03   -0.18240E-05  1890   0.875E-03    0.888E-03
RMM:   8    -0.646985135062E+03   -0.32200E-03   -0.93422E-06  1794   0.533E-03    0.531E-03
RMM:   9    -0.646985431958E+03   -0.29690E-03   -0.12066E-05  1812   0.445E-03    0.280E-03
RMM:  10    -0.646985533304E+03   -0.10135E-03   -0.48819E-06  1249   0.290E-03    0.146E-03
RMM:  11    -0.646985561358E+03   -0.28054E-04   -0.15423E-06  1078   0.213E-03    0.825E-04
RMM:  12    -0.646985575750E+03   -0.14392E-04   -0.13278E-06  1022   0.192E-03    0.511E-04
RMM:  13    -0.646985579948E+03   -0.41984E-05   -0.41540E-07   705   0.162E-03
   7 F= -.65338958E+03 E0= -.65337338E+03  d E =-.389754E+00  mag=     1.6880
       N       E                     dE             d eps       ncg     rms          rms(c)
DAV:   1    -0.646987184430E+03   -0.16087E-02   -0.19236E-01  3368   0.144E+00    0.155E-01
RMM:   2    -0.646988035028E+03   -0.85060E-03   -0.12336E-02  3064   0.210E-01    0.802E-02
RMM:   3    -0.646987717272E+03    0.31776E-03   -0.68482E-04  3280   0.521E-02    0.741E-02
RMM:   4    -0.646987613793E+03    0.10348E-03   -0.15562E-04  2257   0.226E-02    0.488E-02
RMM:   5    -0.646987541943E+03    0.71850E-04   -0.61240E-05  2141   0.156E-02    0.302E-02
RMM:   6    -0.646987655035E+03   -0.11309E-03   -0.20539E-05  1860   0.113E-02    0.755E-03
RMM:   7    -0.646987839351E+03   -0.18432E-03   -0.61230E-06  1771   0.539E-03    0.435E-03
RMM:   8    -0.646987962539E+03   -0.12319E-03   -0.39564E-06  1593   0.327E-03    0.272E-03
RMM:   9    -0.646988083806E+03   -0.12127E-03   -0.51255E-06  1308   0.276E-03    0.152E-03
RMM:  10    -0.646988118747E+03   -0.34941E-04   -0.17903E-06  1087   0.206E-03    0.793E-04
RMM:  11    -0.646988128641E+03   -0.98934E-05   -0.59074E-07   803   0.167E-03
   8 F= -.65339142E+03 E0= -.65337559E+03  d E =-.391595E+00  mag=     1.7220
       N       E                     dE             d eps       ncg     rms          rms(c)
DAV:   1    -0.646978600682E+03    0.95181E-02   -0.45320E+00  3392   0.662E+00    0.628E-01
RMM:   2    -0.646991403633E+03   -0.12803E-01   -0.18907E-01  3015   0.983E-01    0.411E-01
RMM:   3    -0.646988474137E+03    0.29295E-02   -0.15715E-02  3293   0.267E-01    0.505E-01
RMM:   4    -0.646985625427E+03    0.28487E-02   -0.46707E-03  3163   0.131E-01    0.192E-01
RMM:   5    -0.646985002384E+03    0.62304E-03   -0.13813E-03  2998   0.739E-02    0.838E-02
RMM:   6    -0.646986168384E+03   -0.11660E-02   -0.22613E-04  2984   0.336E-02    0.292E-02
RMM:   7    -0.646987160073E+03   -0.99169E-03   -0.61791E-05  2126   0.129E-02    0.150E-02
RMM:   8    -0.646987801759E+03   -0.64169E-03   -0.27613E-05  1958   0.836E-03    0.817E-03
RMM:   9    -0.646988141488E+03   -0.33973E-03   -0.16445E-05  1855   0.574E-03    0.328E-03
RMM:  10    -0.646988257535E+03   -0.11605E-03   -0.52752E-06  1446   0.338E-03    0.199E-03
RMM:  11    -0.646988330579E+03   -0.73045E-04   -0.33220E-06  1274   0.270E-03    0.102E-03
RMM:  12    -0.646988358327E+03   -0.27748E-04   -0.20835E-06  1175   0.232E-03    0.815E-04
RMM:  13    -0.646988365577E+03   -0.72500E-05   -0.77036E-07   941   0.182E-03
   9 F= -.65338923E+03 E0= -.65337521E+03  d E =0.219600E-02  mag=     1.8139
       N       E                     dE             d eps       ncg     rms          rms(c)
DAV:   1    -0.646999506007E+03   -0.11148E-01   -0.12212E+00  3392   0.344E+00    0.329E-01
RMM:   2    -0.647002577522E+03   -0.30715E-02   -0.51419E-02  3009   0.510E-01    0.221E-01
RMM:   3    -0.647001664272E+03    0.91325E-03   -0.44361E-03  3268   0.141E-01    0.272E-01
RMM:   4    -0.647000706867E+03    0.95741E-03   -0.12854E-03  3115   0.699E-02    0.964E-02
RMM:   5    -0.647000720937E+03   -0.14070E-04   -0.39994E-04  2979   0.397E-02    0.423E-02
RMM:   6    -0.647001300777E+03   -0.57984E-03   -0.66825E-05  2153   0.181E-02    0.156E-02
RMM:   7    -0.647001720874E+03   -0.42010E-03   -0.19977E-05  1902   0.884E-03    0.710E-03
RMM:   8    -0.647001964019E+03   -0.24315E-03   -0.85863E-06  1803   0.556E-03    0.424E-03
RMM:   9    -0.647002097634E+03   -0.13361E-03   -0.52070E-06  1710   0.375E-03    0.185E-03
RMM:  10    -0.647002139355E+03   -0.41721E-04   -0.17880E-06  1172   0.230E-03    0.113E-03
RMM:  11    -0.647002166255E+03   -0.26900E-04   -0.13508E-06  1054   0.196E-03    0.674E-04
RMM:  12    -0.647002173651E+03   -0.73964E-05   -0.57089E-07   804   0.167E-03
  10 F= -.65340437E+03 E0= -.65338933E+03  d E =-.129461E-01  mag=     1.7679
       N       E                     dE             d eps       ncg     rms          rms(c)
DAV:   1    -0.647009918792E+03   -0.77525E-02   -0.67195E-01  3040   0.216E+00    0.352E-01
RMM:   2    -0.647011294632E+03   -0.13758E-02   -0.20275E-02  2981   0.339E-01    0.398E-01
RMM:   3    -0.647009725027E+03    0.15696E-02   -0.49974E-03  3106   0.132E-01    0.255E-01
RMM:   4    -0.647008295550E+03    0.14295E-02   -0.11833E-03  3029   0.679E-02    0.781E-02
RMM:   5    -0.647008271127E+03    0.24423E-04   -0.25991E-04  2961   0.332E-02    0.248E-02
RMM:   6    -0.647008907755E+03   -0.63663E-03   -0.36246E-05  2012   0.113E-02    0.141E-02
RMM:   7    -0.647009359376E+03   -0.45162E-03   -0.19697E-05  1855   0.724E-03    0.687E-03
RMM:   8    -0.647009628975E+03   -0.26960E-03   -0.10320E-05  1792   0.468E-03    0.404E-03
RMM:   9    -0.647009844064E+03   -0.21509E-03   -0.94157E-06  1426   0.348E-03    0.188E-03
RMM:  10    -0.647009898605E+03   -0.54540E-04   -0.32578E-06  1269   0.245E-03    0.122E-03
RMM:  11    -0.647009930890E+03   -0.32285E-04   -0.20185E-06  1084   0.211E-03    0.675E-04
RMM:  12    -0.647009936226E+03   -0.53365E-05   -0.76275E-07   895   0.172E-03
  11 F= -.65341017E+03 E0= -.65339629E+03  d E =-.580654E-02  mag=     1.8273
       N       E                     dE             d eps       ncg     rms          rms(c)
DAV:   1    -0.647009820985E+03    0.10990E-03   -0.15400E-02  3192   0.327E-01    0.534E-02
RMM:   2    -0.647009822330E+03   -0.13449E-05   -0.46902E-04  2982   0.515E-02    0.613E-02
RMM:   3    -0.647009774687E+03    0.47643E-04   -0.11055E-04  2127   0.201E-02    0.389E-02
RMM:   4    -0.647009719477E+03    0.55210E-04   -0.26484E-05  1860   0.122E-02    0.110E-02
RMM:   5    -0.647009729591E+03   -0.10114E-04   -0.78494E-06  1750   0.687E-03    0.426E-03
RMM:   6    -0.647009768175E+03   -0.38584E-04   -0.16395E-06  1699   0.359E-03    0.215E-03
RMM:   7    -0.647009805846E+03   -0.37671E-04   -0.94034E-07  1110   0.212E-03    0.917E-04
RMM:   8    -0.647009820880E+03   -0.15034E-04   -0.34264E-07   816   0.165E-03    0.512E-04
RMM:   9    -0.647009832098E+03   -0.11217E-04   -0.17130E-07   637   0.152E-03    0.219E-04
RMM:  10    -0.647009835562E+03   -0.34642E-05   -0.12805E-07   591   0.149E-03
  12 F= -.65341038E+03 E0= -.65339631E+03  d E =-.601184E-02  mag=     1.8190
       N       E                     dE             d eps       ncg     rms          rms(c)
DAV:   1    -0.647012149832E+03   -0.23177E-02   -0.28493E-01  3168   0.162E+00    0.153E-01
RMM:   2    -0.647012887084E+03   -0.73725E-03   -0.11128E-02  3040   0.232E-01    0.105E-01
RMM:   3    -0.647012691783E+03    0.19530E-03   -0.90010E-04  3404   0.595E-02    0.976E-02
RMM:   4    -0.647012540102E+03    0.15168E-03   -0.27607E-04  2763   0.288E-02    0.651E-02
RMM:   5    -0.647012452474E+03    0.87627E-04   -0.87458E-05  2502   0.191E-02    0.205E-02
RMM:   6    -0.647012570995E+03   -0.11852E-03   -0.13344E-05  1829   0.923E-03    0.715E-03
RMM:   7    -0.647012719763E+03   -0.14877E-03   -0.56367E-06  1772   0.496E-03    0.403E-03
RMM:   8    -0.647012809948E+03   -0.90185E-04   -0.33057E-06  1570   0.319E-03    0.219E-03
RMM:   9    -0.647012882179E+03   -0.72231E-04   -0.25632E-06  1188   0.229E-03    0.130E-03
RMM:  10    -0.647012919150E+03   -0.36971E-04   -0.16986E-06  1093   0.197E-03    0.602E-04
RMM:  11    -0.647012927325E+03   -0.81748E-05   -0.48715E-07   729   0.160E-03
  13 F= -.65341294E+03 E0= -.65339952E+03  d E =-.256473E-02  mag=     1.8451
       N       E                     dE             d eps       ncg     rms          rms(c)
DAV:   1    -0.647013096296E+03   -0.17715E-03   -0.13275E-02  3312   0.349E-01    0.329E-02
RMM:   2    -0.647013117164E+03   -0.20869E-04   -0.51670E-04  3040   0.500E-02    0.218E-02
RMM:   3    -0.647013105370E+03    0.11794E-04   -0.36854E-05  1942   0.127E-02    0.201E-02
RMM:   4    -0.647013097763E+03    0.76073E-05   -0.13659E-05  1838   0.825E-03
  14 F= -.65341300E+03 E0= -.65339970E+03  d E =-.261837E-02  mag=     1.8483
       N       E                     dE             d eps       ncg     rms          rms(c)
DAV:   1    -0.647013215859E+03   -0.11049E-03   -0.19698E-01  3368   0.148E+00    0.146E-01
RMM:   2    -0.647014440129E+03   -0.12243E-02   -0.14054E-02  3039   0.208E-01    0.169E-01
RMM:   3    -0.647014029698E+03    0.41043E-03   -0.12064E-03  3306   0.640E-02    0.897E-02
RMM:   4    -0.647013923939E+03    0.10576E-03   -0.11748E-04  2346   0.215E-02    0.397E-02
RMM:   5    -0.647013907779E+03    0.16160E-04   -0.43071E-05  2050   0.138E-02    0.200E-02
RMM:   6    -0.647013991243E+03   -0.83464E-04   -0.15596E-05  1805   0.967E-03    0.592E-03
RMM:   7    -0.647014082482E+03   -0.91239E-04   -0.39123E-06  1749   0.487E-03    0.337E-03
RMM:   8    -0.647014147297E+03   -0.64815E-04   -0.22580E-06  1482   0.297E-03    0.209E-03
RMM:   9    -0.647014182946E+03   -0.35649E-04   -0.11268E-06  1107   0.206E-03    0.118E-03
RMM:  10    -0.647014205022E+03   -0.22076E-04   -0.82800E-07   922   0.177E-03    0.489E-04
RMM:  11    -0.647014210768E+03   -0.57464E-05   -0.36680E-07   691   0.153E-03
  15 F= -.65341426E+03 E0= -.65340141E+03  d E =-.125858E-02  mag=     1.8687
