  71  71   0   0
  0.4003955E+02  0.1486116E-08  0.1476102E-08  0.1500000E-08  0.3000000E-15
  1.000000000000000E-004
  CAR 
 unknown system                          
      5.29218718    -48.59627345  301     -2.06686942      1.00000000
    -48.596  0.0000E+00  0.0000E+00  0.0000E+00  0.0000E+00
    -48.417  0.0000E+00  0.0000E+00  0.0000E+00  0.0000E+00
    -48.237  0.0000E+00  0.0000E+00  0.0000E+00  0.0000E+00
    -48.057  0.0000E+00  0.0000E+00  0.0000E+00  0.0000E+00
    -47.878  0.0000E+00  0.0000E+00  0.0000E+00  0.0000E+00
    -47.698  0.0000E+00  0.0000E+00  0.0000E+00  0.0000E+00
    -47.519  0.0000E+00  0.0000E+00  0.0000E+00  0.0000E+00
    -47.339  0.0000E+00  0.0000E+00  0.0000E+00  0.0000E+00
    -47.159  0.0000E+00  0.0000E+00  0.0000E+00  0.0000E+00
    -46.980  0.0000E+00  0.0000E+00  0.0000E+00  0.0000E+00
    -46.800  0.0000E+00  0.0000E+00  0.0000E+00  0.0000E+00
    -46.620  0.0000E+00  0.1476E-12  0.0000E+00  0.2652E-13
    -46.441  0.0000E+00  0.2243E-06  0.0000E+00  0.4029E-07
    -46.261  0.0000E+00  0.7369E-03  0.0000E+00  0.1324E-03
    -46.081  0.0000E+00  0.1079E-01  0.0000E+00  0.2070E-02
    -45.902  0.0000E+00  0.1144E-01  0.0000E+00  0.4125E-02
    -45.722  0.0000E+00  0.1778E-01  0.0000E+00  0.7320E-02
    -45.543  0.0000E+00  0.1002E-02  0.0000E+00  0.7500E-02
    -45.363  0.0000E+00  0.3706E-06  0.0000E+00  0.7500E-02
    -45.183  0.0000E+00  0.3214E-12  0.0000E+00  0.7500E-02
    -45.004  0.0000E+00  0.0000E+00  0.0000E+00  0.7500E-02
    -44.824  0.0000E+00  0.0000E+00  0.0000E+00  0.7500E-02
    -44.644  0.0000E+00  0.0000E+00  0.0000E+00  0.7500E-02
    -44.465  0.1794E-12  0.0000E+00  0.3223E-13  0.7500E-02
    -44.285  0.2541E-06  0.0000E+00  0.4564E-07  0.7500E-02
    -44.106  0.7809E-03  0.0000E+00  0.1403E-03  0.7500E-02
    -43.926  0.1088E-01  0.0000E+00  0.2095E-02  0.7500E-02
    -43.746  0.1064E-01  0.0000E+00  0.4006E-02  0.7500E-02
    -43.567  0.1638E-01  0.0000E+00  0.6947E-02  0.7500E-02
    -43.387  0.3070E-02  0.0000E+00  0.7499E-02  0.7500E-02
    -43.207  0.6246E-05  0.0000E+00  0.7500E-02  0.7500E-02
    -43.028  0.3198E-10  0.0000E+00  0.7500E-02  0.7500E-02
    -42.848  0.0000E+00  0.0000E+00  0.7500E-02  0.7500E-02
    -42.669  0.0000E+00  0.0000E+00  0.7500E-02  0.7500E-02
    -42.489  0.0000E+00  0.0000E+00  0.7500E-02  0.7500E-02
    -42.309  0.0000E+00  0.0000E+00  0.7500E-02  0.7500E-02
    -42.130  0.0000E+00  0.0000E+00  0.7500E-02  0.7500E-02
    -41.950  0.0000E+00  0.0000E+00  0.7500E-02  0.7500E-02
    -41.770  0.0000E+00  0.0000E+00  0.7500E-02  0.7500E-02
    -41.591  0.0000E+00  0.0000E+00  0.7500E-02  0.7500E-02
    -41.411  0.0000E+00  0.0000E+00  0.7500E-02  0.7500E-02
    -41.232  0.0000E+00  0.0000E+00  0.7500E-02  0.7500E-02
    -41.052  0.0000E+00  0.0000E+00  0.7500E-02  0.7500E-02
    -40.872  0.0000E+00  0.0000E+00  0.7500E-02  0.7500E-02
    -40.693  0.0000E+00  0.0000E+00  0.7500E-02  0.7500E-02
    -40.513  0.0000E+00  0.0000E+00  0.7500E-02  0.7500E-02
    -40.333  0.0000E+00  0.0000E+00  0.7500E-02  0.7500E-02
    -40.154  0.0000E+00  0.0000E+00  0.7500E-02  0.7500E-02
    -39.974  0.0000E+00  0.0000E+00  0.7500E-02  0.7500E-02
    -39.794  0.0000E+00  0.0000E+00  0.7500E-02  0.7500E-02
    -39.615  0.0000E+00  0.0000E+00  0.7500E-02  0.7500E-02
    -39.435  0.0000E+00  0.0000E+00  0.7500E-02  0.7500E-02
    -39.256  0.0000E+00  0.0000E+00  0.7500E-02  0.7500E-02
    -39.076  0.0000E+00  0.0000E+00  0.7500E-02  0.7500E-02
    -38.896  0.0000E+00  0.0000E+00  0.7500E-02  0.7500E-02
    -38.717  0.0000E+00  0.0000E+00  0.7500E-02  0.7500E-02
    -38.537  0.0000E+00  0.0000E+00  0.7500E-02  0.7500E-02
    -38.357  0.0000E+00  0.0000E+00  0.7500E-02  0.7500E-02
    -38.178  0.0000E+00  0.0000E+00  0.7500E-02  0.7500E-02
    -37.998  0.0000E+00  0.0000E+00  0.7500E-02  0.7500E-02
    -37.819  0.0000E+00  0.0000E+00  0.7500E-02  0.7500E-02
    -37.639  0.0000E+00  0.0000E+00  0.7500E-02  0.7500E-02
    -37.459  0.0000E+00  0.0000E+00  0.7500E-02  0.7500E-02
    -37.280  0.0000E+00  0.0000E+00  0.7500E-02  0.7500E-02
    -37.100  0.0000E+00  0.0000E+00  0.7500E-02  0.7500E-02
    -36.920  0.0000E+00  0.0000E+00  0.7500E-02  0.7500E-02
    -36.741  0.0000E+00  0.0000E+00  0.7500E-02  0.7500E-02
    -36.561  0.0000E+00  0.0000E+00  0.7500E-02  0.7500E-02
    -36.382  0.0000E+00  0.0000E+00  0.7500E-02  0.7500E-02
    -36.202  0.0000E+00  0.0000E+00  0.7500E-02  0.7500E-02
    -36.022  0.0000E+00  0.0000E+00  0.7500E-02  0.7500E-02
    -35.843  0.0000E+00  0.0000E+00  0.7500E-02  0.7500E-02
    -35.663  0.0000E+00  0.0000E+00  0.7500E-02  0.7500E-02
    -35.483  0.0000E+00  0.0000E+00  0.7500E-02  0.7500E-02
    -35.304  0.0000E+00  0.0000E+00  0.7500E-02  0.7500E-02
    -35.124  0.0000E+00  0.0000E+00  0.7500E-02  0.7500E-02
    -34.945  0.0000E+00  0.0000E+00  0.7500E-02  0.7500E-02
    -34.765  0.0000E+00  0.0000E+00  0.7500E-02  0.7500E-02
    -34.585  0.0000E+00  0.0000E+00  0.7500E-02  0.7500E-02
    -34.406  0.0000E+00  0.0000E+00  0.7500E-02  0.7500E-02
    -34.226  0.0000E+00  0.0000E+00  0.7500E-02  0.7500E-02
    -34.046  0.0000E+00  0.0000E+00  0.7500E-02  0.7500E-02
    -33.867  0.0000E+00  0.0000E+00  0.7500E-02  0.7500E-02
    -33.687  0.0000E+00  0.0000E+00  0.7500E-02  0.7500E-02
    -33.508  0.0000E+00  0.0000E+00  0.7500E-02  0.7500E-02
    -33.328  0.0000E+00  0.0000E+00  0.7500E-02  0.7500E-02
    -33.148  0.0000E+00  0.0000E+00  0.7500E-02  0.7500E-02
    -32.969  0.0000E+00  0.0000E+00  0.7500E-02  0.7500E-02
    -32.789  0.0000E+00  0.0000E+00  0.7500E-02  0.7500E-02
    -32.609  0.0000E+00  0.0000E+00  0.7500E-02  0.7500E-02
    -32.430  0.0000E+00  0.0000E+00  0.7500E-02  0.7500E-02
    -32.250  0.0000E+00  0.0000E+00  0.7500E-02  0.7500E-02
    -32.070  0.0000E+00  0.0000E+00  0.7500E-02  0.7500E-02
    -31.891  0.0000E+00  0.0000E+00  0.7500E-02  0.7500E-02
    -31.711  0.0000E+00  0.0000E+00  0.7500E-02  0.7500E-02
    -31.532  0.0000E+00  0.0000E+00  0.7500E-02  0.7500E-02
    -31.352  0.0000E+00  0.0000E+00  0.7500E-02  0.7500E-02
    -31.172  0.0000E+00  0.0000E+00  0.7500E-02  0.7500E-02
    -30.993  0.0000E+00  0.0000E+00  0.7500E-02  0.7500E-02
    -30.813  0.0000E+00  0.0000E+00  0.7500E-02  0.7500E-02
    -30.633  0.0000E+00  0.0000E+00  0.7500E-02  0.7500E-02
    -30.454  0.0000E+00  0.0000E+00  0.7500E-02  0.7500E-02
    -30.274  0.0000E+00  0.0000E+00  0.7500E-02  0.7500E-02
    -30.095  0.0000E+00  0.0000E+00  0.7500E-02  0.7500E-02
    -29.915  0.0000E+00  0.0000E+00  0.7500E-02  0.7500E-02
    -29.735  0.0000E+00  0.0000E+00  0.7500E-02  0.7500E-02
    -29.556  0.0000E+00  0.0000E+00  0.7500E-02  0.7500E-02
    -29.376  0.0000E+00  0.0000E+00  0.7500E-02  0.7500E-02
    -29.196  0.0000E+00  0.0000E+00  0.7500E-02  0.7500E-02
    -29.017  0.0000E+00  0.0000E+00  0.7500E-02  0.7500E-02
    -28.837  0.0000E+00  0.0000E+00  0.7500E-02  0.7500E-02
    -28.658  0.0000E+00  0.0000E+00  0.7500E-02  0.7500E-02
    -28.478  0.0000E+00  0.0000E+00  0.7500E-02  0.7500E-02
    -28.298  0.0000E+00  0.0000E+00  0.7500E-02  0.7500E-02
    -28.119  0.0000E+00  0.0000E+00  0.7500E-02  0.7500E-02
    -27.939  0.0000E+00  0.0000E+00  0.7500E-02  0.7500E-02
    -27.759  0.0000E+00  0.0000E+00  0.7500E-02  0.7500E-02
    -27.580  0.0000E+00  0.0000E+00  0.7500E-02  0.7500E-02
    -27.400  0.0000E+00  0.0000E+00  0.7500E-02  0.7500E-02
    -27.221  0.0000E+00  0.0000E+00  0.7500E-02  0.7500E-02
    -27.041  0.0000E+00  0.0000E+00  0.7500E-02  0.7500E-02
    -26.861  0.0000E+00  0.0000E+00  0.7500E-02  0.7500E-02
    -26.682  0.0000E+00  0.0000E+00  0.7500E-02  0.7500E-02
    -26.502  0.0000E+00  0.0000E+00  0.7500E-02  0.7500E-02
    -26.322  0.0000E+00  0.0000E+00  0.7500E-02  0.7500E-02
    -26.143  0.0000E+00  0.0000E+00  0.7500E-02  0.7500E-02
    -25.963  0.0000E+00  0.0000E+00  0.7500E-02  0.7500E-02
    -25.783  0.0000E+00  0.0000E+00  0.7500E-02  0.7500E-02
    -25.604  0.0000E+00  0.0000E+00  0.7500E-02  0.7500E-02
    -25.424  0.0000E+00  0.0000E+00  0.7500E-02  0.7500E-02
    -25.245  0.0000E+00  0.0000E+00  0.7500E-02  0.7500E-02
    -25.065  0.0000E+00  0.0000E+00  0.7500E-02  0.7500E-02
    -24.885  0.0000E+00  0.0000E+00  0.7500E-02  0.7500E-02
    -24.706  0.3364E-12  0.2716E-12  0.7500E-02  0.7500E-02
    -24.526  0.3789E-06  0.3308E-06  0.7500E-02  0.7500E-02
    -24.346  0.9379E-03  0.8816E-03  0.7669E-02  0.7658E-02
    -24.167  0.1092E-01  0.1087E-01  0.9630E-02  0.9611E-02
    -23.987  0.2058E-02  0.2161E-02  0.1000E-01  0.1000E-01
    -23.808  0.2343E-05  0.2645E-05  0.1000E-01  0.1000E-01
    -23.628  0.6284E-11  0.7668E-11  0.1000E-01  0.1000E-01
    -23.448  0.0000E+00  0.0000E+00  0.1000E-01  0.1000E-01
    -23.269  0.0000E+00  0.0000E+00  0.1000E-01  0.1000E-01
    -23.089  0.0000E+00  0.0000E+00  0.1000E-01  0.1000E-01
    -22.909  0.0000E+00  0.0000E+00  0.1000E-01  0.1000E-01
    -22.730  0.0000E+00  0.0000E+00  0.1000E-01  0.1000E-01
    -22.550  0.0000E+00  0.0000E+00  0.1000E-01  0.1000E-01
    -22.371  0.0000E+00  0.0000E+00  0.1000E-01  0.1000E-01
    -22.191  0.0000E+00  0.0000E+00  0.1000E-01  0.1000E-01
    -22.011  0.3807E-15  0.3328E-15  0.1000E-01  0.1000E-01
    -21.832  0.3660E-08  0.3332E-08  0.1000E-01  0.1000E-01
    -21.652  0.7550E-04  0.7166E-04  0.1001E-01  0.1001E-01
    -21.472  0.6229E-02  0.6120E-02  0.1113E-01  0.1111E-01
    -21.293  0.1535E-01  0.1533E-01  0.1389E-01  0.1387E-01
    -21.113  0.1519E-01  0.1510E-01  0.1662E-01  0.1658E-01
    -20.934  0.1051E-01  0.1053E-01  0.1851E-01  0.1847E-01
    -20.754  0.1085E-01  0.1081E-01  0.2045E-01  0.2041E-01
    -20.574  0.1706E-01  0.1691E-01  0.2352E-01  0.2345E-01
    -20.395  0.1442E-01  0.1453E-01  0.2611E-01  0.2606E-01
    -20.215  0.8867E-02  0.8976E-02  0.2770E-01  0.2767E-01
    -20.035  0.1304E-01  0.1271E-01  0.3004E-01  0.2995E-01
    -19.856  0.1492E-01  0.1489E-01  0.3272E-01  0.3263E-01
    -19.676  0.1930E-01  0.1948E-01  0.3619E-01  0.3613E-01
    -19.497  0.8719E-02  0.8804E-02  0.3776E-01  0.3771E-01
    -19.317  0.1080E-01  0.1056E-01  0.3970E-01  0.3961E-01
    -19.137  0.1551E-01  0.1549E-01  0.4248E-01  0.4239E-01
    -18.958  0.1523E-01  0.1516E-01  0.4522E-01  0.4511E-01
    -18.778  0.1356E-01  0.1367E-01  0.4765E-01  0.4757E-01
    -18.598  0.1446E-01  0.1452E-01  0.5025E-01  0.5017E-01
    -18.419  0.1264E-01  0.1256E-01  0.5252E-01  0.5243E-01
    -18.239  0.1839E-01  0.1808E-01  0.5583E-01  0.5568E-01
    -18.059  0.1503E-01  0.1514E-01  0.5853E-01  0.5840E-01
    -17.880  0.1212E-01  0.1251E-01  0.6070E-01  0.6064E-01
    -17.700  0.9160E-02  0.9255E-02  0.6235E-01  0.6231E-01
    -17.521  0.1768E-01  0.1717E-01  0.6552E-01  0.6539E-01
    -17.341  0.1678E-01  0.1689E-01  0.6854E-01  0.6843E-01
    -17.161  0.1676E-01  0.1660E-01  0.7155E-01  0.7141E-01
    -16.982  0.1738E-01  0.1765E-01  0.7467E-01  0.7458E-01
    -16.802  0.1678E-01  0.1684E-01  0.7769E-01  0.7760E-01
    -16.622  0.1312E-01  0.1308E-01  0.8004E-01  0.7995E-01
    -16.443  0.9681E-02  0.9401E-02  0.8178E-01  0.8164E-01
    -16.263  0.1470E-01  0.1496E-01  0.8442E-01  0.8433E-01
    -16.084  0.1557E-01  0.1543E-01  0.8722E-01  0.8710E-01
    -15.904  0.1674E-01  0.1620E-01  0.9022E-01  0.9001E-01
    -15.724  0.1233E-01  0.1260E-01  0.9244E-01  0.9227E-01
    -15.545  0.8532E-02  0.9011E-02  0.9397E-01  0.9389E-01
    -15.365  0.8774E-02  0.8892E-02  0.9555E-01  0.9549E-01
    -15.185  0.1110E-01  0.1105E-01  0.9754E-01  0.9748E-01
    -15.006  0.1610E-01  0.1607E-01  0.1004E+00  0.1004E+00
    -14.826  0.1497E-01  0.1487E-01  0.1031E+00  0.1030E+00
    -14.647  0.1567E-01  0.1508E-01  0.1059E+00  0.1057E+00
    -14.467  0.1742E-01  0.1785E-01  0.1091E+00  0.1089E+00
    -14.287  0.1518E-01  0.1533E-01  0.1118E+00  0.1117E+00
    -14.108  0.1556E-01  0.1560E-01  0.1146E+00  0.1145E+00
    -13.928  0.1320E-01  0.1271E-01  0.1170E+00  0.1168E+00
    -13.748  0.2047E-01  0.2079E-01  0.1206E+00  0.1205E+00
    -13.569  0.1034E-01  0.1052E-01  0.1225E+00  0.1224E+00
    -13.389  0.1844E-01  0.1793E-01  0.1258E+00  0.1256E+00
    -13.210  0.9442E-02  0.9655E-02  0.1275E+00  0.1274E+00
    -13.030  0.1227E-01  0.1271E-01  0.1297E+00  0.1297E+00
    -12.850  0.1339E-01  0.1308E-01  0.1321E+00  0.1320E+00
    -12.671  0.2300E-01  0.2291E-01  0.1362E+00  0.1361E+00
    -12.491  0.1376E-01  0.1399E-01  0.1387E+00  0.1386E+00
    -12.311  0.7917E-02  0.8018E-02  0.1401E+00  0.1401E+00
    -12.132  0.1057E-01  0.1059E-01  0.1420E+00  0.1420E+00
    -11.952  0.1699E-01  0.1661E-01  0.1451E+00  0.1450E+00
    -11.772  0.2109E-01  0.2100E-01  0.1489E+00  0.1487E+00
    -11.593  0.2821E-01  0.2802E-01  0.1539E+00  0.1538E+00
    -11.413  0.1575E-01  0.1659E-01  0.1568E+00  0.1567E+00
    -11.234  0.2287E-02  0.2211E-02  0.1572E+00  0.1571E+00
    -11.054  0.2230E-01  0.2176E-01  0.1612E+00  0.1610E+00
    -10.874  0.1491E-01  0.1538E-01  0.1639E+00  0.1638E+00
    -10.695  0.1928E-01  0.1894E-01  0.1673E+00  0.1672E+00
    -10.515  0.1951E-01  0.1950E-01  0.1708E+00  0.1707E+00
    -10.335  0.3186E-01  0.3223E-01  0.1766E+00  0.1765E+00
    -10.156  0.1717E-01  0.1705E-01  0.1796E+00  0.1796E+00
     -9.976  0.2312E-01  0.2268E-01  0.1838E+00  0.1836E+00
     -9.797  0.2172E-01  0.2215E-01  0.1877E+00  0.1876E+00
     -9.617  0.2078E-01  0.2052E-01  0.1914E+00  0.1913E+00
     -9.437  0.3926E-01  0.3945E-01  0.1985E+00  0.1984E+00
     -9.258  0.2759E-01  0.2778E-01  0.2034E+00  0.2034E+00
     -9.078  0.2710E-01  0.2697E-01  0.2083E+00  0.2082E+00
     -8.898  0.3072E-01  0.3064E-01  0.2138E+00  0.2137E+00
     -8.719  0.3934E-01  0.3907E-01  0.2209E+00  0.2208E+00
     -8.539  0.4809E-01  0.4787E-01  0.2295E+00  0.2293E+00
     -8.360  0.5392E-01  0.5437E-01  0.2392E+00  0.2391E+00
     -8.180  0.2887E-01  0.2873E-01  0.2444E+00  0.2443E+00
     -8.000  0.2611E-01  0.2604E-01  0.2491E+00  0.2490E+00
     -7.821  0.3434E-01  0.3462E-01  0.2553E+00  0.2552E+00
     -7.641  0.2433E-01  0.2445E-01  0.2596E+00  0.2596E+00
     -7.461  0.3807E-01  0.3789E-01  0.2665E+00  0.2664E+00
     -7.282  0.3053E-01  0.3080E-01  0.2720E+00  0.2719E+00
     -7.102  0.3272E-01  0.3307E-01  0.2778E+00  0.2778E+00
     -6.923  0.3580E-01  0.3572E-01  0.2843E+00  0.2843E+00
     -6.743  0.1899E-01  0.1874E-01  0.2877E+00  0.2876E+00
     -6.563  0.1558E-01  0.1601E-01  0.2905E+00  0.2905E+00
     -6.384  0.2100E-01  0.2237E-01  0.2942E+00  0.2945E+00
     -6.204  0.4096E-01  0.4047E-01  0.3016E+00  0.3018E+00
     -6.024  0.2836E-01  0.2725E-01  0.3067E+00  0.3067E+00
     -5.845  0.2597E-01  0.2612E-01  0.3114E+00  0.3114E+00
     -5.665  0.2246E-01  0.2508E-01  0.3154E+00  0.3159E+00
     -5.486  0.2176E-01  0.1963E-01  0.3193E+00  0.3194E+00
     -5.306  0.1146E-01  0.1314E-01  0.3214E+00  0.3218E+00
     -5.126  0.2077E-01  0.2261E-01  0.3251E+00  0.3258E+00
     -4.947  0.2397E-01  0.3063E-01  0.3294E+00  0.3313E+00
     -4.767  0.3250E-01  0.2834E-01  0.3352E+00  0.3364E+00
     -4.587  0.3577E-01  0.3407E-01  0.3417E+00  0.3425E+00
     -4.408  0.1470E-01  0.1061E-01  0.3443E+00  0.3444E+00
     -4.228  0.3676E-02  0.4961E-02  0.3450E+00  0.3453E+00
     -4.048  0.1309E-01  0.1847E-01  0.3473E+00  0.3487E+00
     -3.869  0.1575E-01  0.2501E-01  0.3501E+00  0.3531E+00
     -3.689  0.1458E-01  0.1193E-01  0.3528E+00  0.3553E+00
     -3.510  0.2005E-01  0.9784E-02  0.3564E+00  0.3570E+00
     -3.330  0.1153E-01  0.1437E-01  0.3584E+00  0.3596E+00
     -3.150  0.8674E-02  0.1706E-01  0.3600E+00  0.3627E+00
     -2.971  0.7043E-02  0.6295E-02  0.3613E+00  0.3638E+00
     -2.791  0.3317E-02  0.1065E-01  0.3619E+00  0.3657E+00
     -2.611  0.1327E-03  0.4262E-02  0.3619E+00  0.3665E+00
     -2.432  0.3738E-03  0.2371E-02  0.3619E+00  0.3669E+00
     -2.252  0.3139E-02  0.3194E-02  0.3625E+00  0.3675E+00
     -2.073  0.7842E-02  0.5511E-02  0.3639E+00  0.3685E+00
     -1.893  0.8725E-02  0.1547E-02  0.3655E+00  0.3688E+00
     -1.713  0.7958E-03  0.7229E-02  0.3656E+00  0.3701E+00
     -1.534  0.1119E-02  0.1721E-01  0.3658E+00  0.3732E+00
     -1.354  0.9724E-02  0.1719E-01  0.3676E+00  0.3762E+00
     -1.174  0.3087E-02  0.6398E-02  0.3681E+00  0.3774E+00
     -0.995  0.6865E-02  0.5147E-02  0.3694E+00  0.3783E+00
     -0.815  0.2936E-01  0.1738E-01  0.3746E+00  0.3814E+00
     -0.636  0.2623E-01  0.1736E-01  0.3793E+00  0.3846E+00
     -0.456  0.2723E-01  0.1285E-01  0.3842E+00  0.3869E+00
     -0.276  0.2113E-01  0.1728E-01  0.3880E+00  0.3900E+00
     -0.097  0.1848E-01  0.1380E-01  0.3914E+00  0.3925E+00
      0.083  0.9926E-02  0.1282E-01  0.3931E+00  0.3948E+00
      0.263  0.2363E-01  0.2133E-01  0.3974E+00  0.3986E+00
      0.442  0.2528E-01  0.1824E-01  0.4019E+00  0.4019E+00
      0.622  0.1376E-01  0.1429E-01  0.4044E+00  0.4044E+00
      0.801  0.4425E-02  0.9335E-02  0.4052E+00  0.4061E+00
      0.981  0.1376E-01  0.1978E-01  0.4077E+00  0.4097E+00
      1.161  0.2156E-01  0.1357E-01  0.4115E+00  0.4121E+00
      1.340  0.1422E-01  0.1587E-01  0.4141E+00  0.4149E+00
      1.520  0.2075E-01  0.2016E-01  0.4178E+00  0.4186E+00
      1.700  0.2177E-01  0.2306E-01  0.4217E+00  0.4227E+00
      1.879  0.2641E-01  0.2567E-01  0.4265E+00  0.4273E+00
      2.059  0.3071E-01  0.3585E-01  0.4320E+00  0.4338E+00
      2.239  0.2847E-01  0.2739E-01  0.4371E+00  0.4387E+00
      2.418  0.1828E-01  0.2059E-01  0.4404E+00  0.4424E+00
      2.598  0.4206E-01  0.4195E-01  0.4479E+00  0.4499E+00
      2.777  0.5385E-01  0.4690E-01  0.4576E+00  0.4583E+00
      2.957  0.1306E-01  0.9109E-02  0.4600E+00  0.4600E+00
      3.137  0.2602E-03  0.1290E-03  0.4600E+00  0.4600E+00
      3.316  0.5941E-07  0.1169E-07  0.4600E+00  0.4600E+00
      3.496  0.3728E-13  0.2671E-14  0.4600E+00  0.4600E+00
      3.676  0.0000E+00  0.0000E+00  0.4600E+00  0.4600E+00
      3.855  0.0000E+00  0.0000E+00  0.4600E+00  0.4600E+00
      4.035  0.0000E+00  0.0000E+00  0.4600E+00  0.4600E+00
      4.214  0.0000E+00  0.0000E+00  0.4600E+00  0.4600E+00
      4.394  0.0000E+00  0.0000E+00  0.4600E+00  0.4600E+00
      4.574  0.0000E+00  0.0000E+00  0.4600E+00  0.4600E+00
      4.753  0.0000E+00  0.0000E+00  0.4600E+00  0.4600E+00
      4.933  0.0000E+00  0.0000E+00  0.4600E+00  0.4600E+00
      5.113  0.0000E+00  0.0000E+00  0.4600E+00  0.4600E+00
      5.292  0.0000E+00  0.0000E+00  0.4600E+00  0.4600E+00
