       N       E                     dE             d eps       ncg     rms          rms(c)
DAV:   1     0.264973846944E+04    0.26497E+04   -0.10767E+05  3984   0.118E+03
DAV:   2    -0.930766486365E+01   -0.26590E+04   -0.25653E+04  4696   0.305E+02
DAV:   3    -0.508368049857E+03   -0.49906E+03   -0.49532E+03  4052   0.148E+02
DAV:   4    -0.528332900251E+03   -0.19965E+02   -0.19453E+02  4312   0.410E+01
DAV:   5    -0.529172915372E+03   -0.84002E+00   -0.83017E+00  4824   0.664E+00    0.435E+01
DAV:   6    -0.500084114485E+03    0.29089E+02   -0.53961E+01  4448   0.248E+01    0.275E+01
DAV:   7    -0.493332526413E+03    0.67516E+01   -0.49270E+01  4104   0.194E+01    0.171E+01
DAV:   8    -0.491319819686E+03    0.20127E+01   -0.16243E+01  4080   0.127E+01    0.118E+01
DAV:   9    -0.491515986974E+03   -0.19617E+00   -0.14571E+01  5008   0.103E+01    0.643E+00
DAV:  10    -0.490823828070E+03    0.69216E+00   -0.66447E+00  4848   0.826E+00    0.327E+00
DAV:  11    -0.490767968156E+03    0.55860E-01   -0.22463E+00  4672   0.435E+00    0.207E+00
DAV:  12    -0.490704577523E+03    0.63391E-01   -0.12432E+00  4696   0.279E+00    0.133E+00
DAV:  13    -0.490665775168E+03    0.38802E-01   -0.28897E-01  4120   0.149E+00    0.521E-01
DAV:  14    -0.490666170408E+03   -0.39524E-03   -0.44159E-02  3832   0.602E-01    0.283E-01
DAV:  15    -0.490665697978E+03    0.47243E-03   -0.52222E-03  4488   0.258E-01    0.216E-01
DAV:  16    -0.490665645963E+03    0.52014E-04   -0.22759E-03  4600   0.143E-01    0.132E-01
DAV:  17    -0.490665710236E+03   -0.64272E-04   -0.12513E-03  3008   0.817E-02    0.742E-02
DAV:  18    -0.490665709697E+03    0.53936E-06   -0.15903E-03  2344   0.820E-02    0.494E-02
DAV:  19    -0.490665669532E+03    0.40165E-04   -0.40640E-04  2136   0.404E-02
   1 F= -.49477984E+03 E0= -.49477984E+03  d E =0.000000E+00  mag=    -0.0000
