       N       E                     dE             d eps       ncg     rms          rms(c)
DAV:   1     0.256934958172E+04    0.25693E+04   -0.11161E+05  4336   0.107E+03
DAV:   2    -0.233513849111E+03   -0.28029E+04   -0.26783E+04  5480   0.281E+02
DAV:   3    -0.699811655878E+03   -0.46630E+03   -0.46216E+03  4576   0.121E+02
DAV:   4    -0.716728253986E+03   -0.16917E+02   -0.16774E+02  4696   0.284E+01
DAV:   5    -0.717279125061E+03   -0.55087E+00   -0.54920E+00  5296   0.427E+00    0.479E+01
DAV:   6    -0.711580086432E+03    0.56990E+01   -0.72623E+01  4768   0.304E+01    0.723E+01
DAV:   7    -0.675327444885E+03    0.36253E+02   -0.77054E+01  5344   0.591E+01    0.254E+01
DAV:   8    -0.668963985564E+03    0.63635E+01   -0.31845E+01  4824   0.129E+01    0.232E+01
DAV:   9    -0.664907464477E+03    0.40565E+01   -0.22026E+01  4640   0.145E+01    0.157E+01
DAV:  10    -0.663380140163E+03    0.15273E+01   -0.10189E+01  5216   0.117E+01    0.757E+00
DAV:  11    -0.663238025175E+03    0.14211E+00   -0.12608E+00  5024   0.345E+00    0.573E+00
DAV:  12    -0.663164400738E+03    0.73624E-01   -0.58537E-01  4480   0.221E+00    0.319E+00
DAV:  13    -0.663163278292E+03    0.11224E-02   -0.18297E-01  4744   0.133E+00    0.207E+00
DAV:  14    -0.663171377287E+03   -0.80990E-02   -0.50743E-02  4616   0.607E-01    0.177E+00
DAV:  15    -0.663171506995E+03   -0.12971E-03   -0.11999E-02  4576   0.289E-01    0.133E+00
DAV:  16    -0.663169190069E+03    0.23169E-02   -0.34099E-03  5144   0.171E-01    0.978E-01
DAV:  17    -0.663169136870E+03    0.53199E-04   -0.21141E-03  4512   0.112E-01    0.802E-01
DAV:  18    -0.663168796065E+03    0.34080E-03   -0.82260E-04  4368   0.773E-02    0.527E-01
DAV:  19    -0.663168827267E+03   -0.31202E-04   -0.15914E-04  2960   0.308E-02
   1 F= -.66974015E+03 E0= -.66974015E+03  d E =0.000000E+00  mag=     1.0030
