       N       E                     dE             d eps       ncg     rms          rms(c)
DAV:   1     0.273541278878E+04    0.27354E+04   -0.11740E+05  3256   0.127E+03
DAV:   2    -0.173640105910E+03   -0.29091E+04   -0.27812E+04  4320   0.295E+02
DAV:   3    -0.684349100687E+03   -0.51071E+03   -0.50776E+03  3560   0.129E+02
DAV:   4    -0.703731159793E+03   -0.19382E+02   -0.19232E+02  3560   0.311E+01
DAV:   5    -0.704354187416E+03   -0.62303E+00   -0.62111E+00  4032   0.480E+00    0.465E+01
RMM:   6    -0.732607743069E+03   -0.28254E+02   -0.53490E+02  4086   0.394E+01    0.841E+01
RMM:   7    -0.662132209744E+03    0.70476E+02   -0.52752E+01  3027   0.136E+01    0.317E+01
RMM:   8    -0.662167683442E+03   -0.35474E-01   -0.20705E+01  3145   0.703E+00    0.282E+01
RMM:   9    -0.647140094766E+03    0.15028E+02   -0.20015E+01  2966   0.843E+00    0.114E+01
RMM:  10    -0.647795364598E+03   -0.65527E+00   -0.29596E+00  2999   0.307E+00    0.147E+01
RMM:  11    -0.646581923691E+03    0.12134E+01   -0.42555E-01  3102   0.105E+00    0.757E+00
RMM:  12    -0.646478350156E+03    0.10357E+00   -0.15666E-01  2944   0.919E-01    0.666E+00
RMM:  13    -0.646569223038E+03   -0.90873E-01   -0.24682E-02  3000   0.308E-01    0.727E+00
RMM:  14    -0.646361086257E+03    0.20814E+00   -0.28025E-02  2969   0.398E-01    0.621E+00
RMM:  15    -0.646402738916E+03   -0.41653E-01   -0.21382E-02  2972   0.202E-01    0.620E+00
RMM:  16    -0.646402096151E+03    0.64276E-03   -0.33665E-02  2945   0.572E-01    0.618E+00
RMM:  17    -0.646342005534E+03    0.60091E-01   -0.27421E-02  2958   0.287E-01    0.379E+00
RMM:  18    -0.646349006709E+03   -0.70012E-02   -0.17123E-02  2954   0.227E-01    0.188E+00
RMM:  19    -0.646363397724E+03   -0.14391E-01   -0.12414E-02  2952   0.331E-01    0.208E+00
RMM:  20    -0.646364387271E+03   -0.98955E-03   -0.65989E-03  2964   0.144E-01    0.715E-01
RMM:  21    -0.646374785411E+03   -0.10398E-01   -0.14668E-03  2921   0.822E-02    0.221E+00
RMM:  22    -0.646380474202E+03   -0.56888E-02   -0.11691E-03  2934   0.121E-01    0.336E+00
RMM:  23    -0.646376142457E+03    0.43317E-02   -0.62662E-03  2949   0.169E-01    0.321E+00
RMM:  24    -0.646386995750E+03   -0.10853E-01   -0.85919E-03  2975   0.118E-01    0.249E+00
RMM:  25    -0.646394331530E+03   -0.73358E-02   -0.16504E-03  2935   0.872E-02    0.235E+00
RMM:  26    -0.646396594558E+03   -0.22630E-02   -0.60649E-03  2995   0.104E-01    0.150E+00
RMM:  27    -0.646407722472E+03   -0.11128E-01   -0.65018E-03  3013   0.121E-01    0.234E+00
RMM:  28    -0.646425179023E+03   -0.17457E-01   -0.28643E-03  2969   0.174E-01    0.364E+00
RMM:  29    -0.646409160347E+03    0.16019E-01   -0.31905E-03  2957   0.132E-01    0.322E+00
RMM:  30    -0.646397893200E+03    0.11267E-01   -0.10587E-02  2983   0.139E-01    0.144E+00
RMM:  31    -0.646420889390E+03   -0.22996E-01   -0.28501E-03  2950   0.146E-01    0.179E+00
RMM:  32    -0.646431304045E+03   -0.10415E-01   -0.20408E-03  2964   0.132E-01    0.210E+00
RMM:  33    -0.646425013511E+03    0.62905E-02   -0.84469E-03  2994   0.145E-01    0.136E+00
RMM:  34    -0.646436336509E+03   -0.11323E-01   -0.21580E-03  3021   0.884E-02    0.164E+00
RMM:  35    -0.646438464505E+03   -0.21280E-02   -0.86674E-04  2923   0.920E-02    0.184E+00
RMM:  36    -0.646436796611E+03    0.16679E-02   -0.10105E-03  2909   0.555E-02    0.166E+00
RMM:  37    -0.646440179704E+03   -0.33831E-02   -0.35942E-03  2970   0.853E-02    0.149E+00
RMM:  38    -0.646446361104E+03   -0.61814E-02   -0.12866E-03  2935   0.706E-02    0.173E+00
RMM:  39    -0.646448572135E+03   -0.22110E-02   -0.50613E-04  2877   0.681E-02    0.194E+00
RMM:  40    -0.646451245186E+03   -0.26731E-02   -0.23811E-04  2408   0.386E-02    0.211E+00
RMM:  41    -0.646453523815E+03   -0.22786E-02   -0.16209E-04  2325   0.332E-02    0.222E+00
RMM:  42    -0.646453401810E+03    0.12201E-03   -0.41664E-04  2695   0.373E-02    0.226E+00
RMM:  43    -0.646453655350E+03   -0.25354E-03   -0.77128E-05  2038   0.162E-02    0.229E+00
RMM:  44    -0.646451747747E+03    0.19076E-02   -0.51587E-05  2068   0.135E-02    0.227E+00
RMM:  45    -0.646459855895E+03   -0.81081E-02   -0.27420E-04  2593   0.280E-02    0.234E+00
RMM:  46    -0.646471484074E+03   -0.11628E-01   -0.70448E-04  2843   0.374E-02    0.243E+00
RMM:  47    -0.646477637767E+03   -0.61537E-02   -0.33183E-04  2405   0.336E-02    0.244E+00
RMM:  48    -0.646479657393E+03   -0.20196E-02   -0.31591E-04  2367   0.297E-02    0.243E+00
RMM:  49    -0.646485320158E+03   -0.56628E-02   -0.21366E-04  2282   0.222E-02    0.241E+00
RMM:  50    -0.646487506492E+03   -0.21863E-02   -0.13348E-04  2038   0.186E-02
   1 F= -.65288366E+03 E0= -.65285930E+03  d E =-.652884E+03  mag=    -0.1327
       N       E                     dE             d eps       ncg     rms          rms(c)
DAV:   1    -0.646515320820E+03   -0.30001E-01   -0.11319E+01  3136   0.963E+00    0.300E+00
RMM:   2    -0.647764718461E+03   -0.12494E+01   -0.17550E+00  3041   0.228E+00    0.131E+01
RMM:   3    -0.646595058329E+03    0.11697E+01   -0.75670E-01  3121   0.134E+00    0.289E+00
RMM:   4    -0.646571510419E+03    0.23548E-01   -0.59458E-02  3410   0.426E-01    0.341E+00
RMM:   5    -0.646579723455E+03   -0.82130E-02   -0.66932E-02  3020   0.395E-01    0.324E+00
RMM:   6    -0.646538992749E+03    0.40731E-01   -0.82455E-02  3038   0.392E-01    0.272E+00
RMM:   7    -0.646545823774E+03   -0.68310E-02   -0.17689E-02  3378   0.146E-01    0.289E+00
RMM:   8    -0.646495245792E+03    0.50578E-01   -0.20603E-02  3041   0.228E-01    0.272E+00
RMM:   9    -0.646477171813E+03    0.18074E-01   -0.27569E-02  2984   0.276E-01    0.266E+00
RMM:  10    -0.646503420890E+03   -0.26249E-01   -0.48144E-02  2979   0.306E-01    0.268E+00
RMM:  11    -0.646463891531E+03    0.39529E-01   -0.63530E-02  3025   0.330E-01    0.266E+00
RMM:  12    -0.646534745852E+03   -0.70854E-01   -0.25397E-02  2989   0.220E-01    0.256E+00
RMM:  13    -0.646533857584E+03    0.88827E-03   -0.18597E-03  3064   0.382E-02    0.259E+00
RMM:  14    -0.646531661008E+03    0.21966E-02   -0.41570E-04  2158   0.153E-02    0.262E+00
RMM:  15    -0.646554823792E+03   -0.23163E-01   -0.53019E-03  2981   0.110E-01    0.250E+00
RMM:  16    -0.646619037281E+03   -0.64213E-01   -0.55232E-02  2993   0.289E-01    0.241E+00
RMM:  17    -0.646604259623E+03    0.14778E-01   -0.38697E-03  3171   0.907E-02    0.245E+00
RMM:  18    -0.646601452201E+03    0.28074E-02   -0.95054E-04  2690   0.425E-02    0.246E+00
RMM:  19    -0.646685962872E+03   -0.84511E-01   -0.63306E-02  2978   0.346E-01    0.265E+00
RMM:  20    -0.646710934237E+03   -0.24971E-01   -0.23653E-02  3162   0.172E-01    0.269E+00
RMM:  21    -0.646654447394E+03    0.56487E-01   -0.10979E-02  2948   0.184E-01    0.281E+00
RMM:  22    -0.646783399460E+03   -0.12895E+00   -0.48233E-02  2995   0.311E-01    0.267E+00
RMM:  23    -0.646793686381E+03   -0.10287E-01   -0.20907E-02  3124   0.176E-01    0.261E+00
RMM:  24    -0.646821297489E+03   -0.27611E-01   -0.10271E-02  3202   0.122E-01    0.255E+00
RMM:  25    -0.646625764345E+03    0.19553E+00   -0.18702E-01  2958   0.612E-01    0.235E+00
RMM:  26    -0.646451504784E+03    0.17426E+00   -0.18331E-01  3001   0.531E-01    0.179E+00
RMM:  27    -0.646506514174E+03   -0.55009E-01   -0.24031E-02  3398   0.172E-01    0.187E+00
RMM:  28    -0.646521542008E+03   -0.15028E-01   -0.37902E-03  3256   0.610E-02    0.189E+00
RMM:  29    -0.646561520864E+03   -0.39979E-01   -0.60934E-03  2944   0.107E-01    0.195E+00
RMM:  30    -0.646599427158E+03   -0.37906E-01   -0.13838E-02  2996   0.175E-01    0.221E+00
RMM:  31    -0.646008527093E+03    0.59090E+00   -0.40840E-01  2966   0.894E-01    0.254E+00
RMM:  32    -0.646058794667E+03   -0.50268E-01   -0.25110E-02  3558   0.173E-01    0.253E+00
RMM:  33    -0.646068672054E+03   -0.98774E-02   -0.27065E-03  3024   0.495E-02    0.255E+00
RMM:  34    -0.646079602112E+03   -0.10930E-01   -0.36618E-04  2262   0.210E-02    0.256E+00
RMM:  35    -0.645796047408E+03    0.28355E+00   -0.46625E-02  2967   0.294E-01    0.273E+00
RMM:  36    -0.645801498860E+03   -0.54515E-02   -0.33888E-03  3279   0.633E-02    0.268E+00
RMM:  37    -0.645812554357E+03   -0.11055E-01   -0.34508E-04  2321   0.222E-02    0.267E+00
RMM:  38    -0.645867954732E+03   -0.55400E-01   -0.12722E-03  2905   0.585E-02    0.250E+00
RMM:  39    -0.645784847691E+03    0.83107E-01   -0.73469E-03  2970   0.130E-01    0.221E+00
RMM:  40    -0.645844079841E+03   -0.59232E-01   -0.42706E-03  3027   0.100E-01    0.200E+00
RMM:  41    -0.645783729837E+03    0.60350E-01   -0.84612E-03  3018   0.152E-01    0.191E+00
RMM:  42    -0.645850575727E+03   -0.66846E-01   -0.47937E-03  3089   0.111E-01    0.188E+00
RMM:  43    -0.645843252443E+03    0.73233E-02   -0.68592E-04  2890   0.324E-02    0.192E+00
RMM:  44    -0.645907134168E+03   -0.63882E-01   -0.29236E-03  2969   0.806E-02    0.191E+00
RMM:  45    -0.645970984179E+03   -0.63850E-01   -0.39908E-03  3013   0.844E-02    0.193E+00
RMM:  46    -0.646016005578E+03   -0.45021E-01   -0.32624E-03  3047   0.747E-02    0.197E+00
RMM:  47    -0.645746941862E+03    0.26906E+00   -0.33453E-02  2992   0.259E-01    0.220E+00
RMM:  48    -0.645616912079E+03    0.13003E+00   -0.12885E-02  3053   0.150E-01    0.227E+00
RMM:  49    -0.645612253106E+03    0.46590E-02   -0.14324E-03  2955   0.388E-02    0.232E+00
RMM:  50    -0.645629189893E+03   -0.16937E-01   -0.12356E-04  2020   0.165E-02
   2 F= -.65203665E+03 E0= -.65201847E+03  d E =0.847012E+00  mag=    -0.6993
       N       E                     dE             d eps       ncg     rms          rms(c)
DAV:   1    -0.645554814255E+03    0.57439E-01   -0.23385E+00  3160   0.438E+00    0.249E+00
RMM:   2    -0.646299278708E+03   -0.74446E+00   -0.48706E-01  2949   0.115E+00    0.215E+00
RMM:   3    -0.646435250301E+03   -0.13597E+00   -0.19213E-01  3066   0.654E-01    0.261E+00
RMM:   4    -0.646408208027E+03    0.27042E-01   -0.55632E-02  3196   0.354E-01    0.961E-01
RMM:   5    -0.646511627130E+03   -0.10342E+00   -0.18173E-01  2993   0.447E-01    0.779E-01
RMM:   6    -0.646579912535E+03   -0.68285E-01   -0.10669E-01  3106   0.282E-01    0.913E-01
RMM:   7    -0.646453667833E+03    0.12624E+00   -0.63926E-02  2979   0.345E-01    0.124E+00
RMM:   8    -0.646644674887E+03   -0.19101E+00   -0.20897E-01  2998   0.494E-01    0.108E+00
RMM:   9    -0.646690353390E+03   -0.45679E-01   -0.64371E-02  3179   0.211E-01    0.169E+00
RMM:  10    -0.646569662385E+03    0.12069E+00   -0.98626E-02  2952   0.424E-01    0.121E+00
RMM:  11    -0.646615795029E+03   -0.46133E-01   -0.83604E-03  3056   0.126E-01    0.987E-01
RMM:  12    -0.646581201938E+03    0.34593E-01   -0.17275E-02  3009   0.171E-01    0.106E+00
RMM:  13    -0.646440424629E+03    0.14078E+00   -0.11811E-01  3010   0.417E-01    0.116E+00
RMM:  14    -0.646490704897E+03   -0.50280E-01   -0.99594E-03  3120   0.119E-01    0.113E+00
RMM:  15    -0.646489420666E+03    0.12842E-02   -0.24303E-03  2615   0.277E-02    0.112E+00
RMM:  16    -0.646469160877E+03    0.20260E-01   -0.15858E-03  2634   0.501E-02    0.117E+00
RMM:  17    -0.646503518448E+03   -0.34358E-01   -0.51178E-03  2900   0.844E-02    0.116E+00
RMM:  18    -0.646500096637E+03    0.34218E-02   -0.17871E-04  2036   0.134E-02    0.117E+00
RMM:  19    -0.646493263775E+03    0.68329E-02   -0.27824E-04  2002   0.191E-02    0.118E+00
RMM:  20    -0.646485181563E+03    0.80822E-02   -0.32524E-04  2127   0.229E-02    0.120E+00
RMM:  21    -0.646418074059E+03    0.67108E-01   -0.15721E-02  2964   0.153E-01    0.126E+00
RMM:  22    -0.646610874662E+03   -0.19280E+00   -0.13559E-01  2988   0.434E-01    0.101E+00
RMM:  23    -0.646672155319E+03   -0.61281E-01   -0.65838E-02  3044   0.262E-01    0.871E-01
RMM:  24    -0.646763581021E+03   -0.91426E-01   -0.12297E-01  3012   0.365E-01    0.157E+00
RMM:  25    -0.646759970947E+03    0.36101E-02   -0.24007E-02  3346   0.128E-01    0.172E+00
RMM:  26    -0.646751655622E+03    0.83153E-02   -0.22485E-03  2641   0.431E-02    0.171E+00
RMM:  27    -0.646753039617E+03   -0.13840E-02   -0.65275E-04  2219   0.139E-02    0.173E+00
RMM:  28    -0.646756229244E+03   -0.31896E-02   -0.20900E-04  2112   0.136E-02    0.178E+00
RMM:  29    -0.646782201135E+03   -0.25972E-01   -0.27553E-03  2976   0.749E-02    0.191E+00
RMM:  30    -0.646803352939E+03   -0.21152E-01   -0.53599E-03  3007   0.936E-02    0.197E+00
RMM:  31    -0.646817256458E+03   -0.13904E-01   -0.30309E-03  3130   0.646E-02    0.207E+00
RMM:  32    -0.646801755857E+03    0.15501E-01   -0.64615E-04  2620   0.380E-02    0.206E+00
RMM:  33    -0.646783560064E+03    0.18196E-01   -0.19998E-03  2961   0.556E-02    0.198E+00
RMM:  34    -0.646809990872E+03   -0.26431E-01   -0.17995E-03  2949   0.612E-02    0.205E+00
RMM:  35    -0.646786540143E+03    0.23451E-01   -0.18517E-03  2926   0.545E-02    0.201E+00
RMM:  36    -0.646763861792E+03    0.22678E-01   -0.29370E-03  3003   0.649E-02    0.187E+00
RMM:  37    -0.646704816789E+03    0.59045E-01   -0.18432E-02  2999   0.168E-01    0.144E+00
RMM:  38    -0.646674683844E+03    0.30133E-01   -0.17765E-02  3051   0.166E-01    0.110E+00
RMM:  39    -0.646670460947E+03    0.42229E-02   -0.69267E-03  3138   0.104E-01    0.998E-01
RMM:  40    -0.646667928483E+03    0.25325E-02   -0.31558E-03  3069   0.575E-02    0.959E-01
RMM:  41    -0.646662196055E+03    0.57324E-02   -0.11577E-03  2669   0.387E-02    0.943E-01
RMM:  42    -0.646653291145E+03    0.89049E-02   -0.12577E-03  2735   0.402E-02    0.937E-01
RMM:  43    -0.646639910589E+03    0.13381E-01   -0.22100E-03  2823   0.533E-02    0.936E-01
RMM:  44    -0.646689945466E+03   -0.50035E-01   -0.17915E-02  2963   0.162E-01    0.907E-01
RMM:  45    -0.646701121287E+03   -0.11176E-01   -0.37379E-03  3004   0.684E-02    0.990E-01
RMM:  46    -0.646701903077E+03   -0.78179E-03   -0.73173E-04  2568   0.290E-02    0.103E+00
RMM:  47    -0.646678975832E+03    0.22927E-01   -0.31683E-03  2921   0.775E-02    0.102E+00
RMM:  48    -0.646668968016E+03    0.10008E-01   -0.16545E-03  2828   0.481E-02    0.973E-01
RMM:  49    -0.646687481919E+03   -0.18514E-01   -0.16900E-03  2834   0.566E-02    0.945E-01
RMM:  50    -0.646672173554E+03    0.15308E-01   -0.21916E-03  2985   0.713E-02
   3 F= -.65307490E+03 E0= -.65306078E+03  d E =-.191243E+00  mag=    -0.8802
       N       E                     dE             d eps       ncg     rms          rms(c)
DAV:   1    -0.646662368744E+03    0.25113E-01   -0.61236E-02  3272   0.664E-01    0.103E+00
RMM:   2    -0.646724076681E+03   -0.61708E-01   -0.76563E-02  2992   0.349E-01    0.160E+00
RMM:   3    -0.646718329867E+03    0.57468E-02   -0.22197E-02  3070   0.211E-01    0.120E+00
RMM:   4    -0.646717493348E+03    0.83652E-03   -0.34670E-03  3295   0.654E-02    0.126E+00
RMM:   5    -0.646671256880E+03    0.46236E-01   -0.28572E-02  2979   0.240E-01    0.118E+00
RMM:   6    -0.646662961922E+03    0.82950E-02   -0.12728E-02  2971   0.151E-01    0.119E+00
RMM:   7    -0.646639477309E+03    0.23485E-01   -0.10909E-02  3042   0.129E-01    0.124E+00
RMM:   8    -0.646650470879E+03   -0.10994E-01   -0.15415E-03  2728   0.438E-02    0.117E+00
RMM:   9    -0.646534423307E+03    0.11605E+00   -0.80570E-02  2973   0.333E-01    0.126E+00
RMM:  10    -0.646536592105E+03   -0.21688E-02   -0.59715E-03  3259   0.757E-02    0.124E+00
RMM:  11    -0.646583673300E+03   -0.47081E-01   -0.11227E-02  2882   0.115E-01    0.118E+00
RMM:  12    -0.646676967787E+03   -0.93294E-01   -0.76644E-02  2985   0.301E-01    0.934E-01
RMM:  13    -0.646769707437E+03   -0.92740E-01   -0.16799E-01  3005   0.465E-01    0.150E+00
RMM:  14    -0.646709623264E+03    0.60084E-01   -0.19114E-02  3001   0.211E-01    0.123E+00
RMM:  15    -0.646684599730E+03    0.25024E-01   -0.74780E-03  2977   0.122E-01    0.111E+00
RMM:  16    -0.646666459487E+03    0.18140E-01   -0.69010E-03  2996   0.112E-01    0.112E+00
RMM:  17    -0.646664956009E+03    0.15035E-02   -0.16859E-03  2928   0.523E-02    0.110E+00
RMM:  18    -0.646674999431E+03   -0.10043E-01   -0.35914E-04  2326   0.299E-02    0.107E+00
RMM:  19    -0.646650254348E+03    0.24745E-01   -0.33236E-03  2953   0.782E-02    0.114E+00
RMM:  20    -0.646680467773E+03   -0.30213E-01   -0.39877E-03  2949   0.870E-02    0.105E+00
RMM:  21    -0.646781588729E+03   -0.10112E+00   -0.12643E-01  2969   0.428E-01    0.162E+00
RMM:  22    -0.646871661810E+03   -0.90073E-01   -0.73234E-02  3066   0.328E-01    0.208E+00
RMM:  23    -0.646789087711E+03    0.82574E-01   -0.14932E-02  2963   0.200E-01    0.211E+00
RMM:  24    -0.646881984583E+03   -0.92897E-01   -0.26722E-02  2990   0.229E-01    0.216E+00
RMM:  25    -0.646879776156E+03    0.22084E-02   -0.61976E-03  3485   0.788E-02    0.226E+00
RMM:  26    -0.646801695634E+03    0.78081E-01   -0.13972E-02  2966   0.183E-01    0.221E+00
RMM:  27    -0.646782883757E+03    0.18812E-01   -0.59667E-03  3054   0.107E-01    0.208E+00
RMM:  28    -0.646794436842E+03   -0.11553E-01   -0.65924E-04  2598   0.411E-02    0.205E+00
RMM:  29    -0.646796194311E+03   -0.17575E-02   -0.12880E-04  2070   0.125E-02    0.205E+00
RMM:  30    -0.646792979746E+03    0.32146E-02   -0.11019E-04  2127   0.141E-02    0.205E+00
RMM:  31    -0.646788122728E+03    0.48570E-02   -0.16475E-04  2158   0.177E-02    0.201E+00
RMM:  32    -0.646791656112E+03   -0.35334E-02   -0.26727E-05  1822   0.939E-03    0.202E+00
RMM:  33    -0.646762605976E+03    0.29050E-01   -0.26485E-03  2958   0.751E-02    0.189E+00
RMM:  34    -0.646760064568E+03    0.25414E-02   -0.14643E-03  2899   0.471E-02    0.178E+00
RMM:  35    -0.646760365287E+03   -0.30072E-03   -0.46108E-04  2313   0.236E-02    0.173E+00
RMM:  36    -0.646725941239E+03    0.34424E-01   -0.82544E-03  2960   0.102E-01    0.146E+00
RMM:  37    -0.646687426044E+03    0.38515E-01   -0.18690E-02  2983   0.149E-01    0.122E+00
RMM:  38    -0.646585668945E+03    0.10176E+00   -0.60344E-02  2985   0.303E-01    0.118E+00
RMM:  39    -0.646572894225E+03    0.12775E-01   -0.12693E-02  3162   0.125E-01    0.113E+00
RMM:  40    -0.646485229393E+03    0.87665E-01   -0.37630E-02  3028   0.249E-01    0.132E+00
RMM:  41    -0.646505123622E+03   -0.19894E-01   -0.45977E-03  3246   0.625E-02    0.125E+00
RMM:  42    -0.646400689206E+03    0.10443E+00   -0.25585E-02  3006   0.207E-01    0.145E+00
RMM:  43    -0.646397664462E+03    0.30247E-02   -0.24797E-03  2944   0.460E-02    0.142E+00
RMM:  44    -0.646287717616E+03    0.10995E+00   -0.20224E-02  3027   0.191E-01    0.163E+00
RMM:  45    -0.646226886735E+03    0.60831E-01   -0.78505E-03  3083   0.112E-01    0.172E+00
RMM:  46    -0.646319476301E+03   -0.92590E-01   -0.76615E-03  2939   0.117E-01    0.153E+00
RMM:  47    -0.646231093989E+03    0.88382E-01   -0.10326E-02  2980   0.147E-01    0.168E+00
RMM:  48    -0.646267676091E+03   -0.36582E-01   -0.10024E-03  2819   0.457E-02    0.160E+00
RMM:  49    -0.646355227428E+03   -0.87551E-01   -0.93018E-03  2946   0.126E-01    0.141E+00
RMM:  50    -0.646462802103E+03   -0.10757E+00   -0.22775E-02  2987   0.183E-01
   4 F= -.65286628E+03 E0= -.65284888E+03  d E =0.173746E-01  mag=    -0.8236
       N       E                     dE             d eps       ncg     rms          rms(c)
DAV:   1    -0.646607562056E+03   -0.25233E+00   -0.43069E+00  3088   0.605E+00    0.116E+00
RMM:   2    -0.646732417306E+03   -0.12486E+00   -0.36069E-01  3038   0.109E+00    0.194E+00
RMM:   3    -0.646704476444E+03    0.27941E-01   -0.53507E-02  3210   0.394E-01    0.105E+00
RMM:   4    -0.646706060916E+03   -0.15845E-02   -0.22104E-02  3174   0.191E-01    0.111E+00
RMM:   5    -0.646685358389E+03    0.20703E-01   -0.18799E-02  2984   0.179E-01    0.112E+00
RMM:   6    -0.646704572909E+03   -0.19215E-01   -0.78266E-03  2955   0.103E-01    0.112E+00
RMM:   7    -0.646746219045E+03   -0.41646E-01   -0.79057E-02  2978   0.355E-01    0.169E+00
RMM:   8    -0.646382142909E+03    0.36408E+00   -0.38295E-01  2968   0.917E-01    0.176E+00
RMM:   9    -0.644657511740E+03    0.17246E+01   -0.12632E+00  2978   0.164E+00    0.423E+00
RMM:  10    -0.646539108804E+03   -0.18816E+01   -0.11336E+00  2993   0.132E+00    0.117E+00
RMM:  11    -0.646668630624E+03   -0.12952E+00   -0.26389E-01  3035   0.474E-01    0.909E-01
RMM:  12    -0.646580006480E+03    0.88624E-01   -0.72376E-02  2968   0.321E-01    0.117E+00
RMM:  13    -0.646614935531E+03   -0.34929E-01   -0.37146E-03  3038   0.840E-02    0.106E+00
RMM:  14    -0.646719775291E+03   -0.10484E+00   -0.13528E-01  2982   0.355E-01    0.839E-01
RMM:  15    -0.646737618514E+03   -0.17843E-01   -0.33373E-02  3109   0.146E-01    0.103E+00
RMM:  16    -0.646734036337E+03    0.35822E-02   -0.67590E-03  2851   0.564E-02    0.109E+00
RMM:  17    -0.646732363143E+03    0.16732E-02   -0.70062E-04  2176   0.210E-02    0.110E+00
RMM:  18    -0.646725730581E+03    0.66326E-02   -0.79755E-04  2299   0.314E-02    0.108E+00
RMM:  19    -0.646710082257E+03    0.15648E-01   -0.52613E-03  2888   0.751E-02    0.102E+00
RMM:  20    -0.646668811250E+03    0.41271E-01   -0.22751E-02  2970   0.159E-01    0.965E-01
RMM:  21    -0.646581578887E+03    0.87232E-01   -0.60355E-02  3024   0.264E-01    0.902E-01
RMM:  22    -0.646587151360E+03   -0.55725E-02   -0.43991E-03  2887   0.584E-02    0.925E-01
RMM:  23    -0.646589346638E+03   -0.21953E-02   -0.43671E-04  2245   0.175E-02    0.929E-01
RMM:  24    -0.646589102695E+03    0.24394E-03   -0.68645E-05  1936   0.722E-03    0.932E-01
RMM:  25    -0.646587945201E+03    0.11575E-02   -0.16520E-05  1739   0.509E-03    0.935E-01
RMM:  26    -0.646579359254E+03    0.85859E-02   -0.36246E-04  2122   0.223E-02    0.940E-01
RMM:  27    -0.646563205610E+03    0.16154E-01   -0.18849E-03  2429   0.471E-02    0.940E-01
RMM:  28    -0.646549056853E+03    0.14149E-01   -0.19719E-03  2454   0.488E-02    0.935E-01
RMM:  29    -0.646522546852E+03    0.26510E-01   -0.44650E-03  2764   0.787E-02    0.942E-01
RMM:  30    -0.646514812894E+03    0.77340E-02   -0.10897E-03  2392   0.388E-02    0.954E-01
RMM:  31    -0.646508167896E+03    0.66450E-02   -0.48176E-04  2206   0.266E-02    0.971E-01
RMM:  32    -0.646525867568E+03   -0.17700E-01   -0.44777E-04  2285   0.303E-02    0.955E-01
RMM:  33    -0.646556845706E+03   -0.30978E-01   -0.28180E-03  2789   0.678E-02    0.920E-01
RMM:  34    -0.646617713987E+03   -0.60868E-01   -0.20100E-02  2985   0.157E-01    0.872E-01
RMM:  35    -0.646674695029E+03   -0.56981E-01   -0.36842E-02  3037   0.193E-01    0.855E-01
RMM:  36    -0.646701982555E+03   -0.27288E-01   -0.23046E-02  3090   0.132E-01    0.903E-01
RMM:  37    -0.646700502802E+03    0.14798E-02   -0.49946E-03  2751   0.399E-02    0.940E-01
RMM:  38    -0.646698364368E+03    0.21384E-02   -0.41828E-04  2023   0.151E-02    0.946E-01
RMM:  39    -0.646695957333E+03    0.24070E-02   -0.73177E-05  1917   0.108E-02    0.947E-01
RMM:  40    -0.646687467914E+03    0.84894E-02   -0.14088E-03  2386   0.377E-02    0.927E-01
RMM:  41    -0.646685984926E+03    0.14830E-02   -0.29161E-04  2098   0.177E-02    0.914E-01
RMM:  42    -0.646685079367E+03    0.90556E-03   -0.10493E-04  1855   0.101E-02    0.908E-01
RMM:  43    -0.646682093066E+03    0.29863E-02   -0.30762E-04  1962   0.157E-02    0.895E-01
RMM:  44    -0.646682636035E+03   -0.54297E-03   -0.24868E-05  1475   0.433E-03    0.896E-01
RMM:  45    -0.646687899826E+03   -0.52638E-02   -0.34466E-04  2001   0.186E-02    0.903E-01
RMM:  46    -0.646693863628E+03   -0.59638E-02   -0.45748E-04  2129   0.222E-02    0.913E-01
RMM:  47    -0.646704003964E+03   -0.10140E-01   -0.15358E-03  2394   0.375E-02    0.928E-01
RMM:  48    -0.646702382478E+03    0.16215E-02   -0.11799E-04  1968   0.105E-02    0.936E-01
RMM:  49    -0.646703743760E+03   -0.13613E-02   -0.10942E-04  2145   0.175E-02    0.929E-01
RMM:  50    -0.646714385097E+03   -0.10641E-01   -0.11491E-03  2767   0.422E-02
   5 F= -.65312008E+03 E0= -.65310890E+03  d E =-.253795E+00  mag=    -0.9371
       N       E                     dE             d eps       ncg     rms          rms(c)
DAV:   1    -0.646710480062E+03   -0.67363E-02   -0.55220E-04  3472   0.566E-02    0.933E-01
RMM:   2    -0.646758042131E+03   -0.47562E-01   -0.65629E-02  2945   0.326E-01    0.139E+00
RMM:   3    -0.646762829881E+03   -0.47878E-02   -0.12982E-02  3104   0.150E-01    0.134E+00
RMM:   4    -0.646747274972E+03    0.15555E-01   -0.13678E-02  2954   0.166E-01    0.150E+00
RMM:   5    -0.646616599658E+03    0.13068E+00   -0.79235E-02  2967   0.383E-01    0.116E+00
RMM:   6    -0.646761676720E+03   -0.14508E+00   -0.11683E-01  2978   0.409E-01    0.983E-01
RMM:   7    -0.646858867057E+03   -0.97190E-01   -0.23358E-01  2978   0.649E-01    0.165E+00
RMM:   8    -0.646909871396E+03   -0.51004E-01   -0.12998E-01  3070   0.450E-01    0.160E+00
RMM:   9    -0.646863554293E+03    0.46317E-01   -0.45123E-02  2971   0.332E-01    0.186E+00
RMM:  10    -0.646825353769E+03    0.38201E-01   -0.20135E-02  3023   0.213E-01    0.199E+00
RMM:  11    -0.646836949596E+03   -0.11596E-01   -0.15833E-03  3051   0.646E-02    0.191E+00
RMM:  12    -0.646823415460E+03    0.13534E-01   -0.75607E-03  3040   0.123E-01    0.189E+00
RMM:  13    -0.646868010286E+03   -0.44595E-01   -0.23456E-02  3011   0.224E-01    0.165E+00
RMM:  14    -0.646907951549E+03   -0.39941E-01   -0.10211E-02  3021   0.137E-01    0.163E+00
RMM:  15    -0.646969138778E+03   -0.61187E-01   -0.57549E-02  2952   0.359E-01    0.725E-01
RMM:  16    -0.646981992265E+03   -0.12853E-01   -0.12235E-02  3579   0.117E-01    0.663E-01
RMM:  17    -0.646979560988E+03    0.24313E-02   -0.12917E-03  2936   0.481E-02    0.761E-01
RMM:  18    -0.646959263796E+03    0.20297E-01   -0.14288E-02  2962   0.184E-01    0.128E+00
RMM:  19    -0.647010947518E+03   -0.51684E-01   -0.21556E-02  2964   0.234E-01    0.501E-01
RMM:  20    -0.647019012135E+03   -0.80646E-02   -0.11601E-02  3044   0.143E-01    0.190E-01
RMM:  21    -0.647019757682E+03   -0.74555E-03   -0.25802E-03  3362   0.556E-02    0.180E-01
RMM:  22    -0.647020525370E+03   -0.76769E-03   -0.67092E-04  2990   0.308E-02    0.163E-01
RMM:  23    -0.647020814575E+03   -0.28920E-03   -0.17037E-04  2212   0.225E-02    0.158E-01
RMM:  24    -0.647018951758E+03    0.18628E-02   -0.29310E-03  2938   0.861E-02    0.441E-01
RMM:  25    -0.647022905780E+03   -0.39540E-02   -0.14345E-03  2945   0.641E-02    0.189E-01
RMM:  26    -0.647023171477E+03   -0.26570E-03   -0.24605E-04  2404   0.236E-02    0.113E-01
RMM:  27    -0.647023396688E+03   -0.22521E-03   -0.16309E-04  2214   0.183E-02    0.642E-02
RMM:  28    -0.647023475521E+03   -0.78833E-04   -0.11000E-04  2145   0.149E-02    0.330E-02
RMM:  29    -0.647023547929E+03   -0.72409E-04   -0.23625E-05  1911   0.802E-03    0.161E-02
RMM:  30    -0.647023649258E+03   -0.10133E-03   -0.65981E-06  1719   0.509E-03    0.189E-02
RMM:  31    -0.647023745418E+03   -0.96160E-04   -0.19333E-05  1859   0.757E-03    0.980E-03
RMM:  32    -0.647023802252E+03   -0.56835E-04   -0.49997E-06  1626   0.460E-03    0.442E-03
RMM:  33    -0.647023824123E+03   -0.21871E-04   -0.25343E-06  1118   0.256E-03    0.606E-03
RMM:  34    -0.647023823927E+03    0.19592E-06   -0.23415E-06  1305   0.272E-03
   6 F= -.65342950E+03 E0= -.65341250E+03  d E =-.563216E+00  mag=    -1.4644
       N       E                     dE             d eps       ncg     rms          rms(c)
DAV:   1    -0.647031165924E+03   -0.73418E-02   -0.60147E-01  3144   0.228E+00    0.231E-01
RMM:   2    -0.647032628223E+03   -0.14623E-02   -0.21420E-02  3015   0.357E-01    0.167E-01
RMM:   3    -0.647032208140E+03    0.42008E-03   -0.18539E-03  3454   0.900E-02    0.153E-01
RMM:   4    -0.647031912000E+03    0.29614E-03   -0.79951E-04  3105   0.497E-02    0.115E-01
RMM:   5    -0.647031710883E+03    0.20112E-03   -0.26694E-04  2925   0.331E-02    0.301E-02
RMM:   6    -0.647031900223E+03   -0.18934E-03   -0.26712E-05  1973   0.112E-02    0.124E-02
RMM:   7    -0.647032115573E+03   -0.21535E-03   -0.12097E-05  1796   0.633E-03    0.639E-03
RMM:   8    -0.647032253866E+03   -0.13829E-03   -0.64064E-06  1774   0.412E-03    0.397E-03
RMM:   9    -0.647032378679E+03   -0.12481E-03   -0.53244E-06  1381   0.294E-03    0.181E-03
RMM:  10    -0.647032423039E+03   -0.44361E-04   -0.25573E-06  1186   0.221E-03    0.115E-03
RMM:  11    -0.647032439302E+03   -0.16263E-04   -0.83693E-07   901   0.178E-03    0.573E-04
RMM:  12    -0.647032446492E+03   -0.71899E-05   -0.78071E-07   845   0.171E-03
   7 F= -.65343734E+03 E0= -.65341919E+03  d E =-.571053E+00  mag=    -1.4906
       N       E                     dE             d eps       ncg     rms          rms(c)
DAV:   1    -0.647032972055E+03   -0.53275E-03   -0.29787E+00  3376   0.588E+00    0.857E-01
RMM:   2    -0.647076390352E+03   -0.43418E-01   -0.26880E-01  3092   0.970E-01    0.170E+00
RMM:   3    -0.647044661447E+03    0.31729E-01   -0.46778E-02  3171   0.369E-01    0.354E-01
RMM:   4    -0.647043716581E+03    0.94487E-03   -0.39095E-03  3347   0.110E-01    0.231E-01
RMM:   5    -0.647043123749E+03    0.59283E-03   -0.10847E-03  2950   0.699E-02    0.884E-02
RMM:   6    -0.647043150065E+03   -0.26316E-04   -0.23067E-04  3009   0.331E-02    0.253E-02
RMM:   7    -0.647043214090E+03   -0.64025E-04   -0.25546E-05  1912   0.103E-02    0.152E-02
RMM:   8    -0.647043276226E+03   -0.62136E-04   -0.10180E-05  1811   0.710E-03    0.838E-03
RMM:   9    -0.647043327312E+03   -0.51086E-04   -0.56195E-06  1779   0.473E-03    0.437E-03
RMM:  10    -0.647043371540E+03   -0.44228E-04   -0.29170E-06  1463   0.329E-03    0.214E-03
RMM:  11    -0.647043398151E+03   -0.26611E-04   -0.17376E-06  1213   0.243E-03    0.119E-03
RMM:  12    -0.647043412443E+03   -0.14291E-04   -0.11787E-06  1143   0.205E-03    0.833E-04
RMM:  13    -0.647043424599E+03   -0.12157E-04   -0.11837E-06  1055   0.192E-03    0.592E-04
RMM:  14    -0.647043430369E+03   -0.57696E-05   -0.47710E-07   819   0.163E-03
   8 F= -.65344441E+03 E0= -.65342656E+03  d E =-.707393E-02  mag=    -1.4833
       N       E                     dE             d eps       ncg     rms          rms(c)
DAV:   1    -0.647043791009E+03   -0.36641E-03   -0.38606E-01  3368   0.212E+00    0.310E-01
RMM:   2    -0.647049469734E+03   -0.56787E-02   -0.35890E-02  3094   0.354E-01    0.627E-01
RMM:   3    -0.647045272915E+03    0.41968E-02   -0.62792E-03  3168   0.134E-01    0.132E-01
RMM:   4    -0.647045181393E+03    0.91522E-04   -0.51167E-04  3222   0.405E-02    0.828E-02
RMM:   5    -0.647045116655E+03    0.64738E-04   -0.14991E-04  2916   0.260E-02    0.312E-02
RMM:   6    -0.647045143824E+03   -0.27170E-04   -0.28606E-05  1901   0.121E-02    0.100E-02
RMM:   7    -0.647045154605E+03   -0.10780E-04   -0.59090E-06  1782   0.563E-03    0.614E-03
RMM:   8    -0.647045161574E+03   -0.69689E-05   -0.18381E-06  1676   0.322E-03
   9 F= -.65344764E+03 E0= -.65342969E+03  d E =-.103079E-01  mag=    -1.4856
       N       E                     dE             d eps       ncg     rms          rms(c)
DAV:   1    -0.647048310309E+03   -0.31557E-02   -0.10820E+00  3384   0.350E+00    0.402E-01
RMM:   2    -0.647055737013E+03   -0.74267E-02   -0.72352E-02  3079   0.556E-01    0.474E-01
RMM:   3    -0.647053664985E+03    0.20720E-02   -0.91259E-03  3132   0.183E-01    0.313E-01
RMM:   4    -0.647052782991E+03    0.88199E-03   -0.11825E-03  3156   0.688E-02    0.144E-01
RMM:   5    -0.647052468857E+03    0.31413E-03   -0.50655E-04  2944   0.469E-02    0.548E-02
RMM:   6    -0.647052543146E+03   -0.74289E-04   -0.96236E-05  2767   0.225E-02    0.144E-02
RMM:   7    -0.647052641339E+03   -0.98193E-04   -0.12128E-05  1832   0.741E-03    0.890E-03
RMM:   8    -0.647052723748E+03   -0.82409E-04   -0.56445E-06  1779   0.488E-03    0.444E-03
RMM:   9    -0.647052781063E+03   -0.57315E-04   -0.33391E-06  1533   0.303E-03    0.207E-03
RMM:  10    -0.647052810909E+03   -0.29846E-04   -0.14592E-06  1203   0.217E-03    0.114E-03
RMM:  11    -0.647052826272E+03   -0.15362E-04   -0.65689E-07   868   0.174E-03    0.682E-04
RMM:  12    -0.647052833402E+03   -0.71306E-05   -0.71108E-07   903   0.170E-03
  10 F= -.65345382E+03 E0= -.65343446E+03  d E =-.617582E-02  mag=    -1.4938
       N       E                     dE             d eps       ncg     rms          rms(c)
DAV:   1    -0.647053022105E+03   -0.19583E-03   -0.74935E-02  3456   0.922E-01    0.107E-01
RMM:   2    -0.647053517208E+03   -0.49510E-03   -0.50295E-03  3076   0.147E-01    0.126E-01
RMM:   3    -0.647053370824E+03    0.14638E-03   -0.63208E-04  3017   0.482E-02    0.825E-02
RMM:   4    -0.647053304925E+03    0.65900E-04   -0.78786E-05  2163   0.185E-02    0.370E-02
RMM:   5    -0.647053277560E+03    0.27365E-04   -0.36638E-05  1911   0.136E-02    0.136E-02
RMM:   6    -0.647053301933E+03   -0.24373E-04   -0.76740E-06  1766   0.749E-03    0.423E-03
RMM:   7    -0.647053321572E+03   -0.19639E-04   -0.20304E-06  1713   0.393E-03    0.209E-03
RMM:   8    -0.647053337387E+03   -0.15815E-04   -0.70510E-07  1169   0.226E-03    0.104E-03
RMM:   9    -0.647053344610E+03   -0.72226E-05   -0.31638E-07   846   0.171E-03
  11 F= -.65345474E+03 E0= -.65343574E+03  d E =-.709628E-02  mag=    -1.4919
       N       E                     dE             d eps       ncg     rms          rms(c)
DAV:   1    -0.647054066757E+03   -0.72937E-03   -0.29118E-01  3408   0.187E+00    0.187E-01
RMM:   2    -0.647056307249E+03   -0.22405E-02   -0.23705E-02  2980   0.287E-01    0.143E-01
RMM:   3    -0.647056113581E+03    0.19367E-03   -0.20368E-03  3465   0.763E-02    0.138E-01
RMM:   4    -0.647055909651E+03    0.20393E-03   -0.30041E-04  2633   0.303E-02    0.704E-02
RMM:   5    -0.647055858599E+03    0.51052E-04   -0.61210E-05  2162   0.164E-02    0.362E-02
RMM:   6    -0.647055884977E+03   -0.26378E-04   -0.46551E-05  1979   0.148E-02    0.900E-03
RMM:   7    -0.647055935094E+03   -0.50117E-04   -0.57740E-06  1780   0.623E-03    0.619E-03
RMM:   8    -0.647055990585E+03   -0.55491E-04   -0.32541E-06  1760   0.385E-03    0.241E-03
RMM:   9    -0.647056016437E+03   -0.25852E-04   -0.12967E-06  1150   0.222E-03    0.133E-03
RMM:  10    -0.647056028114E+03   -0.11677E-04   -0.58354E-07   872   0.181E-03    0.780E-04
RMM:  11    -0.647056035161E+03   -0.70469E-05   -0.37946E-07   752   0.163E-03
  12 F= -.65345743E+03 E0= -.65343837E+03  d E =-.268564E-02  mag=    -1.5024
       N       E                     dE             d eps       ncg     rms          rms(c)
DAV:   1    -0.647056019658E+03    0.84557E-05   -0.27009E-02  3440   0.568E-01    0.572E-02
RMM:   2    -0.647056212256E+03   -0.19260E-03   -0.21862E-03  2982   0.871E-02    0.426E-02
RMM:   3    -0.647056197199E+03    0.15057E-04   -0.18163E-04  2250   0.231E-02    0.418E-02
RMM:   4    -0.647056177266E+03    0.19933E-04   -0.29197E-05  1895   0.116E-02    0.219E-02
RMM:   5    -0.647056171136E+03    0.61302E-05   -0.69354E-06  1780   0.684E-03
  13 F= -.65345756E+03 E0= -.65343849E+03  d E =-.281599E-02  mag=    -1.5050
       N       E                     dE             d eps       ncg     rms          rms(c)
DAV:   1    -0.647056200104E+03   -0.22839E-04   -0.16161E-01  3472   0.142E+00    0.132E-01
RMM:   2    -0.647057431692E+03   -0.12316E-02   -0.13159E-02  2997   0.200E-01    0.686E-02
RMM:   3    -0.647057254689E+03    0.17700E-03   -0.62836E-04  3428   0.496E-02    0.476E-02
RMM:   4    -0.647057250284E+03    0.44050E-05   -0.77139E-05  2058   0.162E-02
  14 F= -.65345882E+03 E0= -.65343985E+03  d E =-.126199E-02  mag=    -1.5072
       N       E                     dE             d eps       ncg     rms          rms(c)
DAV:   1    -0.647057011948E+03    0.24274E-03   -0.50414E-02  3480   0.793E-01    0.809E-02
RMM:   2    -0.647057438724E+03   -0.42678E-03   -0.42720E-03  2998   0.113E-01    0.880E-02
RMM:   3    -0.647057346912E+03    0.91812E-04   -0.39735E-04  2595   0.346E-02    0.620E-02
RMM:   4    -0.647057319065E+03    0.27847E-04   -0.46622E-05  1943   0.151E-02    0.264E-02
RMM:   5    -0.647057329416E+03   -0.10350E-04   -0.18192E-05  1830   0.969E-03    0.117E-02
RMM:   6    -0.647057349742E+03   -0.20326E-04   -0.58516E-06  1766   0.615E-03    0.304E-03
RMM:   7    -0.647057362264E+03   -0.12522E-04   -0.15340E-06  1699   0.336E-03    0.180E-03
RMM:   8    -0.647057370682E+03   -0.84179E-05   -0.52027E-07  1014   0.191E-03
  15 F= -.65345904E+03 E0= -.65344008E+03  d E =-.147837E-02  mag=    -1.5103
       N       E                     dE             d eps       ncg     rms          rms(c)
DAV:   1    -0.647057387202E+03   -0.24938E-04   -0.13543E-01  3416   0.130E+00    0.129E-01
RMM:   2    -0.647058729966E+03   -0.13428E-02   -0.12895E-02  2992   0.187E-01    0.155E-01
RMM:   3    -0.647058440635E+03    0.28933E-03   -0.10929E-03  3205   0.562E-02    0.847E-02
RMM:   4    -0.647058382106E+03    0.58529E-04   -0.10914E-04  2110   0.193E-02    0.370E-02
RMM:   5    -0.647058373168E+03    0.89384E-05   -0.20421E-05  1877   0.100E-02
  16 F= -.65345996E+03 E0= -.65344113E+03  d E =-.926285E-03  mag=    -1.5094
       N       E                     dE             d eps       ncg     rms          rms(c)
DAV:   1    -0.647057664526E+03    0.71758E-03   -0.14449E-01  3472   0.134E+00    0.135E-01
RMM:   2    -0.647059100479E+03   -0.14360E-02   -0.13847E-02  2995   0.194E-01    0.158E-01
RMM:   3    -0.647058801247E+03    0.29923E-03   -0.11835E-03  3246   0.584E-02    0.899E-02
RMM:   4    -0.647058735717E+03    0.65530E-04   -0.12267E-04  2137   0.201E-02    0.389E-02
RMM:   5    -0.647058727764E+03    0.79528E-05   -0.21502E-05  1895   0.101E-02
  17 F= -.65346023E+03 E0= -.65344152E+03  d E =-.119207E-02  mag=    -1.5078
       N       E                     dE             d eps       ncg     rms          rms(c)
DAV:   1    -0.647058360947E+03    0.37477E-03   -0.15428E-01  3440   0.140E+00    0.143E-01
RMM:   2    -0.647059981445E+03   -0.16205E-02   -0.15950E-02  3006   0.201E-01    0.138E-01
RMM:   3    -0.647059752634E+03    0.22881E-03   -0.12933E-03  3244   0.607E-02    0.105E-01
RMM:   4    -0.647059659700E+03    0.92934E-04   -0.16441E-04  2153   0.223E-02    0.391E-02
RMM:   5    -0.647059653004E+03    0.66958E-05   -0.22452E-05  1920   0.102E-02
  18 F= -.65346101E+03 E0= -.65344239E+03  d E =-.783880E-03  mag=    -1.5069
       N       E                     dE             d eps       ncg     rms          rms(c)
DAV:   1    -0.647058475734E+03    0.11840E-02   -0.19209E-01  3416   0.156E+00    0.160E-01
RMM:   2    -0.647060496691E+03   -0.20210E-02   -0.19892E-02  3004   0.224E-01    0.154E-01
RMM:   3    -0.647060206871E+03    0.28982E-03   -0.16123E-03  3317   0.678E-02    0.117E-01
RMM:   4    -0.647060089548E+03    0.11732E-03   -0.20687E-04  2229   0.246E-02    0.438E-02
RMM:   5    -0.647060080354E+03    0.91935E-05   -0.27355E-05  1945   0.110E-02
  19 F= -.65346127E+03 E0= -.65344275E+03  d E =-.104156E-02  mag=    -1.5058
       N       E                     dE             d eps       ncg     rms          rms(c)
DAV:   1    -0.647059307980E+03    0.78157E-03   -0.15635E-01  3472   0.142E+00    0.143E-01
RMM:   2    -0.647060882206E+03   -0.15742E-02   -0.16397E-02  3003   0.203E-01    0.721E-02
RMM:   3    -0.647060702538E+03    0.17967E-03   -0.78360E-04  3291   0.521E-02    0.540E-02
RMM:   4    -0.647060697312E+03    0.52260E-05   -0.99886E-05  2076   0.167E-02
  20 F= -.65346194E+03 E0= -.65344334E+03  d E =-.674256E-03  mag=    -1.5048
