 vasp.5.4.4.18Apr17-6-g9f103f2a35 (build Sep 02 2021 13:24:58) complex          
  
 executed on             LinuxIFC date 2023.01.15  13:02:11
 running on   48 total cores
 distrk:  each k-point on   48 cores,    1 groups
 distr:  one band on NCORES_PER_BAND=  12 cores,    4 groups


--------------------------------------------------------------------------------------------------------


 INCAR:
 POTCAR:    PAW_PBE C 08Apr2002                   
 POTCAR:    PAW_PBE N 08Apr2002                   
 POTCAR:    PAW_PBE C 08Apr2002                   
 POTCAR:    PAW_PBE Cr_pv 02Aug2007               
 POTCAR:    PAW_PBE C 08Apr2002                   
   SHA256 =  253f7b50bb8d59471dbedb8285d89021f4a42ed1a2c5d38a03a736e69125dd95 C/
   COPYR  = (c) Copyright 08Apr2002 Georg Kresse                                
   COPYR  = This file is part of the software VASP. Any use, copying, and all ot
   COPYR  = If you do not have a valid VASP license, you may not use, copy or di
   VRHFIN =C: s2p2                                                              
   LEXCH  = PE                                                                  
   EATOM  =   147.1560 eV,   10.8157 Ry                                         
                                                                                
   TITEL  = PAW_PBE C 08Apr2002                                                 
   LULTRA =        F    use ultrasoft PP ?                                      
   IUNSCR =        1    unscreen: 0-lin 1-nonlin 2-no                           
   RPACOR =    1.200    partial core radius                                     
   POMASS =   12.011; ZVAL   =    4.000    mass and valenz                      
   RCORE  =    1.500    outmost cutoff radius                                   
   RWIGS  =    1.630; RWIGS  =    0.863    wigner-seitz radius (au A)           
   ENMAX  =  400.000; ENMIN  =  300.000 eV                                      
   ICORE  =        2    local potential                                         
   LCOR   =        T    correct aug charges                                     
   LPAW   =        T    paw PP                                                  
   EAUG   =  644.873                                                            
   DEXC   =    0.000                                                            
   RMAX   =    1.529    core radius for proj-oper                               
   RAUG   =    1.300    factor for augmentation sphere                          
   RDEP   =    1.501    radius for radial grids                                 
   RDEPT  =    1.300    core radius for aug-charge                              
                                                                                
   Atomic configuration                                                         
    4 entries                                                                   
     n  l   j            E        occ.                                          
     1  0  0.50      -273.3789   2.0000                                         
     2  0  0.50       -13.7508   2.0000                                         
     2  1  0.50        -5.2854   2.0000                                         
     3  2  1.50        -5.4423   0.0000                                         
   Description                                                                  
     l       E           TYP  RCUT    TYP  RCUT                                 
     0    -13.7508458     23  1.200                                             
     0     -8.2022199     23  1.200                                             
     1     -5.2854383     23  1.500                                             
     1     34.0145650     23  1.500                                             
     2     -5.4423304      7  1.500                                             
  local pseudopotential read in
  partial core-charges read in
  partial kinetic energy density read in
  atomic valenz-charges read in
  non local Contribution for L=           0  read in
    real space projection operators read in
  non local Contribution for L=           0  read in
    real space projection operators read in
  non local Contribution for L=           1  read in
    real space projection operators read in
  non local Contribution for L=           1  read in
    real space projection operators read in
    PAW grid and wavefunctions read in
 
   number of l-projection  operators is LMAX  =           4
   number of lm-projection operators is LMMAX =           8
 
 POTCAR:    PAW_PBE N 08Apr2002                   
   SHA256 =  e053789ff3a61a86a1b75d8a110fcc91f86041011e7b0817c7c99e4e8a6349d7 N/
   COPYR  = (c) Copyright 08Apr2002 Georg Kresse                                
   COPYR  = This file is part of the software VASP. Any use, copying, and all ot
   COPYR  = If you do not have a valid VASP license, you may not use, copy or di
   VRHFIN =N: s2p3                                                              
   LEXCH  = PE                                                                  
   EATOM  =   264.5486 eV,   19.4438 Ry                                         
                                                                                
   TITEL  = PAW_PBE N 08Apr2002                                                 
   LULTRA =        F    use ultrasoft PP ?                                      
   IUNSCR =        1    unscreen: 0-lin 1-nonlin 2-no                           
   RPACOR =    1.200    partial core radius                                     
   POMASS =   14.001; ZVAL   =    5.000    mass and valenz                      
   RCORE  =    1.500    outmost cutoff radius                                   
   RWIGS  =    1.400; RWIGS  =    0.741    wigner-seitz radius (au A)           
   ENMAX  =  400.000; ENMIN  =  300.000 eV                                      
   ICORE  =        2    local potential                                         
   LCOR   =        T    correct aug charges                                     
   LPAW   =        T    paw PP                                                  
   EAUG   =  627.112                                                            
   DEXC   =    0.000                                                            
   RMAX   =    1.529    core radius for proj-oper                               
   RAUG   =    1.300    factor for augmentation sphere                          
   RDEP   =    1.514    radius for radial grids                                 
   RDEPT  =    1.338    core radius for aug-charge                              
                                                                                
   Atomic configuration                                                         
    4 entries                                                                   
     n  l   j            E        occ.                                          
     1  0  0.50      -384.7179   2.0000                                         
     2  0  0.50       -18.5828   2.0000                                         
     2  1  0.50        -7.0898   3.0000                                         
     3  2  1.50        -6.8029   0.0000                                         
   Description                                                                  
     l       E           TYP  RCUT    TYP  RCUT                                 
     0    -18.5828119     23  1.200                                             
     0    -13.5018863     23  1.200                                             
     1     -7.0897853     23  1.500                                             
     1      9.5240782     23  1.500                                             
     2     -6.8029130      7  1.500                                             
  local pseudopotential read in
  partial core-charges read in
  partial kinetic energy density read in
  atomic valenz-charges read in
  non local Contribution for L=           0  read in
    real space projection operators read in
  non local Contribution for L=           0  read in
    real space projection operators read in
  non local Contribution for L=           1  read in
    real space projection operators read in
  non local Contribution for L=           1  read in
    real space projection operators read in
    PAW grid and wavefunctions read in
 
   number of l-projection  operators is LMAX  =           4
   number of lm-projection operators is LMMAX =           8
 
 POTCAR:    PAW_PBE C 08Apr2002                   
   SHA256 =  253f7b50bb8d59471dbedb8285d89021f4a42ed1a2c5d38a03a736e69125dd95 C/
   COPYR  = (c) Copyright 08Apr2002 Georg Kresse                                
   COPYR  = This file is part of the software VASP. Any use, copying, and all ot
   COPYR  = If you do not have a valid VASP license, you may not use, copy or di
   VRHFIN =C: s2p2                                                              
   LEXCH  = PE                                                                  
   EATOM  =   147.1560 eV,   10.8157 Ry                                         
                                                                                
   TITEL  = PAW_PBE C 08Apr2002                                                 
   LULTRA =        F    use ultrasoft PP ?                                      
   IUNSCR =        1    unscreen: 0-lin 1-nonlin 2-no                           
   RPACOR =    1.200    partial core radius                                     
   POMASS =   12.011; ZVAL   =    4.000    mass and valenz                      
   RCORE  =    1.500    outmost cutoff radius                                   
   RWIGS  =    1.630; RWIGS  =    0.863    wigner-seitz radius (au A)           
   ENMAX  =  400.000; ENMIN  =  300.000 eV                                      
   ICORE  =        2    local potential                                         
   LCOR   =        T    correct aug charges                                     
   LPAW   =        T    paw PP                                                  
   EAUG   =  644.873                                                            
   DEXC   =    0.000                                                            
   RMAX   =    1.529    core radius for proj-oper                               
   RAUG   =    1.300    factor for augmentation sphere                          
   RDEP   =    1.501    radius for radial grids                                 
   RDEPT  =    1.300    core radius for aug-charge                              
                                                                                
   Atomic configuration                                                         
    4 entries                                                                   
     n  l   j            E        occ.                                          
     1  0  0.50      -273.3789   2.0000                                         
     2  0  0.50       -13.7508   2.0000                                         
     2  1  0.50        -5.2854   2.0000                                         
     3  2  1.50        -5.4423   0.0000                                         
   Description                                                                  
     l       E           TYP  RCUT    TYP  RCUT                                 
     0    -13.7508458     23  1.200                                             
     0     -8.2022199     23  1.200                                             
     1     -5.2854383     23  1.500                                             
     1     34.0145650     23  1.500                                             
     2     -5.4423304      7  1.500                                             
  local pseudopotential read in
  partial core-charges read in
  partial kinetic energy density read in
  atomic valenz-charges read in
  non local Contribution for L=           0  read in
    real space projection operators read in
  non local Contribution for L=           0  read in
    real space projection operators read in
  non local Contribution for L=           1  read in
    real space projection operators read in
  non local Contribution for L=           1  read in
    real space projection operators read in
    PAW grid and wavefunctions read in
 
   number of l-projection  operators is LMAX  =           4
   number of lm-projection operators is LMMAX =           8
 
 POTCAR:    PAW_PBE Cr_pv 02Aug2007               
   SHA256 =  c9a7df34d3cdbacf1090e328ef39c0b420964e11c23f63548d1ac9dd218cdba0 Cr
   COPYR  = (c) Copyright 02Aug2007 Georg Kresse                                
   COPYR  = This file is part of the software VASP. Any use, copying, and all ot
   COPYR  = If you do not have a valid VASP license, you may not use, copy or di
   VRHFIN =Cr : p6d5s1                                                          
   LEXCH  = PE                                                                  
   EATOM  =  1647.9177 eV,  121.1185 Ry                                         
                                                                                
   TITEL  = PAW_PBE Cr_pv 02Aug2007                                             
   LULTRA =        F    use ultrasoft PP ?                                      
   IUNSCR =        1    unscreen: 0-lin 1-nonlin 2-no                           
   RPACOR =    2.080    partial core radius                                     
   POMASS =   51.996; ZVAL   =   12.000    mass and valenz                      
   RCORE  =    2.300    outmost cutoff radius                                   
   RWIGS  =    2.500; RWIGS  =    1.323    wigner-seitz radius (au A)           
   ENMAX  =  265.681; ENMIN  =  199.261 eV                                      
   ICORE  =        3    local potential                                         
   LCOR   =        T    correct aug charges                                     
   LPAW   =        T    paw PP                                                  
   EAUG   =  519.424                                                            
   DEXC   =    0.000                                                            
   RMAX   =    2.356    core radius for proj-oper                               
   RAUG   =    1.300    factor for augmentation sphere                          
   RDEP   =    2.447    radius for radial grids                                 
   RDEPT  =    1.882    core radius for aug-charge                              
                                                                                
   Atomic configuration                                                         
    8 entries                                                                   
     n  l   j            E        occ.                                          
     1  0  0.50     -5880.4963   2.0000                                         
     2  0  0.50      -667.0865   2.0000                                         
     2  1  1.50      -560.6250   6.0000                                         
     3  0  0.50       -73.9860   2.0000                                         
     3  1  1.50       -45.4378   6.0000                                         
     3  2  2.50        -2.9137   5.0000                                         
     4  0  0.50        -4.0071   1.0000                                         
     4  3  2.50        -1.3606   0.0000                                         
   Description                                                                  
     l       E           TYP  RCUT    TYP  RCUT                                 
     1    -45.4377911     23  2.000                                             
     1      1.3605826     23  2.000                                             
     2     -2.9136672     23  2.300                                             
     2     -4.2742498     23  2.300                                             
     0     -4.0071320     23  2.300                                             
     0      9.4498803     23  2.300                                             
     3      2.7211652     23  2.300                                             
  local pseudopotential read in
  partial core-charges read in
  partial kinetic energy density read in
  atomic valenz-charges read in
  non local Contribution for L=           1  read in
    real space projection operators read in
  non local Contribution for L=           1  read in
    real space projection operators read in
  non local Contribution for L=           2  read in
    real space projection operators read in
  non local Contribution for L=           2  read in
    real space projection operators read in
  non local Contribution for L=           0  read in
    real space projection operators read in
  non local Contribution for L=           0  read in
    real space projection operators read in
    PAW grid and wavefunctions read in
 
   number of l-projection  operators is LMAX  =           6
   number of lm-projection operators is LMMAX =          18
 
 Optimization of the real space projectors (new method)

 maximal supplied QI-value         = 25.13
 optimisation between [QCUT,QGAM] = [ 11.81, 23.88] = [ 39.08,159.64] Ry 
 Optimized for a Real-space Cutoff    1.18 Angstroem

   l    n(q)    QCUT    max X(q) W(low)/X(q) W(high)/X(q)  e(spline) 
   0      8    11.813   115.676    0.10E-03    0.16E-03    0.35E-06
   0      8    11.813    87.132    0.10E-03    0.16E-03    0.35E-06
   1      8    11.813     4.429    0.16E-03    0.13E-04    0.22E-06
   1      8    11.813     2.733    0.13E-03    0.10E-04    0.18E-06
 Optimization of the real space projectors (new method)

 maximal supplied QI-value         = 25.13
 optimisation between [QCUT,QGAM] = [ 11.81, 23.88] = [ 39.08,159.64] Ry 
 Optimized for a Real-space Cutoff    1.41 Angstroem

   l    n(q)    QCUT    max X(q) W(low)/X(q) W(high)/X(q)  e(spline) 
   0     10    11.813    79.467    0.48E-04    0.30E-04    0.67E-06
   0     10    11.813    66.151    0.47E-04    0.30E-04    0.67E-06
   1     10    11.813    20.169    0.11E-03    0.17E-03    0.11E-05
   1     10    11.813    14.454    0.11E-03    0.17E-03    0.11E-05
 Optimization of the real space projectors (new method)

 maximal supplied QI-value         = 25.13
 optimisation between [QCUT,QGAM] = [ 11.81, 23.88] = [ 39.08,159.64] Ry 
 Optimized for a Real-space Cutoff    1.18 Angstroem

   l    n(q)    QCUT    max X(q) W(low)/X(q) W(high)/X(q)  e(spline) 
   0      8    11.813   115.676    0.10E-03    0.16E-03    0.35E-06
   0      8    11.813    87.132    0.10E-03    0.16E-03    0.35E-06
   1      8    11.813     4.429    0.16E-03    0.13E-04    0.22E-06
   1      8    11.813     2.733    0.13E-03    0.10E-04    0.18E-06
 Optimization of the real space projectors (new method)

 maximal supplied QI-value         = 16.25
 optimisation between [QCUT,QGAM] = [ 11.86, 23.89] = [ 39.41,159.82] Ry 
 Optimized for a Real-space Cutoff    1.33 Angstroem

   l    n(q)    QCUT    max X(q) W(low)/X(q) W(high)/X(q)  e(spline) 
   1      9    11.864     3.262    0.48E-04    0.16E-03    0.14E-06
   1      9    11.864     5.741    0.74E-04    0.40E-03    0.35E-06
   2      9    11.864    60.438    0.17E-03    0.21E-03    0.26E-06
   2      9    11.864    55.380    0.17E-03    0.21E-03    0.27E-06
   0      9    11.864    80.273    0.40E-04    0.47E-04    0.12E-06
   0      9    11.864    36.654    0.35E-04    0.41E-04    0.11E-06
  PAW_PBE C 08Apr2002                   :
 energy of atom  1       EATOM= -147.1560
 kinetic energy error for atom=    0.0066 (will be added to EATOM!!)
  PAW_PBE N 08Apr2002                   :
 energy of atom  2       EATOM= -264.5486
 kinetic energy error for atom=    0.0116 (will be added to EATOM!!)
  PAW_PBE C 08Apr2002                   :
 energy of atom  3       EATOM= -147.1560
 kinetic energy error for atom=    0.0066 (will be added to EATOM!!)
  PAW_PBE Cr_pv 02Aug2007               :
 energy of atom  4       EATOM=-1647.9177
 kinetic energy error for atom=    0.0054 (will be added to EATOM!!)
 
 
 POSCAR: POSCAR-clean                            
  positions in cartesian coordinates
  No initial velocities read in
 exchange correlation table for  LEXCH =        8
   RHO(1)=    0.500       N(1)  =     2000
   RHO(2)=  100.500       N(2)  =     4000
 


--------------------------------------------------------------------------------------------------------


 ion  position               nearest neighbor table
   1  0.000  1.000  0.498-   2 1.42  60 1.42  70 1.43
   2  0.056  0.111  0.498-   1 1.42  13 1.42  15 1.43
   3  0.168  0.002  0.498-   4 1.42  62 1.43  60 1.43
   4  0.224  0.113  0.498-   3 1.42  15 1.42  17 1.44
   5  0.334  0.002  0.498-   6 1.42  62 1.43  64 1.43
   6  0.390  0.113  0.498-   5 1.42  19 1.42  17 1.44
   7  0.500  1.000  0.498-   8 1.42  64 1.42  66 1.43
   8  0.556  0.111  0.498-   7 1.42  21 1.42  19 1.43
   9  0.666  0.998  0.498-  10 1.42  66 1.42  68 1.44
  10  0.722  0.109  0.498-   9 1.42  23 1.43  21 1.43
  11  0.832  0.998  0.498-  12 1.42  70 1.42  68 1.44
  12  0.888  0.109  0.498-  11 1.42  23 1.43  13 1.43
  13  0.999  0.165  0.498-  14 1.42   2 1.42  12 1.43
  14  0.054  0.277  0.499-  13 1.42  25 1.42  27 1.43
  15  0.167  0.168  0.498-  16 1.42   4 1.42   2 1.43
  16  0.223  0.280  0.500-  15 1.42  27 1.43  29 1.44
  17  0.335  0.170  0.499-  18 1.42   4 1.44   6 1.44
  18  0.391  0.281  0.503-  17 1.42  31 1.44  29 1.44
  19  0.501  0.168  0.498-  20 1.42   6 1.42   8 1.43
  20  0.557  0.280  0.500-  19 1.42  33 1.43  31 1.44
  21  0.667  0.165  0.498-  22 1.42   8 1.42  10 1.43
  22  0.723  0.277  0.498-  21 1.42  35 1.42  33 1.43
  23  0.833  0.165  0.498-  24 1.42  10 1.43  12 1.43
  24  0.888  0.276  0.498-  23 1.42  25 1.42  35 1.43
  25  0.999  0.332  0.498-  14 1.42  26 1.42  24 1.42
  26  0.054  0.444  0.499-  39 1.42  37 1.42  25 1.42
  27  0.165  0.333  0.500-  28 1.42  16 1.43  14 1.43
  28  0.219  0.444  0.502-  41 1.41  27 1.42  39 1.42
  29  0.335  0.338  0.503-  30 1.41  18 1.44  16 1.44
  30  0.387  0.448  0.510-  41 1.41  29 1.41  71 2.00
  31  0.503  0.338  0.504-  32 1.41  18 1.44  20 1.44
  32  0.562  0.448  0.510-  43 1.41  31 1.41  71 2.00
  33  0.668  0.333  0.500-  34 1.42  20 1.43  22 1.43
  34  0.725  0.444  0.501-  43 1.41  33 1.42  45 1.42
  35  0.833  0.332  0.498-  22 1.42  36 1.42  24 1.43
  36  0.890  0.444  0.498-  45 1.42  37 1.42  35 1.42
  37  0.000  0.500  0.498-  36 1.42  26 1.42  38 1.42
  38  0.056  0.611  0.498-  47 1.42  49 1.42  37 1.42
  39  0.165  0.500  0.500-  26 1.42  28 1.42  40 1.42
  40  0.220  0.611  0.500-  49 1.42  51 1.42  39 1.42
  41  0.329  0.499  0.505-  30 1.41  28 1.41  42 1.44
  42  0.385  0.612  0.505-  53 1.41  51 1.41  41 1.44
  43  0.671  0.499  0.505-  32 1.41  34 1.41  44 1.44
  44  0.727  0.612  0.505-  55 1.41  57 1.41  43 1.44
  45  0.836  0.500  0.499-  36 1.42  34 1.42  46 1.42
  46  0.891  0.611  0.499-  47 1.42  57 1.42  45 1.42
  47  0.001  0.667  0.498-  46 1.42  38 1.42  48 1.42
  48  0.057  0.779  0.498-  59 1.42  47 1.42  61 1.43
  49  0.166  0.667  0.499-  40 1.42  38 1.42  50 1.42
  50  0.222  0.779  0.498-  63 1.42  49 1.42  61 1.42
  51  0.331  0.667  0.502-  42 1.41  52 1.42  40 1.42
  52  0.388  0.778  0.500-  51 1.42  65 1.43  63 1.43
  53  0.494  0.663  0.510-  42 1.41  54 1.41  71 2.00
  54  0.553  0.773  0.503-  53 1.41  67 1.44  65 1.44
  55  0.669  0.663  0.510-  44 1.41  56 1.41  71 2.00
  56  0.721  0.773  0.504-  55 1.41  67 1.44  69 1.44
  57  0.837  0.667  0.501-  44 1.41  58 1.42  46 1.42
  58  0.891  0.778  0.500-  57 1.42  69 1.42  59 1.43
  59  0.002  0.835  0.498-  60 1.42  48 1.42  58 1.43
  60  0.057  0.946  0.498-  59 1.42   1 1.42   3 1.43
  61  0.168  0.835  0.498-  62 1.42  50 1.42  48 1.43
  62  0.223  0.946  0.498-  61 1.42   3 1.43   5 1.43
  63  0.333  0.835  0.499-  64 1.42  50 1.42  52 1.43
  64  0.389  0.946  0.498-  63 1.42   7 1.42   5 1.43
  65  0.499  0.832  0.500-  66 1.42  52 1.43  54 1.44
  66  0.555  0.943  0.498-  65 1.42   9 1.42   7 1.43
  67  0.665  0.830  0.503-  68 1.42  56 1.44  54 1.44
  68  0.721  0.941  0.499-  67 1.42   9 1.44  11 1.44
  69  0.833  0.832  0.500-  70 1.42  58 1.42  56 1.44
  70  0.889  0.943  0.498-  69 1.42  11 1.42   1 1.43
  71  0.528  0.556  0.554-  55 2.00  32 2.00  53 2.00  30 2.00
 

IMPORTANT INFORMATION: All symmetrisations will be switched off!
NOSYMM: (Re-)initialisation of all symmetry stuff for point group C_1.

 
 
 KPOINTS: K-Points                                

Automatic generation of k-mesh.
Space group operators:
 irot       det(A)        alpha          n_x          n_y          n_z        tau_x        tau_y        tau_z
    1     1.000000     0.000000     1.000000     0.000000     0.000000     0.000000     0.000000     0.000000
 
 Subroutine IBZKPT returns following result:
 ===========================================
 
 Found      4 irreducible k-points:
 
 Following reciprocal coordinates:
            Coordinates               Weight
  0.000000  0.000000  0.000000      1.000000
  0.500000  0.000000  0.000000      1.000000
 -0.000000  0.500000  0.000000      1.000000
  0.500000  0.500000  0.000000      1.000000
 
 Following cartesian coordinates:
            Coordinates               Weight
  0.000000  0.000000  0.000000      1.000000
  0.033606  0.019589  0.000000      1.000000
 -0.000000  0.039178  0.000000      1.000000
  0.033606  0.058767  0.000000      1.000000
 


--------------------------------------------------------------------------------------------------------




 Dimension of arrays:
   k-points           NKPTS =      4   k-points in BZ     NKDIM =      4   number of bands    NBANDS=    184
   number of dos      NEDOS =    301   number of ions     NIONS =     71
   non local maximal  LDIM  =      6   non local SUM 2l+1 LMDIM =     18
   total plane-waves  NPLWV = ******
   max r-space proj   IRMAX =   7110   max aug-charges    IRDMAX=  21308
   dimension x,y,z NGX =   120 NGY =  120 NGZ =  120
   dimension x,y,z NGXF=   240 NGYF=  240 NGZF=  240
   support grid    NGXF=   240 NGYF=  240 NGZF=  240
   ions per type =              32   1  37   1
   NGX,Y,Z   is equivalent  to a cutoff of  13.41, 13.50, 13.30 a.u.
   NGXF,Y,Z  is equivalent  to a cutoff of  26.82, 27.01, 26.60 a.u.

 SYSTEM =  unknown system                          
 POSCAR =  POSCAR-clean                            

 Startparameter for this run:
   NWRITE =      2    write-flag & timer
   PREC   = accura    normal or accurate (medium, high low for compatibility)
   ISTART =      0    job   : 0-new  1-cont  2-samecut
   ICHARG =      2    charge: 1-file 2-atom 10-const
   ISPIN  =      2    spin polarized calculation?
   LNONCOLLINEAR =      F non collinear calculations
   LSORBIT =      F    spin-orbit coupling
   INIWAV =      1    electr: 0-lowe 1-rand  2-diag
   LASPH  =      F    aspherical Exc in radial PAW
   METAGGA=      F    non-selfconsistent MetaGGA calc.

 Electronic Relaxation 1
   ENCUT  =  550.0 eV  40.42 Ry    6.36 a.u.  28.45 28.25 28.68*2*pi/ulx,y,z
   ENINI  =  550.0     initial cutoff
   ENAUG  =  644.9 eV  augmentation charge cutoff
   NELM   =     50;   NELMIN=  2; NELMDL= -5     # of ELM steps 
   EDIFF  = 0.1E-04   stopping-criterion for ELM
   LREAL  =      T    real-space projection
   NLSPLINE    = F    spline interpolate recip. space projectors
   LCOMPAT=      F    compatible to vasp.4.4
   GGA_COMPAT  = T    GGA compatible to vasp.4.4-vasp.4.6
   LMAXPAW     = -100 max onsite density
   LMAXMIX     =    2 max onsite mixed and CHGCAR
   VOSKOWN=      0    Vosko Wilk Nusair interpolation
   ROPT   =   -0.00025  -0.00025  -0.00025  -0.00025
 Ionic relaxation
   EDIFFG = -.5E-01   stopping-criterion for IOM
   NSW    =    400    number of steps for IOM
   NBLOCK =      1;   KBLOCK =    400    inner block; outer block 
   IBRION =      2    ionic relax: 0-MD 1-quasi-New 2-CG
   NFREE  =      1    steps in history (QN), initial steepest desc. (CG)
   ISIF   =      3    stress and relaxation
   IWAVPR =     11    prediction:  0-non 1-charg 2-wave 3-comb
   ISYM   =      0    0-nonsym 1-usesym 2-fastsym
   LCORR  =      T    Harris-Foulkes like correction to forces

   POTIM  = 0.3000    time-step for ionic-motion
   TEIN   =    0.0    initial temperature
   TEBEG  =    0.0;   TEEND  =   0.0 temperature during run
   SMASS  =  -3.00    Nose mass-parameter (am)
   estimated Nose-frequenzy (Omega)   =  0.10E-29 period in steps =****** mass=  -0.506E-26a.u.
   SCALEE = 1.0000    scale energy and forces
   NPACO  =    256;   APACO  = 16.0  distance and # of slots for P.C.
   PSTRESS=    0.0 pullay stress

  Mass of Ions in am
   POMASS =  12.01 14.00 12.01 52.00
  Ionic Valenz
   ZVAL   =   4.00  5.00  4.00 12.00
  Atomic Wigner-Seitz radii
   RWIGS  =  -1.00 -1.00 -1.00 -1.00
  virtual crystal weights 
   VCA    =   1.00  1.00  1.00  1.00
   NELECT =     293.0000    total number of electrons
   NUPDOWN=      -1.0000    fix difference up-down

 DOS related values:
   EMIN   =  10.00;   EMAX   =-10.00  energy-range for DOS
   EFERMI =   0.00
   ISMEAR =     0;   SIGMA  =   0.10  broadening in eV -4-tet -1-fermi 0-gaus

 Electronic relaxation 2 (details)
   IALGO  =     68    algorithm
   LDIAG  =      T    sub-space diagonalisation (order eigenvalues)
   LSUBROT=      F    optimize rotation matrix (better conditioning)
   TURBO    =      0    0=normal 1=particle mesh
   IRESTART =      0    0=no restart 2=restart with 2 vectors
   NREBOOT  =      0    no. of reboots
   NMIN     =      0    reboot dimension
   EREF     =   0.00    reference energy to select bands
   IMIX   =      4    mixing-type and parameters
     AMIX     =   0.40;   BMIX     =  1.00
     AMIX_MAG =   1.60;   BMIX_MAG =  1.00
     AMIN     =   0.10
     WC   =   100.;   INIMIX=   1;  MIXPRE=   1;  MAXMIX= -45

 Intra band minimization:
   WEIMIN = 0.0010     energy-eigenvalue tresh-hold
   EBREAK =  0.14E-07  absolut break condition
   DEPER  =   0.30     relativ break condition  

   TIME   =   0.40     timestep for ELM

  volume/ion in A,a.u.               =      40.12       270.71
  Fermi-wavevector in a.u.,A,eV,Ry     =   0.767079  1.449569  8.005805  0.588410
  Thomas-Fermi vector in A             =   1.867557
 
 Write flags
   LWAVE        =      F    write WAVECAR
   LDOWNSAMPLE  =      F    k-point downsampling of WAVECAR
   LCHARG       =      F    write CHGCAR
   LVTOT        =      F    write LOCPOT, total local potential
   LVHAR        =      F    write LOCPOT, Hartree potential only
   LELF         =      F    write electronic localiz. function (ELF)
   LORBIT       =      0    0 simple, 1 ext, 2 COOP (PROOUT), +10 PAW based schemes


 Dipole corrections
   LMONO  =      F    monopole corrections only (constant potential shift)
   LDIPOL =      F    correct potential (dipole corrections)
   IDIPOL =      0    1-x, 2-y, 3-z, 4-all directions 
   EPSILON=  1.0000000 bulk dielectric constant

 Exchange correlation treatment:
   GGA     =    --    GGA type
   LEXCH   =     8    internal setting for exchange type
   VOSKOWN=      0    Vosko Wilk Nusair interpolation
   LHFCALC =     F    Hartree Fock is set to
   LHFONE  =     F    Hartree Fock one center treatment
   AEXX    =    0.0000 exact exchange contribution

 Linear response parameters
   LEPSILON=     F    determine dielectric tensor
   LRPA    =     F    only Hartree local field effects (RPA)
   LNABLA  =     F    use nabla operator in PAW spheres
   LVEL    =     F    velocity operator in full k-point grid
   LINTERFAST=   F  fast interpolation
   KINTER  =     0    interpolate to denser k-point grid
   CSHIFT  =0.1000    complex shift for real part using Kramers Kronig
   OMEGAMAX=  -1.0    maximum frequency
   DEG_THRESHOLD= 0.2000000E-02 threshold for treating states as degnerate
   RTIME   =   -0.100 relaxation time in fs
  (WPLASMAI=    0.000 imaginary part of plasma frequency in eV, 0.658/RTIME)
   DFIELD  = 0.0000000 0.0000000 0.0000000 field for delta impulse in time
 
 Orbital magnetization related:
   ORBITALMAG=     F  switch on orbital magnetization
   LCHIMAG   =     F  perturbation theory with respect to B field
   DQ        =  0.001000  dq finite difference perturbation B field
   LLRAUG    =     F  two centre corrections for induced B field



--------------------------------------------------------------------------------------------------------


 conjugate gradient relaxation of ions
 charge density and potential will be updated during run
 spin polarized calculation
 RMM-DIIS sequential band-by-band and
  variant of blocked Davidson during initial phase
 perform sub-space diagonalisation
    before iterative eigenvector-optimisation
 modified Broyden-mixing scheme, WC =      100.0
 initial mixing is a Kerker type mixing with AMIX =  0.4000 and BMIX =      1.0000
 Hartree-type preconditioning will be used
 using additional bands           37
 real space projection scheme for non local part
 use partial core corrections
 calculate Harris-corrections to forces 
   (improved forces if not selfconsistent)
 use gradient corrections 
 use of overlap-Matrix (Vanderbilt PP)
 Gauss-broadening in eV      SIGMA  =   0.10


--------------------------------------------------------------------------------------------------------


  energy-cutoff  :      550.00
  volume of cell :     2848.21
      direct lattice vectors                 reciprocal lattice vectors
    14.878307727  0.000105424  0.000000000     0.067211667  0.039178051  0.000000000
    -7.439153864 12.762195204  0.000000000    -0.000000555  0.078356102  0.000000000
     0.000000000  0.000000000 15.000000000     0.000000000  0.000000000  0.066666667

  length of vectors
    14.878307728 14.772089786 15.000000000     0.077796709  0.078356102  0.066666667


 
 k-points in units of 2pi/SCALE and weight: K-Points                                
   0.00000000  0.00000000  0.00000000       0.250
   0.03360583  0.01958903  0.00000000       0.250
  -0.00000028  0.03917805  0.00000000       0.250
   0.03360556  0.05876708  0.00000000       0.250
 
 k-points in reciprocal lattice and weights: K-Points                                
   0.00000000  0.00000000  0.00000000       0.250
   0.50000000  0.00000000  0.00000000       0.250
  -0.00000000  0.50000000  0.00000000       0.250
   0.50000000  0.50000000  0.00000000       0.250
 
 position of ions in fractional coordinates (direct lattice) 
   0.00014703  0.99993181  0.49766807
   0.05571316  0.11129367  0.49774774
   0.16803225  0.00210520  0.49753985
   0.22355821  0.11343998  0.49825115
   0.33432830  0.00207694  0.49777234
   0.39014706  0.11341551  0.49841838
   0.50002407  0.99989044  0.49775648
   0.55582710  0.11125266  0.49767590
   0.66571506  0.99774295  0.49825147
   0.72152612  0.10907882  0.49753824
   0.83231512  0.99776674  0.49841003
   0.88783929  0.10910686  0.49776801
   0.99908442  0.16549374  0.49784405
   0.05430809  0.27667161  0.49853746
   0.16734775  0.16806595  0.49834347
   0.22284185  0.27957445  0.49997583
   0.33528932  0.17029644  0.49941211
   0.39084341  0.28141813  0.50254970
   0.50097822  0.16802960  0.49842000
   0.55697129  0.27954076  0.49998817
   0.66664919  0.16545038  0.49752014
   0.72257294  0.27663324  0.49802908
   0.83255361  0.16485921  0.49764969
   0.88821716  0.27620991  0.49780056
   0.99906908  0.33222521  0.49838447
   0.05442247  0.44382388  0.49884723
   0.16531768  0.33288444  0.50001215
   0.21898612  0.44382270  0.50165224
   0.33514858  0.33773328  0.50339031
   0.38694525  0.44827387  0.50958670
   0.50284791  0.33770682  0.50360105
   0.56160602  0.44823797  0.50998391
   0.66778145  0.33285443  0.49963749
   0.72504010  0.44380782  0.50114295
   0.83335701  0.33221195  0.49791518
   0.88957865  0.44380677  0.49825237
   0.00003314  0.49990030  0.49835048
   0.05573614  0.61130743  0.49834565
   0.16452790  0.49985599  0.50032235
   0.22027264  0.61134265  0.50031499
   0.32877881  0.49923631  0.50514604
   0.38513300  0.61194665  0.50514739
   0.67071104  0.49923365  0.50517220
   0.72707059  0.61195035  0.50517224
   0.83551700  0.49986026  0.49948453
   0.89125350  0.61133457  0.49948422
   0.00136430  0.66739252  0.49824937
   0.05673614  0.77898562  0.49790902
   0.16620335  0.66738054  0.49883406
   0.22244721  0.77897560  0.49837060
   0.33076298  0.66736579  0.50164604
   0.38803591  0.77830247  0.50000539
   0.49425975  0.66291375  0.50958718
   0.55300964  0.77344715  0.50338828
   0.66896610  0.66295341  0.50998288
   0.72073432  0.77348097  0.50359479
   0.83682433  0.66738081  0.50114212
   0.89051054  0.77833045  0.49963539
   0.00151950  0.83455528  0.49802741
   0.05677874  0.94573836  0.49751926
   0.16759972  0.83498348  0.49779087
   0.22328727  0.94632847  0.49764984
   0.33324173  0.83452222  0.49853136
   0.38919606  0.94569806  0.49784785
   0.49886656  0.83160652  0.49997424
   0.55488261  0.94311446  0.49834783
   0.66501623  0.82976534  0.50254304
   0.72058356  0.94088512  0.49940688
   0.83301728  0.83164625  0.49998031
   0.88852543  0.94315192  0.49840894
   0.52788678  0.55561308  0.55407295
 
 position of ions in cartesian coordinates  (Angst):
  -7.43645893 12.76132490  7.46502101
   0.00098677  1.42035737  7.46621609
   2.48437460  0.02688469  7.46309769
   2.48227038  1.44776676  7.47376727
   4.95878870  0.02654158  7.46658504
   4.96101252  1.44747206  7.47627575
   0.00117320 12.76084966  7.46634727
   7.44214093  1.41988678  7.46513856
   2.48235028 12.73346045  7.47377203
   9.92363354  1.39216125  7.46307356
   4.96090025 12.73378160  7.47615045
  12.39788345  1.39253665  7.46652020
  13.63355202  2.11216869  7.46766080
  -1.25019027  3.53094287  7.47806186
   1.23958287  2.14490807  7.47515208
   1.23571236  3.56800714  7.49963746
   3.72167632  2.17339173  7.49118168
   3.72157576  3.59155433  7.53824552
   6.20371007  2.14447940  7.47630003
   6.20724356  3.56761241  7.49982262
   8.68780104  2.11158030  7.46280215
   8.69274532  3.53052356  7.47043619
  11.16057575  2.10405319  7.46474541
  11.16040021  3.52513843  7.46700843
  12.39298273  4.24002833  7.47576708
  -2.49195986  5.66417272  7.48270852
  -0.01673121  4.24835367  7.50018218
  -0.04352248  5.66417505  7.52478359
   2.47399392  4.31025334  7.55085470
   2.42231217  5.72099937  7.64380057
   4.96927299  4.30993342  7.55401582
   5.02123589  5.72055973  7.64975858
   7.45930259  4.24802358  7.49456242
   7.48581505  5.66403852  7.51714419
   9.92756627  4.23984160  7.46872767
   9.93387816  5.66404236  7.47378561
  -3.71834223  6.37982525  7.47525727
  -3.71835051  7.80163060  7.47518475
  -1.27060894  6.37927707  7.50483528
  -1.27058799  7.80209747  7.50472492
   1.17777658  6.37138591  7.57719062
   1.17776199  7.80982318  7.57721079
   6.26516932  6.37138797  7.57758296
   6.26518706  7.80990654  7.57758361
   8.71254167  6.37940228  7.49226792
   8.71253189  7.80206507  7.49226324
  -4.94453714  8.51739379  7.47374059
  -4.95085604  9.94157246  7.46863529
  -2.49192199  8.51725823  7.48251084
  -2.48528121  9.94146208  7.47555906
  -0.04344336  8.51708741  7.52469062
  -0.01659412  9.93288892  7.50008080
   2.42223119  8.46028680  7.64380763
   2.47405524  9.87094181  7.55082413
   5.02127100  8.46081135  7.64974323
   4.96926315  9.87139105  7.55392179
   7.48578134  8.51733237  7.51713176
   7.45916989  9.93329897  7.49453080
  -6.18577746 10.65075751  7.47041111
  -6.19072161 12.06970350  7.46278894
  -3.71797037 10.65623981  7.46686302
  -3.71774635 12.07725221  7.46474766
  -1.25006613 10.65037063  7.47797042
  -1.24461459 12.06922431  7.46771775
   1.23584141 10.61317732  7.49961357
   1.23974067 12.03626939  7.47521740
   3.72156413 10.58969736  7.53814562
   3.72167477 12.00783549  7.49110317
   6.20714301 10.61371955  7.49970466
   6.20350242 12.03678263  7.47613410
   3.72077071  7.09089829  8.31109430
 


--------------------------------------------------------------------------------------------------------


 k-point  1 :   0.0000 0.0000 0.0000  plane waves:   83445
 k-point  2 :   0.5000 0.0000 0.0000  plane waves:   83448
 k-point  3 :  -0.0000 0.5000 0.0000  plane waves:   83436
 k-point  4 :   0.5000 0.5000 0.0000  plane waves:   83444

 maximum and minimum number of plane-waves per node :      6984     6935

 maximum number of plane-waves:     83448
 maximum index in each direction: 
   IXMAX=   28   IYMAX=   28   IZMAX=   28
   IXMIN=  -28   IYMIN=  -28   IZMIN=  -28


 real space projection operators:
  total allocation   :      18578.86 KBytes
  max/ min on nodes  :       1557.92       1535.22


 parallel 3D FFT for wavefunctions:
    minimum data exchange during FFTs selected (reduces bandwidth)
 parallel 3D FFT for charge:
    minimum data exchange during FFTs selected (reduces bandwidth)


 total amount of memory used by VASP MPI-rank0   135444. kBytes
=======================================================================

   base      :      30000. kBytes
   nonlr-proj:      10455. kBytes
   fftplans  :      14072. kBytes
   grid      :      39398. kBytes
   one-center:        186. kBytes
   wavefun   :      41333. kBytes
 
     INWAV:  cpu time    0.0000: real time    0.0001
 Broyden mixing: mesh for mixing (old mesh)
   NGX = 57   NGY = 57   NGZ = 57
  (NGX  =240   NGY  =240   NGZ  =240)
  gives a total of 185193 points

 initial charge density was supplied:
 charge density of overlapping atoms calculated
 number of electron     293.0000000 magnetization       1.0000000
 keeping initial charge density in first step


--------------------------------------------------------------------------------------------------------


 Maximum index for non-local projection operator          598
 Maximum index for augmentation-charges          402 (set IRDMAX)


--------------------------------------------------------------------------------------------------------


 First call to EWALD:  gamma=   0.125
 Maximum number of real-space cells 3x 3x 3
 Maximum number of reciprocal cells 3x 3x 3

    FEWALD:  cpu time    0.0039: real time    0.0040


--------------------------------------- Iteration      1(   1)  ---------------------------------------


    POTLOK:  cpu time    0.5383: real time    0.5625
    SETDIJ:  cpu time    0.0174: real time    0.0241
     EDDAV:  cpu time   16.9860: real time   17.1578
       DOS:  cpu time    0.0011: real time    0.0012
    --------------------------------------------
      LOOP:  cpu time   17.5428: real time   17.7456

 eigenvalue-minimisations  :  3256
 total energy-change (2. order) : 0.2735413E+04  (-0.1174010E+05)
 number of electron     293.0000000 magnetization       1.0000000
 augmentation part      293.0000000 magnetization       1.0000000

 Free energy of the ion-electron system (eV)
  ---------------------------------------------------
  alpha Z        PSCENC =       156.95040625
  Ewald energy   TEWEN  =     30377.80315244
  -Hartree energ DENC   =    -39543.83617000
  -exchange      EXHF   =         0.00000000
  -V(xc)+E(xc)   XCENC  =       982.54076427
  PAW double counting   =      9000.30529238    -9089.18527416
  entropy T*S    EENTRO =        -0.11169174
  eigenvalues    EBANDS =     -1214.81160516
  atomic energy  EATOM  =     12065.75791449
  Solvation  Ediel_sol  =         0.00000000
  ---------------------------------------------------
  free energy    TOTEN  =      2735.41278878 eV

  energy without entropy =     2735.52448051  energy(sigma->0) =     2735.46863464


--------------------------------------------------------------------------------------------------------




--------------------------------------- Iteration      1(   2)  ---------------------------------------


     EDDAV:  cpu time   21.9000: real time   22.2073
       DOS:  cpu time    0.0010: real time    0.0010
    --------------------------------------------
      LOOP:  cpu time   21.9010: real time   22.2083

 eigenvalue-minimisations  :  4320
 total energy-change (2. order) :-0.2909053E+04  (-0.2781236E+04)
 number of electron     293.0000000 magnetization       1.0000000
 augmentation part      293.0000000 magnetization       1.0000000

 Free energy of the ion-electron system (eV)
  ---------------------------------------------------
  alpha Z        PSCENC =       156.95040625
  Ewald energy   TEWEN  =     30377.80315244
  -Hartree energ DENC   =    -39543.83617000
  -exchange      EXHF   =         0.00000000
  -V(xc)+E(xc)   XCENC  =       982.54076427
  PAW double counting   =      9000.30529238    -9089.18527416
  entropy T*S    EENTRO =        -0.03551640
  eigenvalues    EBANDS =     -4123.94067518
  atomic energy  EATOM  =     12065.75791449
  Solvation  Ediel_sol  =         0.00000000
  ---------------------------------------------------
  free energy    TOTEN  =      -173.64010591 eV

  energy without entropy =     -173.60458951  energy(sigma->0) =     -173.62234771


--------------------------------------------------------------------------------------------------------




--------------------------------------- Iteration      1(   3)  ---------------------------------------


     EDDAV:  cpu time   18.6966: real time   18.8626
       DOS:  cpu time    0.0009: real time    0.0009
    --------------------------------------------
      LOOP:  cpu time   18.6976: real time   18.8635

 eigenvalue-minimisations  :  3560
 total energy-change (2. order) :-0.5107090E+03  (-0.5077556E+03)
 number of electron     293.0000000 magnetization       1.0000000
 augmentation part      293.0000000 magnetization       1.0000000

 Free energy of the ion-electron system (eV)
  ---------------------------------------------------
  alpha Z        PSCENC =       156.95040625
  Ewald energy   TEWEN  =     30377.80315244
  -Hartree energ DENC   =    -39543.83617000
  -exchange      EXHF   =         0.00000000
  -V(xc)+E(xc)   XCENC  =       982.54076427
  PAW double counting   =      9000.30529238    -9089.18527416
  entropy T*S    EENTRO =        -0.01956406
  eigenvalues    EBANDS =     -4634.66562230
  atomic energy  EATOM  =     12065.75791449
  Solvation  Ediel_sol  =         0.00000000
  ---------------------------------------------------
  free energy    TOTEN  =      -684.34910069 eV

  energy without entropy =     -684.32953663  energy(sigma->0) =     -684.33931866


--------------------------------------------------------------------------------------------------------




--------------------------------------- Iteration      1(   4)  ---------------------------------------


     EDDAV:  cpu time   18.7355: real time   18.9749
       DOS:  cpu time    0.0010: real time    0.0009
    --------------------------------------------
      LOOP:  cpu time   18.7365: real time   18.9758

 eigenvalue-minimisations  :  3560
 total energy-change (2. order) :-0.1938206E+02  (-0.1923244E+02)
 number of electron     293.0000000 magnetization       1.0000000
 augmentation part      293.0000000 magnetization       1.0000000

 Free energy of the ion-electron system (eV)
  ---------------------------------------------------
  alpha Z        PSCENC =       156.95040625
  Ewald energy   TEWEN  =     30377.80315244
  -Hartree energ DENC   =    -39543.83617000
  -exchange      EXHF   =         0.00000000
  -V(xc)+E(xc)   XCENC  =       982.54076427
  PAW double counting   =      9000.30529238    -9089.18527416
  entropy T*S    EENTRO =        -0.01535167
  eigenvalues    EBANDS =     -4654.05189379
  atomic energy  EATOM  =     12065.75791449
  Solvation  Ediel_sol  =         0.00000000
  ---------------------------------------------------
  free energy    TOTEN  =      -703.73115979 eV

  energy without entropy =     -703.71580812  energy(sigma->0) =     -703.72348396


--------------------------------------------------------------------------------------------------------




--------------------------------------- Iteration      1(   5)  ---------------------------------------


     EDDAV:  cpu time   20.7215: real time   20.9343
       DOS:  cpu time    0.0010: real time    0.0010
    CHARGE:  cpu time    0.9745: real time    0.9892
    MIXING:  cpu time    0.0112: real time    0.0149
    --------------------------------------------
      LOOP:  cpu time   21.7082: real time   21.9394

 eigenvalue-minimisations  :  4032
 total energy-change (2. order) :-0.6230276E+00  (-0.6211057E+00)
 number of electron     292.9999998 magnetization       0.7679771
 augmentation part       11.6671810 magnetization       0.7799219

 Broyden mixing:
  rms(total) = 0.46527E+01    rms(broyden)= 0.46523E+01
  rms(prec ) = 0.54158E+01
  weight for this iteration     100.00

 Free energy of the ion-electron system (eV)
  ---------------------------------------------------
  alpha Z        PSCENC =       156.95040625
  Ewald energy   TEWEN  =     30377.80315244
  -Hartree energ DENC   =    -39543.83617000
  -exchange      EXHF   =         0.00000000
  -V(xc)+E(xc)   XCENC  =       982.54076427
  PAW double counting   =      9000.30529238    -9089.18527416
  entropy T*S    EENTRO =        -0.01565764
  eigenvalues    EBANDS =     -4654.67461545
  atomic energy  EATOM  =     12065.75791449
  Solvation  Ediel_sol  =         0.00000000
  ---------------------------------------------------
  free energy    TOTEN  =      -704.35418742 eV

  energy without entropy =     -704.33852978  energy(sigma->0) =     -704.34635860


--------------------------------------------------------------------------------------------------------




--------------------------------------- Iteration      1(   6)  ---------------------------------------


    POTLOK:  cpu time    0.5359: real time    0.5487
    SETDIJ:  cpu time    0.0149: real time    0.0164
    EDDIAG:  cpu time    3.2820: real time    3.3188
  RMM-DIIS:  cpu time   17.8545: real time   18.0077
    ORTHCH:  cpu time    0.3320: real time    0.3339
       DOS:  cpu time    0.0009: real time    0.0009
    CHARGE:  cpu time    0.9633: real time    0.9769
    MIXING:  cpu time    0.0090: real time    0.0098
    --------------------------------------------
      LOOP:  cpu time   22.9925: real time   23.2131

 eigenvalue-minimisations  :  4086
 total energy-change (2. order) :-0.2825356E+02  (-0.5349001E+02)
 number of electron     293.0000008 magnetization       0.7102770
 augmentation part       17.3850084 magnetization       0.9196718

 Broyden mixing:
  rms(total) = 0.84150E+01    rms(broyden)= 0.84149E+01
  rms(prec ) = 0.93018E+01
  weight for this iteration     100.00

 eigenvalues of (default mixing * dielectric matrix)
  average eigenvalue GAMMA=   0.2151
  0.2151

 Free energy of the ion-electron system (eV)
  ---------------------------------------------------
  alpha Z        PSCENC =       156.95040625
  Ewald energy   TEWEN  =     30377.80315244
  -Hartree energ DENC   =    -39835.96944968
  -exchange      EXHF   =         0.00000000
  -V(xc)+E(xc)   XCENC  =       996.31435609
  PAW double counting   =     15150.41622111   -15239.13816189
  entropy T*S    EENTRO =        -0.05142220
  eigenvalues    EBANDS =     -4404.69075967
  atomic energy  EATOM  =     12065.75791449
  Solvation  Ediel_sol  =         0.00000000
  ---------------------------------------------------
  free energy    TOTEN  =      -732.60774307 eV

  energy without entropy =     -732.55632087  energy(sigma->0) =     -732.58203197


--------------------------------------------------------------------------------------------------------




--------------------------------------- Iteration      1(   7)  ---------------------------------------


    POTLOK:  cpu time    0.5654: real time    0.5727
    SETDIJ:  cpu time    0.0150: real time    0.0151
    EDDIAG:  cpu time    3.2484: real time    3.2789
  RMM-DIIS:  cpu time   13.2412: real time   13.3481
    ORTHCH:  cpu time    0.6239: real time    0.6385
       DOS:  cpu time    0.0009: real time    0.0009
    CHARGE:  cpu time    0.9607: real time    0.9760
    MIXING:  cpu time    0.0093: real time    0.0101
    --------------------------------------------
      LOOP:  cpu time   18.6649: real time   18.8401

 eigenvalue-minimisations  :  3027
 total energy-change (2. order) : 0.7047553E+02  (-0.5275224E+01)
 number of electron     293.0000006 magnetization       0.6096827
 augmentation part       15.2274493 magnetization       0.6100588

 Broyden mixing:
  rms(total) = 0.31662E+01    rms(broyden)= 0.31662E+01
  rms(prec ) = 0.37988E+01
  weight for this iteration     100.00

 eigenvalues of (default mixing * dielectric matrix)
  average eigenvalue GAMMA=   0.4673
  0.5166  0.4180

 Free energy of the ion-electron system (eV)
  ---------------------------------------------------
  alpha Z        PSCENC =       156.95040625
  Ewald energy   TEWEN  =     30377.80315244
  -Hartree energ DENC   =    -39957.91065191
  -exchange      EXHF   =         0.00000000
  -V(xc)+E(xc)   XCENC  =      1000.86106935
  PAW double counting   =     16732.56419825   -16828.10646921
  entropy T*S    EENTRO =        -0.00022567
  eigenvalues    EBANDS =     -4210.05160374
  atomic energy  EATOM  =     12065.75791449
  Solvation  Ediel_sol  =         0.00000000
  ---------------------------------------------------
  free energy    TOTEN  =      -662.13220974 eV

  energy without entropy =     -662.13198407  energy(sigma->0) =     -662.13209691


--------------------------------------------------------------------------------------------------------




--------------------------------------- Iteration      1(   8)  ---------------------------------------


    POTLOK:  cpu time    0.5282: real time    0.5331
    SETDIJ:  cpu time    0.0150: real time    0.0151
    EDDIAG:  cpu time    3.2424: real time    3.2665
  RMM-DIIS:  cpu time   13.9477: real time   14.0484
    ORTHCH:  cpu time    0.6231: real time    0.6515
       DOS:  cpu time    0.0011: real time    0.0011
    CHARGE:  cpu time    1.0061: real time    1.0177
    MIXING:  cpu time    0.0110: real time    0.0117
    --------------------------------------------
      LOOP:  cpu time   19.3746: real time   19.5451

 eigenvalue-minimisations  :  3145
 total energy-change (2. order) :-0.3547370E-01  (-0.2070518E+01)
 number of electron     293.0000000 magnetization       0.3492962
 augmentation part       11.2299843 magnetization       0.2831080

 Broyden mixing:
  rms(total) = 0.28238E+01    rms(broyden)= 0.28235E+01
  rms(prec ) = 0.34600E+01
  weight for this iteration     100.00

 eigenvalues of (default mixing * dielectric matrix)
  average eigenvalue GAMMA=   0.8578
  1.8934  0.3400  0.3400

 Free energy of the ion-electron system (eV)
  ---------------------------------------------------
  alpha Z        PSCENC =       156.95040625
  Ewald energy   TEWEN  =     30377.80315244
  -Hartree energ DENC   =    -40139.91171258
  -exchange      EXHF   =         0.00000000
  -V(xc)+E(xc)   XCENC  =      1007.64011707
  PAW double counting   =     19676.05259804   -19775.58306601
  entropy T*S    EENTRO =        -0.03669473
  eigenvalues    EBANDS =     -4030.84039840
  atomic energy  EATOM  =     12065.75791449
  Solvation  Ediel_sol  =         0.00000000
  ---------------------------------------------------
  free energy    TOTEN  =      -662.16768344 eV

  energy without entropy =     -662.13098871  energy(sigma->0) =     -662.14933608


--------------------------------------------------------------------------------------------------------




--------------------------------------- Iteration      1(   9)  ---------------------------------------


    POTLOK:  cpu time    0.5451: real time    0.5551
    SETDIJ:  cpu time    0.0213: real time    0.0214
    EDDIAG:  cpu time    3.2481: real time    3.2734
  RMM-DIIS:  cpu time   13.0643: real time   13.1566
    ORTHCH:  cpu time    0.3872: real time    0.3883
       DOS:  cpu time    0.0010: real time    0.0010
    CHARGE:  cpu time    1.0015: real time    1.0122
    MIXING:  cpu time    0.0101: real time    0.0102
    --------------------------------------------
      LOOP:  cpu time   18.2786: real time   18.4182

 eigenvalue-minimisations  :  2966
 total energy-change (2. order) : 0.1502759E+02  (-0.2001549E+01)
 number of electron     293.0000003 magnetization       0.2618019
 augmentation part       12.2041534 magnetization       0.2727923

 Broyden mixing:
  rms(total) = 0.11424E+01    rms(broyden)= 0.11423E+01
  rms(prec ) = 0.12866E+01
  weight for this iteration     100.00

 eigenvalues of (default mixing * dielectric matrix)
  average eigenvalue GAMMA=   0.9144
  2.2164  0.7400  0.3507  0.3507

 Free energy of the ion-electron system (eV)
  ---------------------------------------------------
  alpha Z        PSCENC =       156.95040625
  Ewald energy   TEWEN  =     30377.80315244
  -Hartree energ DENC   =    -40444.58640011
  -exchange      EXHF   =         0.00000000
  -V(xc)+E(xc)   XCENC  =      1020.46139959
  PAW double counting   =     27860.15028721   -27962.41828561
  entropy T*S    EENTRO =        -0.00689228
  eigenvalues    EBANDS =     -3721.25167675
  atomic energy  EATOM  =     12065.75791449
  Solvation  Ediel_sol  =         0.00000000
  ---------------------------------------------------
  free energy    TOTEN  =      -647.14009477 eV

  energy without entropy =     -647.13320248  energy(sigma->0) =     -647.13664862


--------------------------------------------------------------------------------------------------------




--------------------------------------- Iteration      1(  10)  ---------------------------------------


    POTLOK:  cpu time    0.5528: real time    0.5586
    SETDIJ:  cpu time    0.0146: real time    0.0150
    EDDIAG:  cpu time    3.3569: real time    3.3926
  RMM-DIIS:  cpu time   13.1634: real time   13.2723
    ORTHCH:  cpu time    0.4693: real time    0.4723
       DOS:  cpu time    0.0009: real time    0.0009
    CHARGE:  cpu time    0.9855: real time    0.9966
    MIXING:  cpu time    0.0115: real time    0.0124
    --------------------------------------------
      LOOP:  cpu time   18.5549: real time   18.7208

 eigenvalue-minimisations  :  2999
 total energy-change (2. order) :-0.6552698E+00  (-0.2959591E+00)
 number of electron     293.0000006 magnetization       0.2074352
 augmentation part       13.7943176 magnetization       0.2296654

 Broyden mixing:
  rms(total) = 0.14706E+01    rms(broyden)= 0.14701E+01
  rms(prec ) = 0.18328E+01
  weight for this iteration     100.00

 eigenvalues of (default mixing * dielectric matrix)
  average eigenvalue GAMMA=   0.9200
  2.3419  1.0675  0.3481  0.3481  0.4946

 Free energy of the ion-electron system (eV)
  ---------------------------------------------------
  alpha Z        PSCENC =       156.95040625
  Ewald energy   TEWEN  =     30377.80315244
  -Hartree energ DENC   =    -40487.18405521
  -exchange      EXHF   =         0.00000000
  -V(xc)+E(xc)   XCENC  =      1021.35042560
  PAW double counting   =     29337.04073597   -29438.15771010
  entropy T*S    EENTRO =        -0.00094739
  eigenvalues    EBANDS =     -3681.35528666
  atomic energy  EATOM  =     12065.75791449
  Solvation  Ediel_sol  =         0.00000000
  ---------------------------------------------------
  free energy    TOTEN  =      -647.79536460 eV

  energy without entropy =     -647.79441721  energy(sigma->0) =     -647.79489090


--------------------------------------------------------------------------------------------------------




--------------------------------------- Iteration      1(  11)  ---------------------------------------


    POTLOK:  cpu time    0.5321: real time    0.5366
    SETDIJ:  cpu time    0.0149: real time    0.0150
    EDDIAG:  cpu time    3.2172: real time    3.2512
  RMM-DIIS:  cpu time   13.6010: real time   13.7049
    ORTHCH:  cpu time    0.4575: real time    0.4823
       DOS:  cpu time    0.0010: real time    0.0010
    CHARGE:  cpu time    0.9466: real time    0.9554
    MIXING:  cpu time    0.0119: real time    0.0124
    --------------------------------------------
      LOOP:  cpu time   18.7824: real time   18.9588

 eigenvalue-minimisations  :  3102
 total energy-change (2. order) : 0.1213441E+01  (-0.4255548E-01)
 number of electron     293.0000003 magnetization       0.1415950
 augmentation part       12.5269574 magnetization       0.1132233

 Broyden mixing:
  rms(total) = 0.75695E+00    rms(broyden)= 0.75640E+00
  rms(prec ) = 0.80885E+00
  weight for this iteration     100.00

 eigenvalues of (default mixing * dielectric matrix)
  average eigenvalue GAMMA=   0.9752
  2.0679  2.0679  0.6580  0.3456  0.3456  0.3665

 Free energy of the ion-electron system (eV)
  ---------------------------------------------------
  alpha Z        PSCENC =       156.95040625
  Ewald energy   TEWEN  =     30377.80315244
  -Hartree energ DENC   =    -40520.81973656
  -exchange      EXHF   =         0.00000000
  -V(xc)+E(xc)   XCENC  =      1021.79957883
  PAW double counting   =     30001.95362372   -30102.42920664
  entropy T*S    EENTRO =        -0.03780107
  eigenvalues    EBANDS =     -3647.55985515
  atomic energy  EATOM  =     12065.75791449
  Solvation  Ediel_sol  =         0.00000000
  ---------------------------------------------------
  free energy    TOTEN  =      -646.58192369 eV

  energy without entropy =     -646.54412262  energy(sigma->0) =     -646.56302316


--------------------------------------------------------------------------------------------------------




--------------------------------------- Iteration      1(  12)  ---------------------------------------


    POTLOK:  cpu time    0.5333: real time    0.5381
    SETDIJ:  cpu time    0.0153: real time    0.0154
    EDDIAG:  cpu time    3.2080: real time    3.2343
  RMM-DIIS:  cpu time   12.9320: real time   13.0267
    ORTHCH:  cpu time    0.4844: real time    0.4855
       DOS:  cpu time    0.0010: real time    0.0010
    CHARGE:  cpu time    0.9655: real time    0.9739
    MIXING:  cpu time    0.0131: real time    0.0133
    --------------------------------------------
      LOOP:  cpu time   18.1526: real time   18.2883

 eigenvalue-minimisations  :  2944
 total energy-change (2. order) : 0.1035735E+00  (-0.1566575E-01)
 number of electron     293.0000004 magnetization       0.1604203
 augmentation part       13.0145331 magnetization      -0.1573834

 Broyden mixing:
  rms(total) = 0.66583E+00    rms(broyden)= 0.66555E+00
  rms(prec ) = 0.72280E+00
  weight for this iteration     100.00

 eigenvalues of (default mixing * dielectric matrix)
  average eigenvalue GAMMA=   0.8645
  2.1166  2.1166  0.5699  0.3474  0.3474  0.3808  0.1730

 Free energy of the ion-electron system (eV)
  ---------------------------------------------------
  alpha Z        PSCENC =       156.95040625
  Ewald energy   TEWEN  =     30377.80315244
  -Hartree energ DENC   =    -40547.26064501
  -exchange      EXHF   =         0.00000000
  -V(xc)+E(xc)   XCENC  =      1021.41038559
  PAW double counting   =     30444.41015244   -30543.38944359
  entropy T*S    EENTRO =        -0.05942817
  eigenvalues    EBANDS =     -3622.10084459
  atomic energy  EATOM  =     12065.75791449
  Solvation  Ediel_sol  =         0.00000000
  ---------------------------------------------------
  free energy    TOTEN  =      -646.47835016 eV

  energy without entropy =     -646.41892199  energy(sigma->0) =     -646.44863607


--------------------------------------------------------------------------------------------------------




--------------------------------------- Iteration      1(  13)  ---------------------------------------


    POTLOK:  cpu time    0.5185: real time    0.5229
    SETDIJ:  cpu time    0.0140: real time    0.0148
    EDDIAG:  cpu time    3.2584: real time    3.2885
  RMM-DIIS:  cpu time   13.1774: real time   13.2714
    ORTHCH:  cpu time    0.3920: real time    0.4046
       DOS:  cpu time    0.0011: real time    0.0010
    CHARGE:  cpu time    0.9673: real time    0.9785
    MIXING:  cpu time    0.0127: real time    0.0128
    --------------------------------------------
      LOOP:  cpu time   18.3413: real time   18.4946

 eigenvalue-minimisations  :  3000
 total energy-change (2. order) :-0.9087288E-01  (-0.2468183E-02)
 number of electron     293.0000004 magnetization       0.0694160
 augmentation part       12.9814336 magnetization      -0.3730127

 Broyden mixing:
  rms(total) = 0.72651E+00    rms(broyden)= 0.72645E+00
  rms(prec ) = 0.76486E+00
  weight for this iteration     100.00

 eigenvalues of (default mixing * dielectric matrix)
  average eigenvalue GAMMA=   0.8882
  2.2275  2.2275  0.7561  0.5545  0.3462  0.3462  0.3154  0.3324

 Free energy of the ion-electron system (eV)
  ---------------------------------------------------
  alpha Z        PSCENC =       156.95040625
  Ewald energy   TEWEN  =     30377.80315244
  -Hartree energ DENC   =    -40550.09142479
  -exchange      EXHF   =         0.00000000
  -V(xc)+E(xc)   XCENC  =      1021.44026151
  PAW double counting   =     30452.43153370   -30551.33472347
  entropy T*S    EENTRO =        -0.03299071
  eigenvalues    EBANDS =     -3619.49335246
  atomic energy  EATOM  =     12065.75791449
  Solvation  Ediel_sol  =         0.00000000
  ---------------------------------------------------
  free energy    TOTEN  =      -646.56922304 eV

  energy without entropy =     -646.53623233  energy(sigma->0) =     -646.55272768


--------------------------------------------------------------------------------------------------------




--------------------------------------- Iteration      1(  14)  ---------------------------------------


    POTLOK:  cpu time    0.5277: real time    0.5316
    SETDIJ:  cpu time    0.0148: real time    0.0155
    EDDIAG:  cpu time    3.2353: real time    3.2583
  RMM-DIIS:  cpu time   13.0652: real time   13.1700
    ORTHCH:  cpu time    0.4215: real time    0.4227
       DOS:  cpu time    0.0010: real time    0.0010
    CHARGE:  cpu time    0.9711: real time    0.9805
    MIXING:  cpu time    0.0135: real time    0.0136
    --------------------------------------------
      LOOP:  cpu time   18.2501: real time   18.3932

 eigenvalue-minimisations  :  2969
 total energy-change (2. order) : 0.2081368E+00  (-0.2802528E-02)
 number of electron     293.0000004 magnetization      -0.0199301
 augmentation part       12.9933657 magnetization      -0.2985901

 Broyden mixing:
  rms(total) = 0.62134E+00    rms(broyden)= 0.62130E+00
  rms(prec ) = 0.66804E+00
  weight for this iteration     100.00

 eigenvalues of (default mixing * dielectric matrix)
  average eigenvalue GAMMA=   0.8148
  2.2170  2.2170  0.7653  0.4032  0.5667  0.3463  0.3463  0.3118  0.1596

 Free energy of the ion-electron system (eV)
  ---------------------------------------------------
  alpha Z        PSCENC =       156.95040625
  Ewald energy   TEWEN  =     30377.80315244
  -Hartree energ DENC   =    -40557.01730766
  -exchange      EXHF   =         0.00000000
  -V(xc)+E(xc)   XCENC  =      1021.49607002
  PAW double counting   =     30548.46453869   -30647.19929669
  entropy T*S    EENTRO =        -0.07223542
  eigenvalues    EBANDS =     -3612.54432837
  atomic energy  EATOM  =     12065.75791449
  Solvation  Ediel_sol  =         0.00000000
  ---------------------------------------------------
  free energy    TOTEN  =      -646.36108626 eV

  energy without entropy =     -646.28885084  energy(sigma->0) =     -646.32496855


--------------------------------------------------------------------------------------------------------




--------------------------------------- Iteration      1(  15)  ---------------------------------------


    POTLOK:  cpu time    0.5569: real time    0.5612
    SETDIJ:  cpu time    0.0155: real time    0.0156
    EDDIAG:  cpu time    3.2264: real time    3.2486
  RMM-DIIS:  cpu time   12.9268: real time   13.0185
    ORTHCH:  cpu time    0.6716: real time    0.6780
       DOS:  cpu time    0.0010: real time    0.0010
    CHARGE:  cpu time    0.9717: real time    0.9796
    MIXING:  cpu time    0.0123: real time    0.0124
    --------------------------------------------
      LOOP:  cpu time   18.3824: real time   18.5150

 eigenvalue-minimisations  :  2972
 total energy-change (2. order) :-0.4165266E-01  (-0.2138158E-02)
 number of electron     293.0000004 magnetization       0.0226185
 augmentation part       12.9316850 magnetization       0.3599735

 Broyden mixing:
  rms(total) = 0.61991E+00    rms(broyden)= 0.61921E+00
  rms(prec ) = 0.64753E+00
  weight for this iteration     100.00

 eigenvalues of (default mixing * dielectric matrix)
  average eigenvalue GAMMA=   0.8344
  2.2090  2.2090  0.4104  0.8004  0.7470  0.3458  0.3458  0.4713  0.4713  0.3337

 Free energy of the ion-electron system (eV)
  ---------------------------------------------------
  alpha Z        PSCENC =       156.95040625
  Ewald energy   TEWEN  =     30377.80315244
  -Hartree energ DENC   =    -40565.78877190
  -exchange      EXHF   =         0.00000000
  -V(xc)+E(xc)   XCENC  =      1021.65072385
  PAW double counting   =     30535.55129468   -30634.32239348
  entropy T*S    EENTRO =        -0.05424390
  eigenvalues    EBANDS =     -3603.95082135
  atomic energy  EATOM  =     12065.75791449
  Solvation  Ediel_sol  =         0.00000000
  ---------------------------------------------------
  free energy    TOTEN  =      -646.40273892 eV

  energy without entropy =     -646.34849502  energy(sigma->0) =     -646.37561697


--------------------------------------------------------------------------------------------------------




--------------------------------------- Iteration      1(  16)  ---------------------------------------


    POTLOK:  cpu time    0.5305: real time    0.5368
    SETDIJ:  cpu time    0.0151: real time    0.0153
    EDDIAG:  cpu time    3.2319: real time    3.2601
  RMM-DIIS:  cpu time   12.9693: real time   13.0719
    ORTHCH:  cpu time    0.5173: real time    0.5192
       DOS:  cpu time    0.0010: real time    0.0010
    CHARGE:  cpu time    0.9758: real time    0.9874
    MIXING:  cpu time    0.0123: real time    0.0128
    --------------------------------------------
      LOOP:  cpu time   18.2533: real time   18.4045

 eigenvalue-minimisations  :  2945
 total energy-change (2. order) : 0.6427648E-03  (-0.3366472E-02)
 number of electron     293.0000004 magnetization       0.0547069
 augmentation part       12.8762200 magnetization       0.4323096

 Broyden mixing:
  rms(total) = 0.61809E+00    rms(broyden)= 0.61805E+00
  rms(prec ) = 0.63415E+00
  weight for this iteration     100.00

 eigenvalues of (default mixing * dielectric matrix)
  average eigenvalue GAMMA=   0.8538
  2.1820  2.1820  1.2513  0.3972  0.8212  0.5784  0.4803  0.4803  0.3453  0.3453
  0.3289

 Free energy of the ion-electron system (eV)
  ---------------------------------------------------
  alpha Z        PSCENC =       156.95040625
  Ewald energy   TEWEN  =     30377.80315244
  -Hartree energ DENC   =    -40581.20718737
  -exchange      EXHF   =         0.00000000
  -V(xc)+E(xc)   XCENC  =      1021.86819134
  PAW double counting   =     30488.67075557   -30587.44134911
  entropy T*S    EENTRO =        -0.05245175
  eigenvalues    EBANDS =     -3588.75152802
  atomic energy  EATOM  =     12065.75791449
  Solvation  Ediel_sol  =         0.00000000
  ---------------------------------------------------
  free energy    TOTEN  =      -646.40209615 eV

  energy without entropy =     -646.34964440  energy(sigma->0) =     -646.37587028


--------------------------------------------------------------------------------------------------------




--------------------------------------- Iteration      1(  17)  ---------------------------------------


    POTLOK:  cpu time    0.5288: real time    0.5328
    SETDIJ:  cpu time    0.0154: real time    0.0156
    EDDIAG:  cpu time    3.3192: real time    3.3458
  RMM-DIIS:  cpu time   12.8202: real time   12.9198
    ORTHCH:  cpu time    0.3122: real time    0.3133
       DOS:  cpu time    0.0009: real time    0.0009
    CHARGE:  cpu time    0.9781: real time    0.9869
    MIXING:  cpu time    0.0140: real time    0.0140
    --------------------------------------------
      LOOP:  cpu time   17.9887: real time   18.1292

 eigenvalue-minimisations  :  2958
 total energy-change (2. order) : 0.6009062E-01  (-0.2742115E-02)
 number of electron     293.0000004 magnetization       0.0690103
 augmentation part       12.6866953 magnetization       0.2853194

 Broyden mixing:
  rms(total) = 0.37909E+00    rms(broyden)= 0.37898E+00
  rms(prec ) = 0.39045E+00
  weight for this iteration     100.00

 eigenvalues of (default mixing * dielectric matrix)
  average eigenvalue GAMMA=   0.9020
  2.2820  2.2820  1.6953  0.3918  0.7767  0.6369  0.6369  0.3455  0.3455  0.5492
  0.5492  0.3329

 Free energy of the ion-electron system (eV)
  ---------------------------------------------------
  alpha Z        PSCENC =       156.95040625
  Ewald energy   TEWEN  =     30377.80315244
  -Hartree energ DENC   =    -40607.43667108
  -exchange      EXHF   =         0.00000000
  -V(xc)+E(xc)   XCENC  =      1022.16269285
  PAW double counting   =     30413.47512395   -30512.16151220
  entropy T*S    EENTRO =        -0.06742680
  eigenvalues    EBANDS =     -3562.82568543
  atomic energy  EATOM  =     12065.75791449
  Solvation  Ediel_sol  =         0.00000000
  ---------------------------------------------------
  free energy    TOTEN  =      -646.34200553 eV

  energy without entropy =     -646.27457874  energy(sigma->0) =     -646.30829214


--------------------------------------------------------------------------------------------------------




--------------------------------------- Iteration      1(  18)  ---------------------------------------


    POTLOK:  cpu time    0.5234: real time    0.5286
    SETDIJ:  cpu time    0.0154: real time    0.0154
    EDDIAG:  cpu time    3.2337: real time    3.2596
  RMM-DIIS:  cpu time   12.7619: real time   12.8596
    ORTHCH:  cpu time    0.4145: real time    0.4159
       DOS:  cpu time    0.0011: real time    0.0011
    CHARGE:  cpu time    0.9755: real time    0.9864
    MIXING:  cpu time    0.0146: real time    0.0146
    --------------------------------------------
      LOOP:  cpu time   17.9401: real time   18.0812

 eigenvalue-minimisations  :  2954
 total energy-change (2. order) :-0.7001174E-02  (-0.1712260E-02)
 number of electron     293.0000004 magnetization       0.0268868
 augmentation part       12.7725332 magnetization      -0.0822185

 Broyden mixing:
  rms(total) = 0.18827E+00    rms(broyden)= 0.18754E+00
  rms(prec ) = 0.19371E+00
  weight for this iteration     100.00

 eigenvalues of (default mixing * dielectric matrix)
  average eigenvalue GAMMA=   0.9605
  2.5629  2.5629  1.9443  0.3915  0.7856  0.7856  0.7442  0.6468  0.5200  0.5200
  0.3454  0.3454  0.3319

 Free energy of the ion-electron system (eV)
  ---------------------------------------------------
  alpha Z        PSCENC =       156.95040625
  Ewald energy   TEWEN  =     30377.80315244
  -Hartree energ DENC   =    -40635.57956706
  -exchange      EXHF   =         0.00000000
  -V(xc)+E(xc)   XCENC  =      1022.39068990
  PAW double counting   =     30357.30319170   -30455.81845481
  entropy T*S    EENTRO =        -0.08202545
  eigenvalues    EBANDS =     -3535.07431417
  atomic energy  EATOM  =     12065.75791449
  Solvation  Ediel_sol  =         0.00000000
  ---------------------------------------------------
  free energy    TOTEN  =      -646.34900671 eV

  energy without entropy =     -646.26698126  energy(sigma->0) =     -646.30799398


--------------------------------------------------------------------------------------------------------




--------------------------------------- Iteration      1(  19)  ---------------------------------------


    POTLOK:  cpu time    0.5318: real time    0.5357
    SETDIJ:  cpu time    0.0131: real time    0.0151
    EDDIAG:  cpu time    3.2392: real time    3.2661
  RMM-DIIS:  cpu time   12.9346: real time   13.0274
    ORTHCH:  cpu time    0.4439: real time    0.4447
       DOS:  cpu time    0.0010: real time    0.0010
    CHARGE:  cpu time    0.9695: real time    0.9803
    MIXING:  cpu time    0.0139: real time    0.0143
    --------------------------------------------
      LOOP:  cpu time   18.1470: real time   18.2845

 eigenvalue-minimisations  :  2952
 total energy-change (2. order) :-0.1439102E-01  (-0.1241447E-02)
 number of electron     293.0000004 magnetization      -0.0066482
 augmentation part       12.6873935 magnetization      -0.1214019

 Broyden mixing:
  rms(total) = 0.20803E+00    rms(broyden)= 0.20798E+00
  rms(prec ) = 0.21884E+00
  weight for this iteration     100.00

 eigenvalues of (default mixing * dielectric matrix)
  average eigenvalue GAMMA=   0.9035
  2.5586  2.5586  1.9431  0.3915  0.7788  0.7788  0.7368  0.6582  0.5244  0.5244
  0.3455  0.3455  0.3320  0.1724

 Free energy of the ion-electron system (eV)
  ---------------------------------------------------
  alpha Z        PSCENC =       156.95040625
  Ewald energy   TEWEN  =     30377.80315244
  -Hartree energ DENC   =    -40655.57549910
  -exchange      EXHF   =         0.00000000
  -V(xc)+E(xc)   XCENC  =      1022.53260137
  PAW double counting   =     30321.95960961   -30420.33236443
  entropy T*S    EENTRO =        -0.07608353
  eigenvalues    EBANDS =     -3515.38313484
  atomic energy  EATOM  =     12065.75791449
  Solvation  Ediel_sol  =         0.00000000
  ---------------------------------------------------
  free energy    TOTEN  =      -646.36339772 eV

  energy without entropy =     -646.28731420  energy(sigma->0) =     -646.32535596


--------------------------------------------------------------------------------------------------------




--------------------------------------- Iteration      1(  20)  ---------------------------------------


    POTLOK:  cpu time    0.5255: real time    0.5313
    SETDIJ:  cpu time    0.0152: real time    0.0153
    EDDIAG:  cpu time    3.2380: real time    3.2651
  RMM-DIIS:  cpu time   12.9830: real time   13.0783
    ORTHCH:  cpu time    0.5283: real time    0.5295
       DOS:  cpu time    0.0010: real time    0.0010
    CHARGE:  cpu time    0.9723: real time    0.9817
    MIXING:  cpu time    0.0155: real time    0.0157
    --------------------------------------------
      LOOP:  cpu time   18.2788: real time   18.4179

 eigenvalue-minimisations  :  2964
 total energy-change (2. order) :-0.9895476E-03  (-0.6598857E-03)
 number of electron     293.0000004 magnetization      -0.0096283
 augmentation part       12.7066443 magnetization       0.0277176

 Broyden mixing:
  rms(total) = 0.71519E-01    rms(broyden)= 0.71326E-01
  rms(prec ) = 0.84436E-01
  weight for this iteration     100.00

 eigenvalues of (default mixing * dielectric matrix)
  average eigenvalue GAMMA=   0.9490
  2.6579  2.6579  1.9447  0.7521  0.3915  0.8868  0.8868  0.3454  0.3454  0.5439
  0.5439  0.7196  0.6137  0.6137  0.3322

 Free energy of the ion-electron system (eV)
  ---------------------------------------------------
  alpha Z        PSCENC =       156.95040625
  Ewald energy   TEWEN  =     30377.80315244
  -Hartree energ DENC   =    -40666.64884548
  -exchange      EXHF   =         0.00000000
  -V(xc)+E(xc)   XCENC  =      1022.59193612
  PAW double counting   =     30305.64965001   -30403.96684320
  entropy T*S    EENTRO =        -0.07888969
  eigenvalues    EBANDS =     -3504.42286822
  atomic energy  EATOM  =     12065.75791449
  Solvation  Ediel_sol  =         0.00000000
  ---------------------------------------------------
  free energy    TOTEN  =      -646.36438727 eV

  energy without entropy =     -646.28549758  energy(sigma->0) =     -646.32494243


[...]
  E(xc)   -1111.01094 -1110.66596 -1150.11770    -0.01123     0.00595    -0.00913
  Local  -83768.90185-83755.18788 86090.96484    15.68948   -14.73157     5.50484
  n-local  -289.17848  -287.03293  -269.84983     0.06364    -0.07670     0.21869
  augment    66.33047    64.84992    65.64830     0.05815    -0.03195     0.33580
  Kinetic  4383.70631  4370.66311  4985.00642     0.25150    -0.43964     0.26226
  Fock        0.00000     0.00000     0.00000     0.00000     0.00000     0.00000
  vdW        -1.52101    -1.66074    -0.04121     0.00422    -0.00100     0.02160
  -------------------------------------------------------------------------------------
  Total      -0.46143    -0.23537    -0.85694     0.05749     0.00755    -0.02737
  in kB      -0.26016    -0.13270    -0.48315     0.03241     0.00426    -0.01543
  external pressure =       -0.29 kB  Pullay stress =        0.00 kB


 VOLUME and BASIS-vectors are now :
 -----------------------------------------------------------------------------
  energy-cutoff  :      550.00
  volume of cell :     2841.69
      direct lattice vectors                 reciprocal lattice vectors
    14.860178904 -0.003145218  0.000000000     0.067302242  0.039220069  0.000000000
    -7.430089452 12.750147992  0.000000000     0.000016602  0.078440137  0.000000000
     0.000000000  0.000000000 15.000000000     0.000000000  0.000000000  0.066666667

  length of vectors
    14.860179237 14.757117032 15.000000000     0.077896120  0.078440139  0.066666667


 FORCES acting on ions
    electron-ion (+dipol)            ewald-force                    non-local-force                 convergence-correction
 -----------------------------------------------------------------------------------------------
   0.186E+01 0.428E-01 0.783E+01   -.195E+01 -.897E-01 -.786E+01   0.898E-01 0.444E-01 0.280E-01   -.292E-03 0.237E-02 -.504E-04
   -.211E+01 0.219E+00 0.731E+01   0.218E+01 -.212E+00 -.733E+01   -.639E-01 -.912E-02 0.144E-01   0.106E-02 -.645E-03 0.395E-03
   0.163E+01 0.111E+01 0.734E+01   -.167E+01 -.104E+01 -.737E+01   0.422E-01 -.750E-01 0.279E-01   0.137E-02 0.422E-02 0.501E-03
   -.517E+00 0.114E+01 0.717E+01   0.444E+00 -.111E+01 -.718E+01   0.822E-01 -.262E-01 0.470E-02   0.232E-02 0.288E-02 0.171E-02
   0.172E+01 0.194E+01 0.670E+01   -.186E+01 -.202E+01 -.673E+01   0.122E+00 0.849E-01 0.220E-01   -.958E-03 0.284E-03 0.225E-02
   0.286E+01 0.384E+01 0.679E+01   -.352E+01 -.405E+01 -.678E+01   0.649E+00 0.210E+00 -.207E-01   -.612E-03 0.303E-02 0.387E-02
   -.165E+01 0.367E+01 0.715E+01   0.173E+01 -.423E+01 -.717E+01   -.732E-01 0.560E+00 0.201E-01   0.116E-04 0.190E-03 0.205E-03
   0.182E+01 0.885E+01 0.765E+01   -.195E+01 -.964E+01 -.767E+01   0.121E+00 0.780E+00 0.227E-01   -.804E-04 -.245E-02 0.718E-03
   -.411E+01 0.537E+00 0.727E+01   0.430E+01 -.860E+00 -.728E+01   -.178E+00 0.326E+00 0.949E-02   0.152E-02 -.516E-02 0.267E-03
   -.104E+01 0.287E+01 0.739E+01   0.166E+01 -.336E+01 -.741E+01   -.578E+00 0.472E+00 0.320E-01   -.929E-03 -.151E-02 -.123E-02
   0.645E+00 0.205E+00 0.659E+01   -.636E+00 -.368E+00 -.659E+01   -.249E-02 0.153E+00 -.897E-02   -.263E-02 0.566E-03 0.117E-02
   -.107E+01 -.151E+00 0.703E+01   0.124E+01 -.303E-01 -.706E+01   -.179E+00 0.188E+00 0.286E-01   -.105E-02 -.206E-02 0.167E-02
   0.105E+01 0.455E+01 0.721E+01   -.982E+00 -.460E+01 -.722E+01   -.673E-01 0.545E-01 0.148E-01   0.136E-02 0.481E-02 0.152E-02
   0.134E+01 0.265E+01 0.647E+01   -.117E+01 -.273E+01 -.649E+01   -.189E+00 0.802E-01 0.169E-01   0.344E-02 0.645E-03 0.190E-02
   0.310E+01 0.577E+01 0.818E+01   -.310E+01 -.565E+01 -.820E+01   -.997E-02 -.138E+00 0.186E-01   0.409E-03 0.751E-02 0.172E-02
   -.102E+01 0.640E+01 0.107E+02   0.146E+01 -.616E+01 -.108E+02   -.441E+00 -.231E+00 0.141E+00   -.367E-04 0.100E-02 0.404E-02
   0.395E+01 0.788E+01 0.747E+01   -.423E+01 -.757E+01 -.751E+01   0.276E+00 -.328E+00 0.186E-01   -.133E-02 0.290E-02 0.480E-02
   0.264E+01 0.738E+01 0.778E+01   -.316E+01 -.698E+01 -.742E+01   0.494E+00 -.443E+00 -.349E+00   -.775E-03 0.617E-02 0.516E-02
   0.564E+01 0.134E+02 0.950E+01   -.608E+01 -.147E+02 -.952E+01   0.434E+00 0.122E+01 0.102E-01   -.166E-02 0.310E-02 0.461E-02
   0.265E+02 0.192E+02 0.132E+02   -.326E+02 -.219E+02 -.135E+02   0.607E+01 0.269E+01 0.272E+00   -.233E-02 -.231E-02 0.213E-02
   -.899E+01 0.130E+02 0.712E+01   0.936E+01 -.144E+02 -.714E+01   -.347E+00 0.141E+01 0.220E-01   -.265E-02 -.129E-02 -.215E-02
   -.256E+02 0.167E+02 0.609E+01   0.310E+02 -.198E+02 -.615E+01   -.534E+01 0.309E+01 0.494E-01   -.530E-02 0.134E-02 -.176E-02
   -.423E+01 0.457E+01 0.641E+01   0.451E+01 -.477E+01 -.640E+01   -.265E+00 0.208E+00 -.133E-01   0.732E-03 -.151E-02 0.118E-02
   -.408E+01 0.176E+01 0.634E+01   0.464E+01 -.209E+01 -.637E+01   -.534E+00 0.317E+00 0.280E-01   -.456E-03 0.346E-03 0.124E-02
   -.487E+00 0.500E+01 0.586E+01   0.773E+00 -.502E+01 -.585E+01   -.284E+00 0.282E-02 -.154E-01   0.416E-02 0.560E-02 0.247E-02
   0.954E+00 0.311E+01 0.603E+01   -.726E+00 -.311E+01 -.607E+01   -.220E+00 -.224E-02 0.391E-01   0.245E-02 -.210E-02 0.208E-02
   0.414E+01 0.109E+02 0.640E+01   -.392E+01 -.110E+02 -.638E+01   -.231E+00 0.335E-01 -.381E-01   0.179E-02 0.517E-02 0.242E-02
   0.120E+02 0.670E+01 0.494E+01   -.118E+02 -.662E+01 -.501E+01   -.244E+00 -.671E-01 0.717E-01   0.389E-02 -.257E-02 0.158E-02
   0.184E+01 0.197E+02 0.144E+02   -.170E+01 -.187E+02 -.147E+02   -.170E+00 -.992E+00 0.231E+00   0.314E-02 0.776E-02 0.816E-02
   -.395E+01 0.374E+02 0.302E+02   0.101E+02 -.339E+02 -.294E+02   -.621E+01 -.352E+01 -.850E+00   0.246E-01 0.286E-01 0.230E-01
   0.106E+02 0.185E+02 0.118E+02   -.123E+02 -.168E+02 -.119E+02   0.172E+01 -.172E+01 0.117E+00   -.781E-02 0.624E-02 -.659E-02
   0.128E+02 0.290E+02 0.100E+02   -.202E+02 -.244E+02 -.826E+01   0.737E+01 -.455E+01 -.173E+01   -.278E-01 0.318E-01 -.688E-02
   -.481E+01 0.117E+02 0.902E+01   0.445E+01 -.119E+02 -.883E+01   0.346E+00 0.166E+00 -.201E+00   0.150E-02 0.527E-02 0.560E-02
   -.129E+02 -.202E+02 0.109E+02   0.125E+02 0.267E+02 -.111E+02   0.424E+00 -.645E+01 0.209E+00   -.298E-02 0.934E-03 0.488E-02
   -.124E+02 0.517E+01 0.580E+01   0.137E+02 -.478E+01 -.580E+01   -.131E+01 -.419E+00 -.629E-02   -.974E-04 0.637E-02 -.119E-02
   -.109E+02 -.465E-01 0.695E+01   0.115E+02 0.455E+00 -.698E+01   -.644E+00 -.399E+00 0.204E-01   -.129E-03 -.233E-02 0.127E-02
   -.354E+01 -.140E+01 0.666E+01   0.395E+01 0.165E+01 -.668E+01   -.394E+00 -.250E+00 0.166E-01   0.254E-03 0.192E-02 0.229E-02
   -.207E+01 -.184E+01 0.681E+01   0.213E+01 0.199E+01 -.684E+01   -.586E-01 -.143E+00 0.311E-01   0.490E-03 -.209E-02 0.236E-02
   0.493E+01 0.910E+00 0.362E+01   -.473E+01 -.893E+00 -.358E+01   -.185E+00 -.159E-01 -.410E-01   0.227E-02 0.848E-03 0.653E-03
   0.529E+01 -.114E+01 0.320E+01   -.517E+01 0.114E+01 -.314E+01   -.107E+00 0.444E-02 -.673E-01   0.387E-02 -.194E-02 0.489E-03
   0.270E+02 0.104E+02 0.156E+02   -.263E+02 -.109E+02 -.163E+02   -.753E+00 0.520E+00 0.690E+00   0.119E-01 0.965E-02 0.905E-02
   0.273E+02 -.103E+02 0.157E+02   -.265E+02 0.108E+02 -.164E+02   -.760E+00 -.471E+00 0.752E+00   0.144E-01 -.117E-01 0.862E-02
   -.171E+02 -.984E+00 0.154E+02   0.149E+02 0.154E+01 -.157E+02   0.217E+01 -.545E+00 0.298E+00   -.151E-01 0.820E-02 -.351E-02
   -.207E+02 -.129E+02 0.156E+02   0.196E+02 0.139E+02 -.160E+02   0.113E+01 -.951E+00 0.445E+00   -.141E-01 -.847E-02 0.401E-02
   -.860E+01 -.859E+01 0.700E+01   0.952E+01 0.956E+01 -.700E+01   -.927E+00 -.966E+00 -.285E-01   -.322E-02 0.261E-02 0.484E-02
   -.748E+01 -.469E+01 0.627E+01   0.736E+01 0.533E+01 -.625E+01   0.104E+00 -.630E+00 -.516E-01   -.324E-02 -.116E-02 0.421E-02
   -.266E+01 -.615E+01 0.712E+01   0.274E+01 0.635E+01 -.716E+01   -.794E-01 -.192E+00 0.337E-01   -.771E-03 0.115E-02 0.138E-02
   -.170E+01 -.425E+01 0.656E+01   0.167E+01 0.438E+01 -.654E+01   0.407E-01 -.120E+00 -.125E-01   -.222E-02 -.351E-02 0.676E-03
   0.264E+01 -.405E+01 0.616E+01   -.253E+01 0.413E+01 -.621E+01   -.107E+00 -.839E-01 0.456E-01   0.112E-02 -.892E-03 0.212E-02
   0.105E+01 -.363E+01 0.580E+01   -.104E+01 0.368E+01 -.579E+01   -.750E-02 -.460E-01 -.156E-01   0.222E-02 -.213E-02 0.262E-02
   0.118E+02 -.673E+01 0.387E+01   -.116E+02 0.661E+01 -.395E+01   -.232E+00 0.131E+00 0.747E-01   0.187E-02 -.584E-03 0.931E-03
   0.423E+01 -.946E+01 0.594E+01   -.403E+01 0.944E+01 -.592E+01   -.206E+00 0.185E-01 -.364E-01   0.309E-02 -.461E-02 0.208E-02
   -.666E+01 -.373E+02 0.314E+02   0.128E+02 0.339E+02 -.306E+02   -.623E+01 0.341E+01 -.902E+00   0.263E-01 -.318E-01 0.226E-01
   -.438E+00 -.188E+02 0.152E+02   0.786E+00 0.179E+02 -.154E+02   -.373E+00 0.911E+00 0.233E+00   0.495E-02 -.777E-02 0.888E-02
   0.668E+01 -.353E+02 0.222E+02   -.130E+02 0.317E+02 -.211E+02   0.633E+01 0.367E+01 -.109E+01   -.265E-01 -.297E-01 0.114E-01
   0.702E+00 -.179E+02 0.110E+02   -.966E+00 0.168E+02 -.112E+02   0.284E+00 0.107E+01 0.233E+00   -.694E-02 -.366E-02 0.220E-02
   -.111E+02 -.113E+02 0.834E+01   0.107E+02 0.115E+02 -.848E+01   0.385E+00 -.132E+00 0.127E+00   -.813E-03 -.323E-03 0.604E-02
   -.400E+01 -.111E+02 0.697E+01   0.373E+01 0.113E+02 -.692E+01   0.252E+00 -.187E+00 -.674E-01   0.756E-03 -.253E-02 0.227E-02
   -.162E+01 -.380E+01 0.733E+01   0.156E+01 0.388E+01 -.736E+01   0.673E-01 -.849E-01 0.222E-01   -.260E-02 -.363E-02 -.600E-03
   -.166E+01 -.436E+01 0.780E+01   0.165E+01 0.441E+01 -.781E+01   0.261E-01 -.739E-01 0.168E-01   -.251E-02 0.200E-02 -.710E-03
   0.789E+00 -.285E+01 0.648E+01   -.804E+00 0.288E+01 -.651E+01   0.869E-02 -.277E-01 0.253E-01   0.596E-03 -.786E-03 0.281E-02
   -.337E-01 -.131E+01 0.607E+01   -.917E-01 0.128E+01 -.606E+01   0.120E+00 0.115E-01 -.209E-01   0.164E-02 0.347E-02 0.221E-02
   0.228E+01 -.211E+01 0.644E+01   -.227E+01 0.203E+01 -.646E+01   -.207E-01 0.748E-01 0.154E-01   0.244E-02 -.123E-02 0.107E-02
   0.237E+01 -.202E+01 0.724E+01   -.249E+01 0.188E+01 -.726E+01   0.108E+00 0.127E+00 0.256E-01   0.207E-02 -.751E-03 0.976E-03
   -.149E+01 -.626E+01 0.108E+02   0.202E+01 0.590E+01 -.110E+02   -.541E+00 0.344E+00 0.147E+00   0.528E-03 -.238E-02 0.484E-02
   0.147E+01 -.295E+01 0.802E+01   -.131E+01 0.267E+01 -.804E+01   -.164E+00 0.286E+00 0.164E-01   0.196E-03 -.521E-02 0.160E-02
   -.250E+01 -.810E+01 0.700E+01   0.258E+01 0.742E+01 -.663E+01   -.788E-01 0.714E+00 -.366E+00   0.388E-03 -.716E-02 0.711E-02
   -.352E+00 -.538E+01 0.682E+01   0.451E+00 0.488E+01 -.684E+01   -.977E-01 0.522E+00 0.665E-02   -.218E-02 -.309E-02 0.316E-02
   0.266E+01 -.800E+01 0.982E+01   -.320E+01 0.776E+01 -.993E+01   0.551E+00 0.241E+00 0.110E+00   -.217E-02 -.483E-03 0.113E-02
   -.181E+01 -.407E+01 0.824E+01   0.178E+01 0.390E+01 -.826E+01   0.168E-01 0.161E+00 0.174E-01   0.178E-02 -.222E-02 0.968E-03
   -.221E+01 -.699E+01 -.641E+03   0.394E+01 0.675E+01 0.623E+03   -.160E+01 0.232E+00 0.184E+02   -.175E+00 0.131E-01 0.986E-01
 -----------------------------------------------------------------------------------------------
   0.860E+00 -.266E+00 -.177E+02   0.285E-12 -.295E-12 0.227E-12   -.679E+00 0.251E+00 0.174E+02   -.180E+00 0.184E-01 0.292E+00
 
 
 POSITION                                       TOTAL-FORCE (eV/Angst)
 -----------------------------------------------------------------------------------
     -7.42928     12.74630      7.46521        -0.003793      0.000807      0.001361
      0.00150      1.41929      7.46686         0.005310     -0.003318     -0.000398
      2.48254      0.02443      7.46322         0.009609     -0.005156      0.002694
      2.48322      1.44507      7.47456         0.011421      0.008661     -0.008260
      4.95563      0.02943      7.46545        -0.016668      0.003142     -0.001500
      4.95785      1.45221      7.47528        -0.020098     -0.001905     -0.013308
      7.43189      0.00005      7.46734         0.002235      0.000959     -0.001337
      7.43138      1.41891      7.46563        -0.010363     -0.008422     -0.004031
      2.47799     12.72665      7.47494         0.007811     -0.003147     -0.002235
      9.90701      1.40006      7.46391         0.039438     -0.014221      0.009403
      4.95327     12.72113      7.47661         0.003060     -0.011146     -0.004349
     12.38149      1.39096      7.46518        -0.018162      0.002274      0.001437
     13.61767      2.10839      7.46656         0.004060      0.004731      0.001996
     -1.24772      3.52959      7.47725        -0.009972      0.002952     -0.003506
      1.24114      2.14351      7.47672        -0.001208     -0.010354     -0.005264
      1.24224      3.56539      7.49947         0.004487      0.007772      0.002689
      3.72172      2.16965      7.48991        -0.010681     -0.006188     -0.016111
      3.72958      3.58781      7.53339        -0.020219     -0.024424      0.017139
      6.20507      2.15276      7.47289        -0.008142      0.001970     -0.009922
      6.20943      3.57282      7.49297        -0.002139      0.016245      0.015726
      8.66591      2.11982      7.46584         0.011631     -0.000025      0.005857
      8.66725      3.53519      7.47612         0.011889      0.010294     -0.005047
     11.14331      2.10316      7.46358         0.019633      0.007756      0.001254
     11.13656      3.52137      7.46595         0.022633     -0.016477     -0.000188
     12.37337      4.23456      7.47328         0.006657     -0.019885      0.001531
     -2.48827      5.65788      7.48055         0.011406     -0.003653      0.000883
     -0.01285      4.24434      7.50161        -0.001374     -0.002263     -0.010761
     -0.03727      5.66011      7.52852        -0.004501      0.004427      0.005689
      2.48550      4.30694      7.54616        -0.012105     -0.016833     -0.001058
      2.43725      5.71830      7.63756        -0.011938     -0.017522     -0.038889
      4.97415      4.31641      7.55468        -0.008607     -0.018561      0.037280
      5.00030      5.72753      7.67666        -0.009066     -0.003470      0.014160
      7.44939      4.24229      7.49480        -0.009907     -0.001217     -0.013203
      7.47065      5.64532      7.50939         0.003628      0.008481      0.001918
      9.90195      4.23870      7.47147         0.022636     -0.019390      0.000090
      9.92299      5.65781      7.47466        -0.000831      0.005028     -0.005503
     -3.71443      6.37258      7.47312         0.013192     -0.000269      0.000168
     -3.71502      7.79425      7.47263         0.001761      0.005243      0.001717
     -1.26615      6.37251      7.50639         0.014302      0.000611     -0.000136
     -1.26674      7.79354      7.50741         0.012760      0.001538     -0.003229
      1.18398      6.36657      7.57663        -0.006944     -0.002225      0.011121
      1.18322      7.79910      7.57602        -0.007181      0.015861      0.017019
      6.26173      6.35053      7.57340         0.018772      0.009720      0.035504
      6.26019      7.78454      7.57158         0.015974      0.022943      0.020164
      8.69940      6.35843      7.49099        -0.011045      0.001192     -0.018186
      8.69583      7.78152      7.49300        -0.017450      0.014888     -0.019216
     -4.94046      8.50331      7.47389        -0.005711      0.012877     -0.003460
     -4.94594      9.92713      7.46862         0.005348      0.008789      0.001628
     -2.48833      8.50884      7.48027         0.006941      0.004813     -0.000515
     -2.48243      9.93035      7.47315         0.000913      0.007009      0.001171
     -0.03910      8.50689      7.53077         0.000518      0.009386      0.006717
     -0.01463      9.92361      7.50271        -0.002956      0.004706     -0.013396
      2.43168      8.45188      7.63242        -0.003357      0.005227     -0.029647
      2.47515      9.86286      7.54306        -0.007328     -0.001005      0.004296
      5.00285      8.42443      7.64984        -0.000012      0.016939      0.003453
      4.95898      9.84362      7.55408         0.000422      0.001292      0.013325
      7.47262      8.49772      7.51534        -0.001604      0.018110     -0.010426
      7.44784      9.91567      7.49632        -0.008088     -0.009004     -0.014317
     -6.18068     10.63666      7.47198         0.000070     -0.006286     -0.000347
     -6.18424     12.05516      7.46325         0.012414     -0.013123      0.008136
     -3.71343     10.64261      7.46493        -0.005132      0.006504     -0.003434
     -3.71202     12.06603      7.46371        -0.003985     -0.014777     -0.004361
     -1.24647     10.64013      7.47744        -0.005100     -0.002327     -0.001336
     -1.24262     12.05794      7.46654        -0.001661     -0.008613      0.005234
      1.23772     10.60444      7.49889        -0.005689     -0.012667      0.004344
      1.23925     12.02692      7.47715         0.003707      0.005645     -0.004987
      3.71843     10.57615      7.53458        -0.005594      0.017985      0.008788
      3.71615     11.99767      7.49186        -0.000348      0.016827     -0.013116
      6.19491     10.59200      7.50091         0.004298     -0.007238      0.007987
      6.19390     12.01847      7.47667        -0.010213     -0.011457     -0.001457
      3.68070      7.08395      8.33613        -0.019763      0.002960      0.014556
 -----------------------------------------------------------------------------------
    total drift:                                0.001480      0.003471     -0.040416


--------------------------------------------------------------------------------------------------------



  FREE ENERGIE OF THE ION-ELECTRON SYSTEM (eV)
  ---------------------------------------------------
  free  energy   TOTEN  =      -653.46194343 eV

  energy  without entropy=     -653.42474651  energy(sigma->0) =     -653.44334497
 
 d Force = 0.6468757E-03[ 0.389E-03, 0.904E-03]  d Energy = 0.6742562E-03-0.274E-04
 d Force = 0.9277083E+00[ 0.931E+00, 0.925E+00]  d Ewald  =-0.2453016E+01 0.338E+01


--------------------------------------------------------------------------------------------------------


    POTLOK:  cpu time    0.5218: real time    0.5249


--------------------------------------------------------------------------------------------------------


 Conjugate gradient step on ions:
 trial-energy change:   -0.000674  1 .order   -0.000681   -0.000937   -0.000424
  (g-gl).g = 0.188E-02      g.g   = 0.195E-02  gl.gl    = 0.179E-02
 g(Force)  = 0.185E-02   g(Stress)= 0.934E-04 ortho     =-0.216E-04
 gamma     =   1.05277
 trial     =   0.48756
 opt step  =   0.89060  (harmonic =   0.89060) maximal distance =0.00625732
 next E    =  -653.462125   (d E  =  -0.00086)


--------------------------------------------------------------------------------------------------------


  
 reached required accuracy - stopping structural energy minimisation
     LOOP+:  cpu time   96.9172: real time   97.6496
    4ORBIT:  cpu time    0.0000: real time    0.0000

 total amount of memory used by VASP MPI-rank0   135444. kBytes
=======================================================================

   base      :      30000. kBytes
   nonlr-proj:      10455. kBytes
   fftplans  :      14072. kBytes
   grid      :      39398. kBytes
   one-center:        186. kBytes
   wavefun   :      41333. kBytes
 
  
  
 General timing and accounting informations for this job:
 ========================================================
  
                  Total CPU time used (sec):     7316.282
                            User time (sec):     7239.045
                          System time (sec):       77.236
                         Elapsed time (sec):     7383.638
  
                   Maximum memory used (kb):      765076.
                   Average memory used (kb):           0.
  
                          Minor page faults:     13068638
                          Major page faults:           35
                 Voluntary context switches:        54140
