       N       E                     dE             d eps       ncg     rms          ort
DAV:   1     0.289855416237E+04    0.28986E+04   -0.11884E+05   688   0.129E+03
DAV:   2    -0.328233021617E+02   -0.29314E+04   -0.28332E+04   688   0.341E+02
DAV:   3    -0.491574533321E+03   -0.45875E+03   -0.45506E+03   688   0.154E+02
DAV:   4    -0.507510966464E+03   -0.15936E+02   -0.15552E+02   688   0.402E+01
DAV:   5    -0.508127060492E+03   -0.61609E+00   -0.60960E+00   688   0.614E+00
SDA:   6    -0.384101207802E+03    0.12403E+03   -0.60960E+00   688   0.273E+03 0.000E+00
CGA:   7    -0.432335681683E+03   -0.48234E+02   -0.48180E+02   688   0.295E+02 0.159E+00
CGA:   8    -0.437297669951E+03   -0.49620E+01   -0.50160E+01   688   0.119E+02 0.457E+00
CGA:   9    -0.439381066414E+03   -0.20834E+01   -0.20853E+01   688   0.350E+01-0.433E-01
CGA:  10    -0.440253388562E+03   -0.87232E+00   -0.87230E+00   688   0.130E+01 0.858E-03
CGA:  11    -0.440634448451E+03   -0.38106E+00   -0.39104E+00   688   0.616E+00-0.111E+00
CGA:  12    -0.440778118323E+03   -0.14367E+00   -0.14686E+00   688   0.314E+00-0.507E-01
CGA:  13    -0.440842250478E+03   -0.64132E-01   -0.63951E-01   688   0.142E+00 0.652E-02
CGA:  14    -0.440872176544E+03   -0.29926E-01   -0.29944E-01   688   0.420E-01 0.122E-01
CGA:  15    -0.440883805822E+03   -0.11629E-01   -0.11455E-01   688   0.151E-01 0.250E-02
CGA:  16    -0.440887997684E+03   -0.41919E-02   -0.41653E-02   688   0.608E-02 0.363E-03
CGA:  17    -0.440889866015E+03   -0.18683E-02   -0.18621E-02   688   0.236E-02 0.527E-04
CGA:  18    -0.440890571630E+03   -0.70562E-03   -0.70474E-03   688   0.130E-02 0.829E-05
CGA:  19    -0.440890879526E+03   -0.30790E-03   -0.30780E-03   688   0.562E-03 0.453E-05
CGA:  20    -0.440891055263E+03   -0.17574E-03   -0.17554E-03   688   0.207E-03 0.193E-05
CGA:  21    -0.440891134208E+03   -0.78946E-04   -0.79111E-04   688   0.794E-04-0.107E-05
   1 F= -.44531833E+03 E0= -.44529409E+03  d E =-.445318E+03  mag=     0.0985
       N       E                     dE             d eps       ncg     rms          ort
SDA:   1     0.278080994344E+03    0.71897E+03    0.00000E+00   688   0.219E+04 0.000E+00
CGA:   2    -0.265503801935E+03   -0.54358E+03   -0.54407E+03   688   0.580E+03-0.383E+02
CGA:   3    -0.403117974562E+03   -0.13761E+03   -0.13763E+03   688   0.138E+03 0.233E+02
CGA:   4    -0.435222775209E+03   -0.32105E+02   -0.32259E+02   688   0.408E+02 0.442E+01
CGA:   5    -0.444171728071E+03   -0.89490E+01   -0.84469E+01   688   0.229E+02-0.253E+01
CGA:   6    -0.446970116705E+03   -0.27984E+01   -0.29827E+01   688   0.746E+01-0.189E+00
CGA:   7    -0.448461354431E+03   -0.14912E+01   -0.14879E+01   688   0.233E+01-0.602E-02
CGA:   8    -0.449090875212E+03   -0.62952E+00   -0.62436E+00   688   0.119E+01 0.962E-01
CGA:   9    -0.449286854210E+03   -0.19598E+00   -0.19247E+00   688   0.904E+00 0.288E-02
CGA:  10    -0.449455685873E+03   -0.16883E+00   -0.17150E+00   688   0.294E+00 0.210E-01
CGA:  11    -0.449542575169E+03   -0.86889E-01   -0.86856E-01   688   0.142E+00 0.617E-03
CGA:  12    -0.449566403075E+03   -0.23828E-01   -0.23507E-01   688   0.962E-01-0.406E-03
CGA:  13    -0.449584286956E+03   -0.17884E-01   -0.17938E-01   688   0.272E-01 0.381E-03
CGA:  14    -0.449591743421E+03   -0.74565E-02   -0.74622E-02   688   0.171E-01-0.720E-04
CGA:  15    -0.449594537537E+03   -0.27941E-02   -0.27759E-02   688   0.109E-01-0.278E-04
CGA:  16    -0.449596785961E+03   -0.22484E-02   -0.22482E-02   688   0.477E-02-0.138E-04
CGA:  17    -0.449598204065E+03   -0.14181E-02   -0.14219E-02   688   0.320E-02-0.423E-04
CGA:  18    -0.449598778528E+03   -0.57446E-03   -0.57190E-03   688   0.275E-02-0.172E-04
CGA:  19    -0.449599360701E+03   -0.58217E-03   -0.58200E-03   688   0.109E-02-0.102E-04
CGA:  20    -0.449599744462E+03   -0.38376E-03   -0.38466E-03   688   0.120E-02-0.610E-05
CGA:  21    -0.449599943343E+03   -0.19888E-03   -0.19793E-03   688   0.987E-03-0.201E-05
CGA:  22    -0.449600288568E+03   -0.34522E-03   -0.34563E-03   688   0.122E-02-0.324E-05
CGA:  23    -0.449600879544E+03   -0.59098E-03   -0.58607E-03   688   0.329E-02 0.178E-04
CGA:  24    -0.449601613057E+03   -0.73351E-03   -0.70410E-03   688   0.573E-02-0.268E-03
CGA:  25    -0.449602374796E+03   -0.76174E-03   -0.66350E-03   688   0.973E-02 0.358E-03
CGA:  26    -0.449603217284E+03   -0.84249E-03   -0.82569E-03   688   0.852E-02 0.300E-03
CGA:  27    -0.449603816260E+03   -0.59898E-03   -0.58391E-03   688   0.608E-02 0.313E-03
CGA:  28    -0.449604332092E+03   -0.51583E-03   -0.49765E-03   688   0.692E-02 0.216E-03
CGA:  29    -0.449604904100E+03   -0.57201E-03   -0.54954E-03   688   0.732E-02 0.254E-03
CGA:  30    -0.449605357714E+03   -0.45361E-03   -0.45998E-03   688   0.531E-02-0.392E-04
CGA:  31    -0.449605667044E+03   -0.30933E-03   -0.32078E-03   688   0.476E-02-0.120E-03
SDA:  32    -0.449606001914E+03   -0.33487E-03   -0.34170E-03   688   0.568E-02-0.454E-04
CGA:  33    -0.449607295689E+03   -0.12938E-02   -0.12928E-02   688   0.770E-02 0.160E-04
CGA:  34    -0.449609819554E+03   -0.25239E-02   -0.25315E-02   688   0.395E-02-0.536E-04
CGA:  35    -0.449611174061E+03   -0.13545E-02   -0.13495E-02   688   0.234E-02 0.315E-04
CGA:  36    -0.449611737947E+03   -0.56389E-03   -0.56418E-03   688   0.706E-03-0.695E-05
CGA:  37    -0.449611888494E+03   -0.15055E-03   -0.15052E-03   688   0.457E-03 0.293E-05
CGA:  38    -0.449611979594E+03   -0.91100E-04   -0.91102E-04   688   0.202E-03 0.134E-05
   2 F= -.45410602E+03 E0= -.45408726E+03  d E =-.878769E+01  mag=     0.2297
       N       E                     dE             d eps       ncg     rms          ort
SDA:   1    -0.309530732328E+03    0.14008E+03    0.00000E+00   688   0.380E+03 0.000E+00
CGA:   2    -0.416256343999E+03   -0.10673E+03   -0.10717E+03   688   0.199E+03-0.735E+01
CGA:   3    -0.439683094888E+03   -0.23427E+02   -0.26998E+02   688   0.604E+02 0.905E+01
CGA:   4    -0.451200389523E+03   -0.11517E+02   -0.11040E+02   688   0.143E+02-0.119E+01
CGA:   5    -0.453962471548E+03   -0.27621E+01   -0.27819E+01   688   0.357E+01 0.592E+00
CGA:   6    -0.454693263209E+03   -0.73079E+00   -0.73187E+00   688   0.158E+01 0.264E-01
CGA:   7    -0.454968550814E+03   -0.27529E+00   -0.28026E+00   688   0.446E+00 0.468E-01
CGA:   8    -0.455114421377E+03   -0.14587E+00   -0.14516E+00   688   0.183E+00 0.510E-02
CGA:   9    -0.455171368244E+03   -0.56947E-01   -0.56407E-01   688   0.102E+00 0.480E-02
CGA:  10    -0.455194840111E+03   -0.23472E-01   -0.23468E-01   688   0.449E-01 0.458E-03
CGA:  11    -0.455206968906E+03   -0.12129E-01   -0.12112E-01   688   0.143E-01 0.235E-03
CGA:  12    -0.455211526450E+03   -0.45575E-02   -0.45472E-02   688   0.618E-02 0.872E-04
CGA:  13    -0.455213276692E+03   -0.17502E-02   -0.17504E-02   688   0.372E-02-0.235E-05
CGA:  14    -0.455214323888E+03   -0.10472E-02   -0.10466E-02   688   0.200E-02 0.740E-05
CGA:  15    -0.455215040094E+03   -0.71621E-03   -0.71733E-03   688   0.124E-02-0.816E-05
CGA:  16    -0.455215508024E+03   -0.46793E-03   -0.46836E-03   688   0.878E-03-0.412E-05
CGA:  17    -0.455215801436E+03   -0.29341E-03   -0.29428E-03   688   0.736E-03-0.860E-05
CGA:  18    -0.455216043170E+03   -0.24173E-03   -0.24198E-03   688   0.507E-03-0.220E-05
CGA:  19    -0.455216282149E+03   -0.23898E-03   -0.23974E-03   688   0.449E-03-0.353E-05
CGA:  20    -0.455216453522E+03   -0.17137E-03   -0.17232E-03   688   0.449E-03-0.705E-05
CGA:  21    -0.455216600890E+03   -0.14737E-03   -0.14878E-03   688   0.313E-03-0.162E-04
CGA:  22    -0.455216715009E+03   -0.11412E-03   -0.11540E-03   688   0.232E-03-0.116E-04
CGA:  23    -0.455216795553E+03   -0.80544E-04   -0.81093E-04   688   0.172E-03-0.803E-05
   3 F= -.45969667E+03 E0= -.45967787E+03  d E =-.143783E+02  mag=     0.0756
       N       E                     dE             d eps       ncg     rms          ort
SDA:   1    -0.292578048350E+03    0.16264E+03    0.00000E+00   688   0.468E+03 0.000E+00
CGA:   2    -0.412020511769E+03   -0.11944E+03   -0.11969E+03   688   0.167E+03 0.326E+01
CGA:   3    -0.448701961883E+03   -0.36681E+02   -0.36349E+02   688   0.617E+02-0.698E+01
CGA:   4    -0.460041336718E+03   -0.11339E+02   -0.10660E+02   688   0.110E+02 0.214E+01
CGA:   5    -0.462735823197E+03   -0.26945E+01   -0.26983E+01   688   0.309E+01 0.342E-01
CGA:   6    -0.463478262843E+03   -0.74244E+00   -0.74381E+00   688   0.114E+01 0.144E-01
CGA:   7    -0.463738702721E+03   -0.26044E+00   -0.26165E+00   688   0.628E+00 0.893E-02
CGA:   8    -0.463885897469E+03   -0.14719E+00   -0.14764E+00   688   0.267E+00 0.445E-02
CGA:   9    -0.463962409781E+03   -0.76512E-01   -0.76462E-01   688   0.101E+00 0.189E-02
CGA:  10    -0.463991834321E+03   -0.29425E-01   -0.29422E-01   688   0.334E-01 0.143E-03
CGA:  11    -0.464002342130E+03   -0.10508E-01   -0.10508E-01   688   0.112E-01 0.291E-05
CGA:  12    -0.464005825428E+03   -0.34833E-02   -0.34840E-02   688   0.555E-02-0.110E-04
CGA:  13    -0.464007175833E+03   -0.13504E-02   -0.13496E-02   688   0.282E-02-0.840E-05
CGA:  14    -0.464007991817E+03   -0.81598E-03   -0.81619E-03   688   0.108E-02-0.131E-04
CGA:  15    -0.464008384741E+03   -0.39292E-03   -0.39394E-03   688   0.497E-03-0.103E-04
CGA:  16    -0.464008542411E+03   -0.15767E-03   -0.15784E-03   688   0.210E-03-0.352E-05
CGA:  17    -0.464008614628E+03   -0.72217E-04   -0.72420E-04   688   0.805E-04-0.303E-05
   4 F= -.46850056E+03 E0= -.46847666E+03  d E =-.880389E+01  mag=     0.0327
       N       E                     dE             d eps       ncg     rms          ort
SDA:   1    -0.461788204156E+03    0.22203E+01    0.00000E+00   688   0.604E+01 0.000E+00
CGA:   2    -0.463386126789E+03   -0.15979E+01   -0.15964E+01   688   0.259E+01-0.253E-01
CGA:   3    -0.463883631620E+03   -0.49750E+00   -0.50717E+00   688   0.837E+00-0.103E-02
CGA:   4    -0.464044282480E+03   -0.16065E+00   -0.16126E+00   688   0.149E+00 0.130E-03
CGA:   5    -0.464078818768E+03   -0.34536E-01   -0.34516E-01   688   0.376E-01-0.990E-04
CGA:   6    -0.464088121841E+03   -0.93031E-02   -0.93035E-02   688   0.120E-01 0.485E-05
CGA:   7    -0.464091626666E+03   -0.35048E-02   -0.35049E-02   688   0.544E-02 0.391E-05
CGA:   8    -0.464093238585E+03   -0.16119E-02   -0.16116E-02   688   0.272E-02 0.140E-04
CGA:   9    -0.464093905306E+03   -0.66672E-03   -0.66733E-03   688   0.114E-02 0.155E-04
CGA:  10    -0.464094208056E+03   -0.30275E-03   -0.30279E-03   688   0.352E-03 0.411E-05
CGA:  11    -0.464094320992E+03   -0.11294E-03   -0.11287E-03   688   0.133E-03 0.156E-05
CGA:  12    -0.464094359293E+03   -0.38301E-04   -0.38315E-04   688   0.742E-04-0.131E-05
   5 F= -.46858560E+03 E0= -.46856131E+03  d E =-.888893E+01  mag=     0.0277
       N       E                     dE             d eps       ncg     rms          ort
SDA:   1    -0.369327427225E+03    0.94767E+02    0.00000E+00   688   0.243E+03 0.000E+00
CGA:   2    -0.438003556029E+03   -0.68676E+02   -0.68656E+02   688   0.949E+02 0.176E+01
CGA:   3    -0.457871088592E+03   -0.19868E+02   -0.20226E+02   688   0.244E+02 0.152E+01
CGA:   4    -0.462693177420E+03   -0.48221E+01   -0.48917E+01   688   0.509E+01 0.148E+00
CGA:   5    -0.463868893517E+03   -0.11757E+01   -0.11768E+01   688   0.138E+01 0.111E-01
CGA:   6    -0.464214440724E+03   -0.34555E+00   -0.34551E+00   688   0.423E+00-0.982E-03
CGA:   7    -0.464341807205E+03   -0.12737E+00   -0.12729E+00   688   0.170E+00 0.139E-02
CGA:   8    -0.464397997907E+03   -0.56191E-01   -0.56168E-01   688   0.711E-01 0.270E-03
CGA:   9    -0.464419789471E+03   -0.21792E-01   -0.21786E-01   688   0.246E-01 0.112E-03
CGA:  10    -0.464427490573E+03   -0.77011E-02   -0.76999E-02   688   0.776E-02 0.203E-04
CGA:  11    -0.464429955914E+03   -0.24653E-02   -0.24655E-02   688   0.273E-02-0.334E-05
CGA:  12    -0.464430824289E+03   -0.86837E-03   -0.86833E-03   688   0.129E-02 0.933E-06
CGA:  13    -0.464431179130E+03   -0.35484E-03   -0.35484E-03   688   0.594E-03-0.136E-05
CGA:  14    -0.464431374558E+03   -0.19543E-03   -0.19552E-03   688   0.216E-03-0.174E-05
CGA:  15    -0.464431456741E+03   -0.82183E-04   -0.82379E-04   688   0.780E-04-0.194E-05
   6 F= -.46892666E+03 E0= -.46890275E+03  d E =-.341054E+00  mag=     0.0169
       N       E                     dE             d eps       ncg     rms          ort
SDA:   1    -0.448248155171E+03    0.16183E+02    0.00000E+00   688   0.456E+02 0.000E+00
CGA:   2    -0.461466886700E+03   -0.13219E+02   -0.13219E+02   688   0.165E+02-0.142E+00
CGA:   3    -0.465132798657E+03   -0.36659E+01   -0.36659E+01   688   0.398E+01 0.182E-01
CGA:   4    -0.465944541512E+03   -0.81174E+00   -0.81237E+00   688   0.914E+00 0.417E-02
CGA:   5    -0.466141013287E+03   -0.19647E+00   -0.19625E+00   688   0.244E+00-0.350E-03
CGA:   6    -0.466202419727E+03   -0.61406E-01   -0.61403E-01   688   0.722E-01 0.286E-04
CGA:   7    -0.466224579514E+03   -0.22160E-01   -0.22164E-01   688   0.332E-01-0.625E-04
CGA:   8    -0.466234744229E+03   -0.10165E-01   -0.10165E-01   688   0.140E-01-0.107E-05
CGA:   9    -0.466238997922E+03   -0.42537E-02   -0.42542E-02   688   0.461E-02-0.152E-04
CGA:  10    -0.466240363493E+03   -0.13656E-02   -0.13656E-02   688   0.153E-02 0.152E-06
CGA:  11    -0.466240811606E+03   -0.44811E-03   -0.44809E-03   688   0.543E-03 0.211E-05
CGA:  12    -0.466240979870E+03   -0.16826E-03   -0.16834E-03   688   0.225E-03-0.281E-05
CGA:  13    -0.466241049718E+03   -0.69848E-04   -0.69907E-04   688   0.104E-03-0.198E-05
   7 F= -.47073443E+03 E0= -.47071053E+03  d E =-.214883E+01  mag=     0.0107
       N       E                     dE             d eps       ncg     rms          ort
SDA:   1    -0.393560882393E+03    0.72680E+02    0.00000E+00   688   0.207E+03 0.000E+00
CGA:   2    -0.450888772960E+03   -0.57328E+02   -0.57319E+02   688   0.620E+02-0.464E+00
CGA:   3    -0.465492780935E+03   -0.14604E+02   -0.14598E+02   688   0.155E+02 0.277E-01
CGA:   4    -0.468580708655E+03   -0.30879E+01   -0.31107E+01   688   0.323E+01 0.441E-01
CGA:   5    -0.469332284835E+03   -0.75158E+00   -0.75053E+00   688   0.801E+00-0.528E-02
CGA:   6    -0.469530336823E+03   -0.19805E+00   -0.19810E+00   688   0.271E+00 0.673E-03
CGA:   7    -0.469606016866E+03   -0.75680E-01   -0.75682E-01   688   0.121E+00-0.335E-03
CGA:   8    -0.469641971922E+03   -0.35955E-01   -0.35960E-01   688   0.554E-01-0.868E-04
CGA:   9    -0.469656813860E+03   -0.14842E-01   -0.14842E-01   688   0.194E-01 0.149E-04
CGA:  10    -0.469662475395E+03   -0.56615E-02   -0.56614E-02   688   0.593E-02 0.795E-05
CGA:  11    -0.469664260321E+03   -0.17849E-02   -0.17850E-02   688   0.213E-02-0.641E-06
CGA:  12    -0.469664861279E+03   -0.60096E-03   -0.60096E-03   688   0.975E-03-0.848E-06
CGA:  13    -0.469665141455E+03   -0.28018E-03   -0.28017E-03   688   0.396E-03 0.104E-05
CGA:  14    -0.469665274384E+03   -0.13293E-03   -0.13313E-03   688   0.179E-03-0.326E-05
CGA:  15    -0.469665327742E+03   -0.53358E-04   -0.53355E-04   688   0.798E-04 0.307E-06
   8 F= -.47416381E+03 E0= -.47414368E+03  d E =-.342938E+01  mag=     0.0022
       N       E                     dE             d eps       ncg     rms          ort
SDA:   1    -0.405082607977E+03    0.64583E+02    0.00000E+00   688   0.177E+03 0.000E+00
CGA:   2    -0.454552678264E+03   -0.49470E+02   -0.49464E+02   688   0.534E+02-0.555E+00
CGA:   3    -0.467005945068E+03   -0.12453E+02   -0.12453E+02   688   0.135E+02 0.296E-01
CGA:   4    -0.469674846920E+03   -0.26689E+01   -0.26826E+01   688   0.283E+01 0.272E-01
CGA:   5    -0.470328669862E+03   -0.65382E+00   -0.65356E+00   688   0.687E+00-0.596E-04
CGA:   6    -0.470497472747E+03   -0.16880E+00   -0.16874E+00   688   0.244E+00-0.652E-03
CGA:   7    -0.470559786556E+03   -0.62314E-01   -0.62296E-01   688   0.119E+00-0.389E-03
CGA:   8    -0.470590139654E+03   -0.30353E-01   -0.30357E-01   688   0.572E-01 0.140E-03
CGA:   9    -0.470605407552E+03   -0.15268E-01   -0.15269E-01   688   0.196E-01 0.894E-04
CGA:  10    -0.470611202031E+03   -0.57945E-02   -0.57946E-02   688   0.706E-02 0.398E-05
CGA:  11    -0.470612958491E+03   -0.17565E-02   -0.17558E-02   688   0.311E-02-0.146E-04
CGA:  12    -0.470613691303E+03   -0.73281E-03   -0.73264E-03   688   0.114E-02 0.109E-05
CGA:  13    -0.470614051876E+03   -0.36057E-03   -0.36080E-03   688   0.510E-03-0.351E-05
CGA:  14    -0.470614197703E+03   -0.14583E-03   -0.14584E-03   688   0.276E-03-0.328E-06
CGA:  15    -0.470614270366E+03   -0.72663E-04   -0.72634E-04   688   0.125E-03-0.271E-05
   9 F= -.47511529E+03 E0= -.47509757E+03  d E =-.438087E+01  mag=     0.0000
       N       E                     dE             d eps       ncg     rms          ort
SDA:   1    -0.448594791037E+03    0.22019E+02    0.00000E+00   688   0.648E+02 0.000E+00
CGA:   2    -0.467005262869E+03   -0.18410E+02   -0.18415E+02   688   0.184E+02-0.185E+00
CGA:   3    -0.471372040891E+03   -0.43668E+01   -0.43635E+01   688   0.488E+01-0.223E-01
CGA:   4    -0.472290146173E+03   -0.91811E+00   -0.91428E+00   688   0.131E+01-0.361E-02
CGA:   5    -0.472522619085E+03   -0.23247E+00   -0.23326E+00   688   0.390E+00 0.903E-05
CGA:   6    -0.472600921026E+03   -0.78302E-01   -0.78455E-01   688   0.118E+00 0.550E-03
CGA:   7    -0.472632908981E+03   -0.31988E-01   -0.31988E-01   688   0.489E-01-0.161E-04
CGA:   8    -0.472647284977E+03   -0.14376E-01   -0.14376E-01   688   0.274E-01 0.116E-04
CGA:   9    -0.472653530811E+03   -0.62458E-02   -0.62524E-02   688   0.133E-01 0.951E-04
CGA:  10    -0.472656648076E+03   -0.31173E-02   -0.31170E-02   688   0.449E-02 0.645E-06
CGA:  11    -0.472657898274E+03   -0.12502E-02   -0.12503E-02   688   0.172E-02-0.367E-06
CGA:  12    -0.472658311305E+03   -0.41303E-03   -0.41297E-03   688   0.876E-03-0.261E-05
CGA:  13    -0.472658515801E+03   -0.20450E-03   -0.20454E-03   688   0.367E-03 0.273E-05
CGA:  14    -0.472658629368E+03   -0.11357E-03   -0.11370E-03   688   0.184E-03-0.215E-05
CGA:  15    -0.472658678949E+03   -0.49581E-04   -0.49574E-04   688   0.106E-03 0.794E-06
  10 F= -.47715122E+03 E0= -.47713260E+03  d E =-.203593E+01  mag=    -0.0001
       N       E                     dE             d eps       ncg     rms          ort
SDA:   1    -0.258620896768E+03    0.21404E+03    0.00000E+00   688   0.619E+03 0.000E+00
CGA:   2    -0.416892508318E+03   -0.15827E+03   -0.15828E+03   688   0.184E+03 0.148E+01
CGA:   3    -0.462450152749E+03   -0.45558E+02   -0.45571E+02   688   0.463E+02 0.801E+00
CGA:   4    -0.471971136721E+03   -0.95210E+01   -0.90995E+01   688   0.145E+02-0.108E+01
CGA:   5    -0.474302300317E+03   -0.23312E+01   -0.24139E+01   688   0.463E+01-0.314E-01
CGA:   6    -0.475217775302E+03   -0.91547E+00   -0.89173E+00   688   0.179E+01-0.827E-01
CGA:   7    -0.475572117560E+03   -0.35434E+00   -0.35772E+00   688   0.734E+00 0.218E-01
CGA:   8    -0.475734220796E+03   -0.16210E+00   -0.16124E+00   688   0.434E+00-0.105E-01
CGA:   9    -0.475820672585E+03   -0.86452E-01   -0.86938E-01   688   0.193E+00 0.369E-02
CGA:  10    -0.475864147764E+03   -0.43475E-01   -0.43439E-01   688   0.925E-01-0.677E-03
CGA:  11    -0.475882288655E+03   -0.18141E-01   -0.18172E-01   688   0.436E-01 0.233E-03
CGA:  12    -0.475891635423E+03   -0.93468E-02   -0.93365E-02   688   0.180E-01-0.150E-03
CGA:  13    -0.475895366682E+03   -0.37313E-02   -0.37342E-02   688   0.896E-02 0.413E-04
CGA:  14    -0.475897245563E+03   -0.18789E-02   -0.18774E-02   688   0.443E-02-0.248E-04
CGA:  15    -0.475898251886E+03   -0.10063E-02   -0.10063E-02   688   0.226E-02-0.233E-05
CGA:  16    -0.475898739424E+03   -0.48754E-03   -0.48718E-03   688   0.132E-02-0.117E-04
CGA:  17    -0.475899026324E+03   -0.28690E-03   -0.28685E-03   688   0.632E-03-0.199E-05
CGA:  18    -0.475899177045E+03   -0.15072E-03   -0.15077E-03   688   0.401E-03-0.713E-05
CGA:  19    -0.475899254883E+03   -0.77838E-04   -0.77815E-04   688   0.176E-03-0.256E-06
  11 F= -.48036978E+03 E0= -.48034803E+03  d E =-.525448E+01  mag=    -0.0076
       N       E                     dE             d eps       ncg     rms          ort
SDA:   1    -0.456875078943E+03    0.19024E+02    0.00000E+00   688   0.520E+02 0.000E+00
CGA:   2    -0.471488163905E+03   -0.14613E+02   -0.14631E+02   688   0.152E+02-0.233E+00
CGA:   3    -0.474880895669E+03   -0.33927E+01   -0.33934E+01   688   0.618E+01 0.265E-01
CGA:   4    -0.475615507192E+03   -0.73461E+00   -0.80979E+00   688   0.207E+01-0.228E+00
CGA:   5    -0.475933940482E+03   -0.31843E+00   -0.30640E+00   688   0.428E+00-0.242E-03
CGA:   6    -0.476028787295E+03   -0.94847E-01   -0.94861E-01   688   0.125E+00 0.175E-02
CGA:   7    -0.476055325946E+03   -0.26539E-01   -0.26521E-01   688   0.901E-01-0.513E-03
CGA:   8    -0.476068703250E+03   -0.13377E-01   -0.13487E-01   688   0.323E-01 0.306E-04
CGA:   9    -0.476078603429E+03   -0.99002E-02   -0.99060E-02   688   0.148E-01-0.485E-04
CGA:  10    -0.476081957474E+03   -0.33540E-02   -0.33538E-02   688   0.118E-01 0.106E-03
CGA:  11    -0.476083778556E+03   -0.18211E-02   -0.18175E-02   688   0.327E-02 0.188E-05
CGA:  12    -0.476084705837E+03   -0.92728E-03   -0.92715E-03   688   0.157E-02 0.229E-05
CGA:  13    -0.476084978318E+03   -0.27248E-03   -0.27211E-03   688   0.974E-03-0.426E-05
CGA:  14    -0.476085192255E+03   -0.21394E-03   -0.21395E-03   688   0.464E-03 0.383E-05
CGA:  15    -0.476085334228E+03   -0.14197E-03   -0.14249E-03   688   0.458E-03-0.527E-05
CGA:  16    -0.476085446123E+03   -0.11189E-03   -0.11175E-03   688   0.545E-03 0.519E-05
CGA:  17    -0.476085655084E+03   -0.20896E-03   -0.21153E-03   688   0.938E-03-0.153E-04
CGA:  18    -0.476086520670E+03   -0.86559E-03   -0.94836E-03   688   0.538E-02-0.244E-03
CGA:  19    -0.476086798794E+03   -0.27812E-03   -0.18635E-03   688   0.622E-02 0.173E-02
CGA:  20    -0.476087492614E+03   -0.69382E-03   -0.51003E-03   688   0.849E-02 0.236E-02
CGA:  21    -0.476088183521E+03   -0.69091E-03   -0.56328E-03   688   0.117E-01 0.212E-02
CGA:  22    -0.476088732179E+03   -0.54866E-03   -0.50044E-03   688   0.133E-01 0.118E-02
CGA:  23    -0.476089130145E+03   -0.39797E-03   -0.39979E-03   688   0.125E-01-0.107E-05
CGA:  24    -0.476089422507E+03   -0.29236E-03   -0.32216E-03   688   0.109E-01-0.960E-03
CGA:  25    -0.476089647837E+03   -0.22533E-03   -0.26350E-03   688   0.994E-02-0.125E-02
CGA:  26    -0.476089859663E+03   -0.21183E-03   -0.24630E-03   688   0.103E-01-0.105E-02
CGA:  27    -0.476090110284E+03   -0.25062E-03   -0.27690E-03   688   0.115E-01-0.730E-03
CGA:  28    -0.476090421372E+03   -0.31109E-03   -0.32388E-03   688   0.124E-01-0.349E-03
CGA:  29    -0.476090761560E+03   -0.34019E-03   -0.34503E-03   688   0.120E-01-0.149E-03
CGA:  30    -0.476091080089E+03   -0.31853E-03   -0.32581E-03   688   0.110E-01-0.244E-03
CGA:  31    -0.476091364369E+03   -0.28428E-03   -0.29468E-03   688   0.104E-01-0.346E-03
SDA:  32    -0.476091637303E+03   -0.27293E-03   -0.28383E-03   688   0.104E-01-0.335E-03
CGA:  33    -0.476096306385E+03   -0.46691E-02   -0.46390E-02   688   0.147E-01 0.943E-04
CGA:  34    -0.476099998936E+03   -0.36926E-02   -0.37049E-02   688   0.680E-02-0.132E-03
CGA:  35    -0.476101822691E+03   -0.18238E-02   -0.18319E-02   688   0.250E-02-0.672E-04
CGA:  36    -0.476102491303E+03   -0.66861E-03   -0.67187E-03   688   0.760E-03-0.301E-04
CGA:  37    -0.476102665505E+03   -0.17420E-03   -0.17426E-03   688   0.304E-03-0.740E-06
CGA:  38    -0.476102747762E+03   -0.82257E-04   -0.82687E-04   688   0.155E-03-0.466E-05
  12 F= -.48058713E+03 E0= -.48057902E+03  d E =-.547184E+01  mag=    -0.0433
       N       E                     dE             d eps       ncg     rms          ort
SDA:   1    -0.448441449366E+03    0.27661E+02    0.00000E+00   688   0.777E+02 0.000E+00
CGA:   2    -0.470651624747E+03   -0.22210E+02   -0.22259E+02   688   0.238E+02-0.379E+00
CGA:   3    -0.475950987501E+03   -0.52994E+01   -0.52773E+01   688   0.719E+01 0.557E+00
CGA:   4    -0.477255574012E+03   -0.13046E+01   -0.12923E+01   688   0.175E+01-0.206E+00
CGA:   5    -0.477618594729E+03   -0.36302E+00   -0.36267E+00   688   0.368E+00 0.132E-01
CGA:   6    -0.477713957887E+03   -0.95363E-01   -0.95395E-01   688   0.118E+00-0.353E-03
CGA:   7    -0.477748563011E+03   -0.34605E-01   -0.34524E-01   688   0.549E-01 0.708E-03
CGA:   8    -0.477763459655E+03   -0.14897E-01   -0.14911E-01   688   0.304E-01-0.158E-03
CGA:   9    -0.477771232566E+03   -0.77729E-02   -0.77564E-02   688   0.107E-01 0.257E-03
CGA:  10    -0.477774500310E+03   -0.32677E-02   -0.32683E-02   688   0.370E-02-0.249E-05
CGA:  11    -0.477775531332E+03   -0.10310E-02   -0.10305E-02   688   0.157E-02 0.722E-05
CGA:  12    -0.477775910106E+03   -0.37877E-03   -0.37901E-03   688   0.656E-03-0.821E-05
CGA:  13    -0.477776110567E+03   -0.20046E-03   -0.20007E-03   688   0.255E-03 0.458E-05
CGA:  14    -0.477776201073E+03   -0.90506E-04   -0.90750E-04   688   0.156E-03-0.181E-05
  13 F= -.48226790E+03 E0= -.48225776E+03  d E =-.168077E+01  mag=    -0.0151
       N       E                     dE             d eps       ncg     rms          ort
SDA:   1    -0.470677666577E+03    0.70984E+01    0.00000E+00   688   0.193E+02 0.000E+00
CGA:   2    -0.476227164966E+03   -0.55495E+01   -0.55528E+01   688   0.568E+01-0.375E-01
CGA:   3    -0.477594807251E+03   -0.13676E+01   -0.13673E+01   688   0.154E+01 0.290E-01
CGA:   4    -0.477885993539E+03   -0.29119E+00   -0.29016E+00   688   0.361E+00-0.569E-02
CGA:   5    -0.477960143809E+03   -0.74150E-01   -0.74229E-01   688   0.898E-01 0.115E-02
CGA:   6    -0.477981595819E+03   -0.21452E-01   -0.21453E-01   688   0.287E-01-0.123E-03
CGA:   7    -0.477990130993E+03   -0.85352E-02   -0.85312E-02   688   0.121E-01 0.446E-04
CGA:   8    -0.477994008180E+03   -0.38772E-02   -0.38807E-02   688   0.614E-02-0.337E-04
CGA:   9    -0.477995632982E+03   -0.16248E-02   -0.16235E-02   688   0.262E-02 0.374E-04
CGA:  10    -0.477996314439E+03   -0.68146E-03   -0.68158E-03   688   0.899E-03-0.397E-05
CGA:  11    -0.477996578469E+03   -0.26403E-03   -0.26392E-03   688   0.315E-03 0.194E-05
CGA:  12    -0.477996671743E+03   -0.93274E-04   -0.93364E-04   688   0.165E-03-0.145E-05
  14 F= -.48248924E+03 E0= -.48247796E+03  d E =-.190210E+01  mag=     0.0008
       N       E                     dE             d eps       ncg     rms          ort
SDA:   1    -0.463791078541E+03    0.14205E+02    0.00000E+00   688   0.390E+02 0.000E+00
CGA:   2    -0.475170297070E+03   -0.11379E+02   -0.11392E+02   688   0.119E+02-0.180E+00
CGA:   3    -0.477966269147E+03   -0.27960E+01   -0.27939E+01   688   0.350E+01-0.614E-01
CGA:   4    -0.478569238930E+03   -0.60297E+00   -0.61014E+00   688   0.840E+00 0.758E-02
CGA:   5    -0.478742513617E+03   -0.17327E+00   -0.17294E+00   688   0.212E+00-0.253E-02
CGA:   6    -0.478793738853E+03   -0.51225E-01   -0.51227E-01   688   0.673E-01 0.707E-03
CGA:   7    -0.478813788032E+03   -0.20049E-01   -0.20048E-01   688   0.320E-01 0.189E-05
CGA:   8    -0.478822672241E+03   -0.88842E-02   -0.88756E-02   688   0.173E-01 0.181E-03
CGA:   9    -0.478827061866E+03   -0.43896E-02   -0.43894E-02   688   0.673E-02 0.277E-04
CGA:  10    -0.478828949366E+03   -0.18875E-02   -0.18865E-02   688   0.220E-02 0.236E-04
CGA:  11    -0.478829581009E+03   -0.63164E-03   -0.63187E-03   688   0.927E-03-0.655E-05
CGA:  12    -0.478829811602E+03   -0.23059E-03   -0.23060E-03   688   0.412E-03 0.318E-05
CGA:  13    -0.478829940845E+03   -0.12924E-03   -0.12937E-03   688   0.183E-03-0.206E-05
CGA:  14    -0.478830002994E+03   -0.62149E-04   -0.62016E-04   688   0.105E-03 0.141E-05
  15 F= -.48332497E+03 E0= -.48331581E+03  d E =-.835738E+00  mag=     0.0036
       N       E                     dE             d eps       ncg     rms          ort
SDA:   1    -0.474083123377E+03    0.47468E+01    0.00000E+00   688   0.126E+02 0.000E+00
CGA:   2    -0.477764916700E+03   -0.36818E+01   -0.36835E+01   688   0.381E+01-0.294E-01
CGA:   3    -0.478666557231E+03   -0.90164E+00   -0.90164E+00   688   0.109E+01-0.184E-03
CGA:   4    -0.478859854212E+03   -0.19330E+00   -0.19411E+00   688   0.262E+00 0.196E-03
CGA:   5    -0.478913984348E+03   -0.54130E-01   -0.54124E-01   688   0.653E-01-0.317E-04
CGA:   6    -0.478930096964E+03   -0.16113E-01   -0.16114E-01   688   0.206E-01 0.858E-04
CGA:   7    -0.478936413007E+03   -0.63160E-02   -0.63160E-02   688   0.961E-02-0.630E-05
CGA:   8    -0.478939206030E+03   -0.27930E-02   -0.27916E-02   688   0.518E-02 0.297E-04
CGA:   9    -0.478940512671E+03   -0.13066E-02   -0.13067E-02   688   0.206E-02 0.788E-05
CGA:  10    -0.478941074339E+03   -0.56167E-03   -0.56156E-03   688   0.665E-03 0.553E-05
CGA:  11    -0.478941269570E+03   -0.19523E-03   -0.19535E-03   688   0.261E-03-0.342E-05
CGA:  12    -0.478941338852E+03   -0.69282E-04   -0.69273E-04   688   0.125E-03 0.106E-05
  16 F= -.48343886E+03 E0= -.48343115E+03  d E =-.949628E+00  mag=     0.0045
       N       E                     dE             d eps       ncg     rms          ort
SDA:   1    -0.465432967482E+03    0.13508E+02    0.00000E+00   688   0.356E+02 0.000E+00
CGA:   2    -0.476324856654E+03   -0.10892E+02   -0.10898E+02   688   0.112E+02-0.822E-01
CGA:   3    -0.479040541510E+03   -0.27157E+01   -0.27178E+01   688   0.245E+01 0.460E-01
CGA:   4    -0.479571374338E+03   -0.53083E+00   -0.53128E+00   688   0.550E+00 0.341E-02
CGA:   5    -0.479695264558E+03   -0.12389E+00   -0.12393E+00   688   0.185E+00 0.402E-03
CGA:   6    -0.479737708434E+03   -0.42444E-01   -0.42485E-01   688   0.726E-01 0.557E-03
CGA:   7    -0.479758868692E+03   -0.21160E-01   -0.21157E-01   688   0.311E-01 0.567E-04
CGA:   8    -0.479769291947E+03   -0.10423E-01   -0.10417E-01   688   0.126E-01 0.690E-04
CGA:   9    -0.479772994535E+03   -0.37026E-02   -0.37011E-02   688   0.489E-02 0.318E-04
CGA:  10    -0.479774203716E+03   -0.12092E-02   -0.12095E-02   688   0.178E-02 0.103E-04
CGA:  11    -0.479774695473E+03   -0.49176E-03   -0.49181E-03   688   0.639E-03-0.538E-05
CGA:  12    -0.479774903197E+03   -0.20772E-03   -0.20755E-03   688   0.286E-03 0.294E-05
CGA:  13    -0.479775000297E+03   -0.97100E-04   -0.97180E-04   688   0.147E-03-0.115E-05
  17 F= -.48427742E+03 E0= -.48427085E+03  d E =-.838559E+00  mag=     0.0188
       N       E                     dE             d eps       ncg     rms          ort
SDA:   1    -0.448226286329E+03    0.31549E+02    0.00000E+00   688   0.796E+02 0.000E+00
CGA:   2    -0.472547802518E+03   -0.24322E+02   -0.24339E+02   688   0.249E+02-0.296E+00
CGA:   3    -0.478612091973E+03   -0.60643E+01   -0.60741E+01   688   0.523E+01 0.142E+00
CGA:   4    -0.479791304737E+03   -0.11792E+01   -0.11805E+01   688   0.110E+01 0.996E-02
CGA:   5    -0.480068916432E+03   -0.27761E+00   -0.27763E+00   688   0.319E+00 0.567E-03
CGA:   6    -0.480158489003E+03   -0.89573E-01   -0.89560E-01   688   0.132E+00 0.672E-03
CGA:   7    -0.480197625824E+03   -0.39137E-01   -0.39123E-01   688   0.652E-01 0.319E-03
CGA:   8    -0.480216390745E+03   -0.18765E-01   -0.18760E-01   688   0.263E-01 0.212E-03
CGA:   9    -0.480223769692E+03   -0.73789E-02   -0.73782E-02   688   0.861E-02 0.501E-04
CGA:  10    -0.480226295375E+03   -0.25257E-02   -0.25254E-02   688   0.273E-02 0.820E-05
CGA:  11    -0.480227158000E+03   -0.86262E-03   -0.86264E-03   688   0.111E-02-0.166E-05
CGA:  12    -0.480227511850E+03   -0.35385E-03   -0.35374E-03   688   0.551E-03 0.289E-05
CGA:  13    -0.480227685520E+03   -0.17367E-03   -0.17380E-03   688   0.260E-03-0.351E-05
CGA:  14    -0.480227775026E+03   -0.89506E-04   -0.89567E-04   688   0.102E-03-0.802E-06
  18 F= -.48473789E+03 E0= -.48473253E+03  d E =-.129902E+01  mag=     0.0243
       N       E                     dE             d eps       ncg     rms          ort
SDA:   1    -0.462467440348E+03    0.17760E+02    0.00000E+00   688   0.453E+02 0.000E+00
CGA:   2    -0.476655723929E+03   -0.14188E+02   -0.14195E+02   688   0.145E+02-0.148E+00
CGA:   3    -0.480067880387E+03   -0.34122E+01   -0.34167E+01   688   0.311E+01 0.307E-01
CGA:   4    -0.480755251538E+03   -0.68737E+00   -0.68811E+00   688   0.645E+00 0.303E-02
CGA:   5    -0.480911305478E+03   -0.15605E+00   -0.15605E+00   688   0.194E+00 0.122E-03
CGA:   6    -0.480963828459E+03   -0.52523E-01   -0.52526E-01   688   0.750E-01 0.123E-03
CGA:   7    -0.480986974543E+03   -0.23146E-01   -0.23142E-01   688   0.346E-01 0.901E-04
CGA:   8    -0.480997953807E+03   -0.10979E-01   -0.10978E-01   688   0.135E-01 0.350E-04
CGA:   9    -0.481001930113E+03   -0.39763E-02   -0.39760E-02   688   0.422E-02 0.230E-04
CGA:  10    -0.481003197708E+03   -0.12676E-02   -0.12676E-02   688   0.126E-02-0.215E-05
CGA:  11    -0.481003619448E+03   -0.42174E-03   -0.42161E-03   688   0.457E-03 0.258E-05
CGA:  12    -0.481003783553E+03   -0.16411E-03   -0.16411E-03   688   0.216E-03-0.136E-06
CGA:  13    -0.481003852682E+03   -0.69129E-04   -0.69112E-04   688   0.972E-04 0.616E-06
  19 F= -.48551799E+03 E0= -.48551214E+03  d E =-.780102E+00  mag=     0.0489
       N       E                     dE             d eps       ncg     rms          ort
SDA:   1    -0.465841714041E+03    0.15162E+02    0.00000E+00   688   0.376E+02 0.000E+00
CGA:   2    -0.477600648435E+03   -0.11759E+02   -0.11763E+02   688   0.121E+02-0.127E+00
CGA:   3    -0.480442207460E+03   -0.28416E+01   -0.28471E+01   688   0.259E+01 0.298E-01
CGA:   4    -0.481015804988E+03   -0.57360E+00   -0.57419E+00   688   0.535E+00 0.205E-02
CGA:   5    -0.481145614853E+03   -0.12981E+00   -0.12979E+00   688   0.161E+00 0.174E-04
CGA:   6    -0.481189385944E+03   -0.43771E-01   -0.43772E-01   688   0.611E-01 0.350E-04
CGA:   7    -0.481208735167E+03   -0.19349E-01   -0.19348E-01   688   0.277E-01 0.368E-04
CGA:   8    -0.481217776592E+03   -0.90414E-02   -0.90402E-02   688   0.105E-01 0.261E-04
CGA:   9    -0.481220926732E+03   -0.31501E-02   -0.31500E-02   688   0.328E-02 0.142E-04
CGA:  10    -0.481221910519E+03   -0.98379E-03   -0.98381E-03   688   0.978E-03-0.215E-05
CGA:  11    -0.481222243653E+03   -0.33313E-03   -0.33301E-03   688   0.342E-03 0.247E-05
CGA:  12    -0.481222376855E+03   -0.13320E-03   -0.13316E-03   688   0.141E-03 0.389E-06
CGA:  13    -0.481222431650E+03   -0.54795E-04   -0.54830E-04   688   0.542E-04-0.364E-06
  20 F= -.48573947E+03 E0= -.48573276E+03  d E =-.100159E+01  mag=     0.0722
       N       E                     dE             d eps       ncg     rms          ort
SDA:   1    -0.463534266450E+03    0.17688E+02    0.00000E+00   688   0.457E+02 0.000E+00
CGA:   2    -0.477260170270E+03   -0.13726E+02   -0.13723E+02   688   0.155E+02-0.308E+00
CGA:   3    -0.480760685981E+03   -0.35005E+01   -0.35297E+01   688   0.343E+01 0.126E+00
CGA:   4    -0.481506893557E+03   -0.74621E+00   -0.74683E+00   688   0.662E+00 0.235E-02
CGA:   5    -0.481672516655E+03   -0.16562E+00   -0.16563E+00   688   0.178E+00 0.223E-03
CGA:   6    -0.481722403719E+03   -0.49887E-01   -0.49887E-01   688   0.660E-01 0.219E-04
CGA:   7    -0.481743144878E+03   -0.20741E-01   -0.20740E-01   688   0.301E-01 0.284E-04
CGA:   8    -0.481752803166E+03   -0.96583E-02   -0.96562E-02   688   0.125E-01 0.556E-04
CGA:   9    -0.481756443531E+03   -0.36404E-02   -0.36404E-02   688   0.403E-02 0.182E-04
CGA:  10    -0.481757673725E+03   -0.12302E-02   -0.12303E-02   688   0.115E-02-0.647E-05
CGA:  11    -0.481758072535E+03   -0.39881E-03   -0.39874E-03   688   0.404E-03 0.159E-05
CGA:  12    -0.481758226119E+03   -0.15358E-03   -0.15364E-03   688   0.172E-03-0.717E-06
CGA:  13    -0.481758291232E+03   -0.65113E-04   -0.65149E-04   688   0.716E-04-0.457E-06
  21 F= -.48628125E+03 E0= -.48627489E+03  d E =-.541775E+00  mag=     0.0810
       N       E                     dE             d eps       ncg     rms          ort
SDA:   1    -0.480351878323E+03    0.14063E+01    0.00000E+00   688   0.356E+01 0.000E+00
CGA:   2    -0.481432875793E+03   -0.10810E+01   -0.10810E+01   688   0.116E+01-0.429E-02
CGA:   3    -0.481704949193E+03   -0.27207E+00   -0.27238E+00   688   0.261E+00 0.967E-03
CGA:   4    -0.481761110820E+03   -0.56162E-01   -0.56181E-01   688   0.508E-01 0.493E-04
CGA:   5    -0.481773497455E+03   -0.12387E-01   -0.12387E-01   688   0.139E-01 0.121E-04
CGA:   6    -0.481777349418E+03   -0.38520E-02   -0.38521E-02   688   0.505E-02 0.881E-05
CGA:   7    -0.481778967154E+03   -0.16177E-02   -0.16178E-02   688   0.233E-02-0.442E-05
CGA:   8    -0.481779711080E+03   -0.74393E-03   -0.74376E-03   688   0.963E-03 0.722E-05
CGA:   9    -0.481779990959E+03   -0.27988E-03   -0.27990E-03   688   0.315E-03 0.215E-05
CGA:  10    -0.481780084290E+03   -0.93331E-04   -0.93328E-04   688   0.953E-04-0.138E-05
  22 F= -.48630484E+03 E0= -.48629858E+03  d E =-.565373E+00  mag=     0.0823
       N       E                     dE             d eps       ncg     rms          ort
SDA:   1    -0.475327452979E+03    0.64525E+01    0.00000E+00   688   0.176E+02 0.000E+00
CGA:   2    -0.480512933775E+03   -0.51855E+01   -0.51851E+01   688   0.553E+01-0.310E-01
CGA:   3    -0.481839220438E+03   -0.13263E+01   -0.13280E+01   688   0.119E+01 0.920E-02
CGA:   4    -0.482107722898E+03   -0.26850E+00   -0.26866E+00   688   0.235E+00 0.551E-03
CGA:   5    -0.482163651620E+03   -0.55929E-01   -0.55921E-01   688   0.692E-01 0.229E-04
CGA:   6    -0.482181486168E+03   -0.17835E-01   -0.17837E-01   688   0.267E-01 0.173E-04
CGA:   7    -0.482189268954E+03   -0.77828E-02   -0.77827E-02   688   0.123E-01 0.146E-04
CGA:   8    -0.482193198563E+03   -0.39296E-02   -0.39292E-02   688   0.509E-02 0.119E-04
CGA:   9    -0.482194749118E+03   -0.15506E-02   -0.15505E-02   688   0.163E-02 0.664E-05
CGA:  10    -0.482195255652E+03   -0.50653E-03   -0.50652E-03   688   0.484E-03 0.693E-06
CGA:  11    -0.482195418992E+03   -0.16334E-03   -0.16336E-03   688   0.186E-03-0.549E-06
CGA:  12    -0.482195482144E+03   -0.63152E-04   -0.63090E-04   688   0.883E-04 0.139E-05
  23 F= -.48672427E+03 E0= -.48671800E+03  d E =-.419426E+00  mag=     0.0876
       N       E                     dE             d eps       ncg     rms          ort
SDA:   1    -0.460490004077E+03    0.21705E+02    0.00000E+00   688   0.566E+02 0.000E+00
CGA:   2    -0.477053693713E+03   -0.16564E+02   -0.16560E+02   688   0.181E+02-0.265E+00
CGA:   3    -0.481310753869E+03   -0.42571E+01   -0.42763E+01   688   0.392E+01 0.101E+00
CGA:   4    -0.482186835307E+03   -0.87608E+00   -0.87710E+00   688   0.813E+00 0.379E-02
CGA:   5    -0.482375248423E+03   -0.18841E+00   -0.18829E+00   688   0.238E+00-0.221E-03
CGA:   6    -0.482435697116E+03   -0.60449E-01   -0.60476E-01   688   0.888E-01 0.282E-03
CGA:   7    -0.482462245362E+03   -0.26548E-01   -0.26547E-01   688   0.394E-01 0.910E-04
CGA:   8    -0.482475389752E+03   -0.13144E-01   -0.13142E-01   688   0.164E-01 0.444E-04
CGA:   9    -0.482480485886E+03   -0.50961E-02   -0.50958E-02   688   0.528E-02 0.140E-04
CGA:  10    -0.482482159795E+03   -0.16739E-02   -0.16738E-02   688   0.156E-02 0.218E-05
CGA:  11    -0.482482692104E+03   -0.53231E-03   -0.53232E-03   688   0.622E-03-0.361E-06
CGA:  12    -0.482482901782E+03   -0.20968E-03   -0.20961E-03   688   0.294E-03 0.155E-05
CGA:  13    -0.482483005753E+03   -0.10397E-03   -0.10404E-03   688   0.124E-03-0.129E-05
CGA:  14    -0.482483052225E+03   -0.46472E-04   -0.46463E-04   688   0.448E-04 0.127E-06
  24 F= -.48701911E+03 E0= -.48701268E+03  d E =-.714263E+00  mag=     0.0936
       N       E                     dE             d eps       ncg     rms          ort
SDA:   1    -0.471846747278E+03    0.10636E+02    0.00000E+00   688   0.284E+02 0.000E+00
CGA:   2    -0.480219747566E+03   -0.83730E+01   -0.83718E+01   688   0.898E+01-0.403E-01
CGA:   3    -0.482349707514E+03   -0.21300E+01   -0.21331E+01   688   0.198E+01 0.126E-01
CGA:   4    -0.482777292295E+03   -0.42758E+00   -0.42811E+00   688   0.435E+00 0.840E-03
CGA:   5    -0.482871661749E+03   -0.94369E-01   -0.94293E-01   688   0.122E+00 0.235E-04
CGA:   6    -0.482902967227E+03   -0.31305E-01   -0.31310E-01   688   0.419E-01 0.406E-04
CGA:   7    -0.482915943694E+03   -0.12976E-01   -0.12976E-01   688   0.189E-01 0.165E-04
CGA:   8    -0.482922102028E+03   -0.61583E-02   -0.61578E-02   688   0.804E-02 0.162E-04
CGA:   9    -0.482924524323E+03   -0.24223E-02   -0.24223E-02   688   0.258E-02 0.554E-05
CGA:  10    -0.482925312444E+03   -0.78812E-03   -0.78812E-03   688   0.761E-03 0.513E-06
CGA:  11    -0.482925556343E+03   -0.24390E-03   -0.24390E-03   688   0.284E-03-0.390E-07
CGA:  12    -0.482925652332E+03   -0.95989E-04   -0.95939E-04   688   0.118E-03 0.127E-05
  25 F= -.48745712E+03 E0= -.48745006E+03  d E =-.438011E+00  mag=     0.1141
       N       E                     dE             d eps       ncg     rms          ort
SDA:   1    -0.471219255118E+03    0.11706E+02    0.00000E+00   688   0.304E+02 0.000E+00
CGA:   2    -0.480177710165E+03   -0.89585E+01   -0.89574E+01   688   0.963E+01-0.534E-01
CGA:   3    -0.482459593375E+03   -0.22819E+01   -0.22857E+01   688   0.213E+01 0.175E-01
CGA:   4    -0.482918660974E+03   -0.45907E+00   -0.45962E+00   688   0.462E+00 0.106E-02
CGA:   5    -0.483019844104E+03   -0.10118E+00   -0.10111E+00   688   0.130E+00-0.735E-05
CGA:   6    -0.483052946662E+03   -0.33103E-01   -0.33107E-01   688   0.449E-01 0.375E-04
CGA:   7    -0.483066831397E+03   -0.13885E-01   -0.13884E-01   688   0.200E-01 0.243E-04
CGA:   8    -0.483073496818E+03   -0.66654E-02   -0.66649E-02   688   0.840E-02 0.148E-04
CGA:   9    -0.483076086645E+03   -0.25898E-02   -0.25897E-02   688   0.270E-02 0.549E-05
CGA:  10    -0.483076915608E+03   -0.82896E-03   -0.82896E-03   688   0.815E-03 0.509E-06
CGA:  11    -0.483077174408E+03   -0.25880E-03   -0.25880E-03   688   0.310E-03-0.811E-07
CGA:  12    -0.483077279227E+03   -0.10482E-03   -0.10478E-03   688   0.128E-03 0.105E-05
CGA:  13    -0.483077328954E+03   -0.49727E-04   -0.49745E-04   688   0.517E-04-0.206E-06
  26 F= -.48760362E+03 E0= -.48759572E+03  d E =-.584508E+00  mag=     0.1332
       N       E                     dE             d eps       ncg     rms          ort
SDA:   1    -0.476287376402E+03    0.67899E+01    0.00000E+00   688   0.181E+02 0.000E+00
CGA:   2    -0.481645994247E+03   -0.53586E+01   -0.53579E+01   688   0.569E+01-0.289E-01
CGA:   3    -0.482990629247E+03   -0.13446E+01   -0.13475E+01   688   0.127E+01 0.103E-01
CGA:   4    -0.483261923866E+03   -0.27129E+00   -0.27141E+00   688   0.263E+00 0.249E-03
CGA:   5    -0.483321115158E+03   -0.59191E-01   -0.59175E-01   688   0.716E-01 0.440E-04
CGA:   6    -0.483339110359E+03   -0.17995E-01   -0.17998E-01   688   0.249E-01 0.161E-04
CGA:   7    -0.483346506324E+03   -0.73960E-02   -0.73959E-02   688   0.111E-01 0.595E-05
CGA:   8    -0.483350090779E+03   -0.35845E-02   -0.35842E-02   688   0.468E-02 0.867E-05
CGA:   9    -0.483351553761E+03   -0.14630E-02   -0.14629E-02   688   0.151E-02 0.457E-05
CGA:  10    -0.483352012813E+03   -0.45905E-03   -0.45905E-03   688   0.466E-03 0.429E-06
CGA:  11    -0.483352154936E+03   -0.14212E-03   -0.14214E-03   688   0.169E-03-0.151E-05
CGA:  12    -0.483352211205E+03   -0.56270E-04   -0.56251E-04   688   0.672E-04 0.508E-06
  27 F= -.48787591E+03 E0= -.48786771E+03  d E =-.272295E+00  mag=     0.1464
       N       E                     dE             d eps       ncg     rms          ort
SDA:   1    -0.480388423102E+03    0.29637E+01    0.00000E+00   688   0.770E+01 0.000E+00
CGA:   2    -0.482676120966E+03   -0.22877E+01   -0.22876E+01   688   0.239E+01-0.734E-02
CGA:   3    -0.483247523471E+03   -0.57140E+00   -0.57195E+00   688   0.529E+00 0.233E-02
CGA:   4    -0.483361752573E+03   -0.11423E+00   -0.11425E+00   688   0.105E+00 0.648E-04
CGA:   5    -0.483386127224E+03   -0.24375E-01   -0.24374E-01   688   0.286E-01 0.349E-04
CGA:   6    -0.483393421798E+03   -0.72946E-02   -0.72949E-02   688   0.102E-01-0.160E-05
CGA:   7    -0.483396454361E+03   -0.30326E-02   -0.30325E-02   688   0.460E-02 0.342E-05
CGA:   8    -0.483397942560E+03   -0.14882E-02   -0.14881E-02   688   0.190E-02 0.322E-05
CGA:   9    -0.483398543660E+03   -0.60110E-03   -0.60103E-03   688   0.590E-03 0.296E-05
CGA:  10    -0.483398729156E+03   -0.18550E-03   -0.18550E-03   688   0.179E-03-0.323E-06
CGA:  11    -0.483398785499E+03   -0.56343E-04   -0.56365E-04   688   0.686E-04-0.101E-05
  28 F= -.48792061E+03 E0= -.48791222E+03  d E =-.316998E+00  mag=     0.1544
       N       E                     dE             d eps       ncg     rms          ort
SDA:   1    -0.480702536687E+03    0.26962E+01    0.00000E+00   688   0.726E+01 0.000E+00
CGA:   2    -0.482949071086E+03   -0.22465E+01   -0.22466E+01   688   0.217E+01-0.668E-03
CGA:   3    -0.483471808560E+03   -0.52274E+00   -0.52289E+00   688   0.472E+00 0.801E-03
CGA:   4    -0.483575176552E+03   -0.10337E+00   -0.10339E+00   688   0.959E-01 0.511E-04
CGA:   5    -0.483597056724E+03   -0.21880E-01   -0.21877E-01   688   0.277E-01 0.154E-04
CGA:   6    -0.483604078735E+03   -0.70220E-02   -0.70222E-02   688   0.101E-01-0.468E-05
CGA:   7    -0.483607132028E+03   -0.30533E-02   -0.30533E-02   688   0.475E-02 0.289E-05
CGA:   8    -0.483608642047E+03   -0.15100E-02   -0.15098E-02   688   0.195E-02 0.628E-05
CGA:   9    -0.483609239323E+03   -0.59728E-03   -0.59726E-03   688   0.608E-03 0.108E-05
CGA:  10    -0.483609424930E+03   -0.18561E-03   -0.18559E-03   688   0.178E-03 0.836E-06
CGA:  11    -0.483609482226E+03   -0.57296E-04   -0.57299E-04   688   0.662E-04-0.103E-06
  29 F= -.48813279E+03 E0= -.48812398E+03  d E =-.212173E+00  mag=     0.1754
       N       E                     dE             d eps       ncg     rms          ort
SDA:   1    -0.471353552684E+03    0.12256E+02    0.00000E+00   688   0.311E+02 0.000E+00
CGA:   2    -0.480939025405E+03   -0.95855E+01   -0.95857E+01   688   0.944E+01-0.817E-02
CGA:   3    -0.483177858375E+03   -0.22388E+01   -0.22405E+01   688   0.212E+01 0.896E-02
CGA:   4    -0.483625830170E+03   -0.44797E+00   -0.44846E+00   688   0.471E+00 0.109E-02
CGA:   5    -0.483727680992E+03   -0.10185E+00   -0.10176E+00   688   0.128E+00-0.101E-03
CGA:   6    -0.483761016530E+03   -0.33336E-01   -0.33339E-01   688   0.439E-01 0.582E-04
CGA:   7    -0.483774771214E+03   -0.13755E-01   -0.13754E-01   688   0.207E-01 0.793E-05
CGA:   8    -0.483781406749E+03   -0.66355E-02   -0.66347E-02   688   0.872E-02 0.218E-04
CGA:   9    -0.483784063510E+03   -0.26568E-02   -0.26566E-02   688   0.273E-02 0.573E-05
CGA:  10    -0.483784906150E+03   -0.84264E-03   -0.84262E-03   688   0.800E-03 0.869E-06
CGA:  11    -0.483785163642E+03   -0.25749E-03   -0.25746E-03   688   0.296E-03 0.874E-06
CGA:  12    -0.483785263228E+03   -0.99586E-04   -0.99572E-04   688   0.130E-03 0.310E-06
  30 F= -.48831090E+03 E0= -.48830094E+03  d E =-.390284E+00  mag=     0.2287
       N       E                     dE             d eps       ncg     rms          ort
SDA:   1    -0.481191369417E+03    0.25938E+01    0.00000E+00   688   0.685E+01 0.000E+00
CGA:   2    -0.483320047148E+03   -0.21287E+01   -0.21286E+01   688   0.211E+01 0.320E-02
CGA:   3    -0.483820448685E+03   -0.50040E+00   -0.50043E+00   688   0.460E+00 0.202E-03
CGA:   4    -0.483921707334E+03   -0.10126E+00   -0.10128E+00   688   0.960E-01 0.487E-04
CGA:   5    -0.483943361924E+03   -0.21655E-01   -0.21653E-01   688   0.265E-01 0.993E-05
CGA:   6    -0.483950384394E+03   -0.70225E-02   -0.70225E-02   688   0.939E-02-0.272E-05
CGA:   7    -0.483953301491E+03   -0.29171E-02   -0.29170E-02   688   0.442E-02 0.497E-05
CGA:   8    -0.483954698836E+03   -0.13973E-02   -0.13973E-02   688   0.176E-02 0.205E-05
CGA:   9    -0.483955236751E+03   -0.53792E-03   -0.53790E-03   688   0.549E-03 0.595E-06
CGA:  10    -0.483955404083E+03   -0.16733E-03   -0.16732E-03   688   0.157E-03 0.563E-06
CGA:  11    -0.483955456519E+03   -0.52436E-04   -0.52439E-04   688   0.562E-04-0.789E-07
  31 F= -.48847803E+03 E0= -.48846761E+03  d E =-.167134E+00  mag=     0.2448
       N       E                     dE             d eps       ncg     rms          ort
SDA:   1    -0.480487715112E+03    0.34677E+01    0.00000E+00   688   0.876E+01 0.000E+00
CGA:   2    -0.483209549160E+03   -0.27218E+01   -0.27217E+01   688   0.270E+01 0.469E-02
CGA:   3    -0.483849868359E+03   -0.64032E+00   -0.64037E+00   688   0.593E+00 0.349E-03
CGA:   4    -0.483979498925E+03   -0.12963E+00   -0.12967E+00   688   0.125E+00 0.915E-04
CGA:   5    -0.484007537632E+03   -0.28039E-01   -0.28036E-01   688   0.344E-01 0.116E-04
CGA:   6    -0.484016655251E+03   -0.91176E-02   -0.91177E-02   688   0.123E-01-0.193E-05
CGA:   7    -0.484020430631E+03   -0.37754E-02   -0.37753E-02   688   0.580E-02 0.513E-05
CGA:   8    -0.484022245408E+03   -0.18148E-02   -0.18147E-02   688   0.233E-02 0.307E-05
CGA:   9    -0.484022954687E+03   -0.70928E-03   -0.70927E-03   688   0.733E-03 0.568E-06
CGA:  10    -0.484023177976E+03   -0.22329E-03   -0.22328E-03   688   0.211E-03 0.689E-06
CGA:  11    -0.484023247766E+03   -0.69790E-04   -0.69793E-04   688   0.769E-04-0.684E-07
  32 F= -.48854212E+03 E0= -.48853113E+03  d E =-.231220E+00  mag=     0.2652
       N       E                     dE             d eps       ncg     rms          ort
SDA:   1    -0.482231378389E+03    0.17918E+01    0.00000E+00   688   0.475E+01 0.000E+00
CGA:   2    -0.483692539053E+03   -0.14612E+01   -0.14612E+01   688   0.150E+01-0.131E-02
CGA:   3    -0.484046779743E+03   -0.35424E+00   -0.35441E+00   688   0.325E+00 0.792E-03
CGA:   4    -0.484117562995E+03   -0.70783E-01   -0.70782E-01   688   0.687E-01-0.728E-06
CGA:   5    -0.484133227501E+03   -0.15665E-01   -0.15665E-01   688   0.183E-01 0.162E-04
CGA:   6    -0.484138093816E+03   -0.48663E-02   -0.48664E-02   688   0.651E-02 0.222E-05
CGA:   7    -0.484140090210E+03   -0.19964E-02   -0.19963E-02   688   0.306E-02 0.290E-05
CGA:   8    -0.484141031828E+03   -0.94162E-03   -0.94160E-03   688   0.124E-02 0.687E-06
CGA:   9    -0.484141411935E+03   -0.38011E-03   -0.38009E-03   688   0.379E-03 0.697E-06
CGA:  10    -0.484141529463E+03   -0.11753E-03   -0.11754E-03   688   0.111E-03-0.310E-06
CGA:  11    -0.484141565575E+03   -0.36112E-04   -0.36143E-04   688   0.403E-04-0.787E-06
  33 F= -.48865718E+03 E0= -.48864598E+03  d E =-.115059E+00  mag=     0.2707
       N       E                     dE             d eps       ncg     rms          ort
SDA:   1    -0.482170410723E+03    0.19711E+01    0.00000E+00   688   0.500E+01 0.000E+00
CGA:   2    -0.483709442685E+03   -0.15390E+01   -0.15391E+01   688   0.157E+01-0.143E-02
CGA:   3    -0.484081896680E+03   -0.37245E+00   -0.37263E+00   688   0.340E+00 0.835E-03
CGA:   4    -0.484156359704E+03   -0.74463E-01   -0.74461E-01   688   0.708E-01-0.769E-06
CGA:   5    -0.484172722450E+03   -0.16363E-01   -0.16363E-01   688   0.188E-01 0.170E-04
CGA:   6    -0.484177770811E+03   -0.50484E-02   -0.50484E-02   688   0.678E-02 0.146E-05
CGA:   7    -0.484179842455E+03   -0.20716E-02   -0.20716E-02   688   0.321E-02 0.309E-05
CGA:   8    -0.484180825113E+03   -0.98266E-03   -0.98265E-03   688   0.130E-02 0.407E-06
CGA:   9    -0.484181221010E+03   -0.39590E-03   -0.39588E-03   688   0.393E-03 0.634E-06
CGA:  10    -0.484181342707E+03   -0.12170E-03   -0.12170E-03   688   0.115E-03-0.228E-06
CGA:  11    -0.484181380126E+03   -0.37419E-04   -0.37453E-04   688   0.420E-04-0.927E-06
  34 F= -.48869356E+03 E0= -.48868224E+03  d E =-.151440E+00  mag=     0.2715
       N       E                     dE             d eps       ncg     rms          ort
SDA:   1    -0.483132244159E+03    0.10491E+01    0.00000E+00   688   0.280E+01 0.000E+00
CGA:   2    -0.484015790381E+03   -0.88355E+00   -0.88354E+00   688   0.884E+00 0.134E-03
CGA:   3    -0.484222525975E+03   -0.20674E+00   -0.20676E+00   688   0.185E+00 0.123E-03
CGA:   4    -0.484264405706E+03   -0.41880E-01   -0.41882E-01   688   0.378E-01-0.189E-05
CGA:   5    -0.484273426103E+03   -0.90204E-02   -0.90204E-02   688   0.107E-01 0.597E-05
CGA:   6    -0.484276310132E+03   -0.28840E-02   -0.28840E-02   688   0.429E-02-0.560E-05
CGA:   7    -0.484277569302E+03   -0.12592E-02   -0.12591E-02   688   0.207E-02 0.312E-05
CGA:   8    -0.484278205404E+03   -0.63610E-03   -0.63606E-03   688   0.802E-03 0.175E-05
CGA:   9    -0.484278452108E+03   -0.24670E-03   -0.24671E-03   688   0.244E-03-0.268E-06
CGA:  10    -0.484278525944E+03   -0.73836E-04   -0.73832E-04   688   0.749E-04 0.318E-06
  35 F= -.48878868E+03 E0= -.48877730E+03  d E =-.951268E-01  mag=     0.2773
       N       E                     dE             d eps       ncg     rms          ort
SDA:   1    -0.476655975111E+03    0.76225E+01    0.00000E+00   688   0.189E+02 0.000E+00
CGA:   2    -0.482606095516E+03   -0.59501E+01   -0.59500E+01   688   0.602E+01 0.162E-02
CGA:   3    -0.484004671569E+03   -0.13986E+01   -0.13991E+01   688   0.127E+01 0.328E-02
CGA:   4    -0.484288869727E+03   -0.28420E+00   -0.28429E+00   688   0.272E+00 0.408E-03
CGA:   5    -0.484351365664E+03   -0.62496E-01   -0.62481E-01   688   0.777E-01-0.251E-04
CGA:   6    -0.484371941887E+03   -0.20576E-01   -0.20577E-01   688   0.295E-01 0.624E-05
CGA:   7    -0.484380987314E+03   -0.90454E-02   -0.90450E-02   688   0.135E-01 0.149E-04
CGA:   8    -0.484385387295E+03   -0.44000E-02   -0.43997E-02   688   0.531E-02 0.830E-05
CGA:   9    -0.484387018909E+03   -0.16316E-02   -0.16316E-02   688   0.167E-02 0.741E-06
CGA:  10    -0.484387520055E+03   -0.50115E-03   -0.50113E-03   688   0.504E-03 0.981E-06
CGA:  11    -0.484387685501E+03   -0.16545E-03   -0.16548E-03   688   0.189E-03-0.838E-06
CGA:  12    -0.484387753122E+03   -0.67621E-04   -0.67646E-04   688   0.872E-04-0.350E-06
  36 F= -.48889237E+03 E0= -.48888097E+03  d E =-.198808E+00  mag=     0.2833
       N       E                     dE             d eps       ncg     rms          ort
SDA:   1    -0.482129579860E+03    0.22581E+01    0.00000E+00   688   0.575E+01 0.000E+00
CGA:   2    -0.483955189518E+03   -0.18256E+01   -0.18256E+01   688   0.190E+01 0.136E-02
CGA:   3    -0.484384072374E+03   -0.42888E+00   -0.42875E+00   688   0.401E+00-0.257E-03
CGA:   4    -0.484473606953E+03   -0.89535E-01   -0.89553E-01   688   0.848E-01 0.434E-04
CGA:   5    -0.484493299835E+03   -0.19693E-01   -0.19692E-01   688   0.245E-01 0.984E-05
CGA:   6    -0.484499770684E+03   -0.64708E-02   -0.64707E-02   688   0.907E-02-0.107E-04
CGA:   7    -0.484502595094E+03   -0.28244E-02   -0.28242E-02   688   0.413E-02 0.745E-05
CGA:   8    -0.484503929853E+03   -0.13348E-02   -0.13346E-02   688   0.159E-02 0.323E-05
CGA:   9    -0.484504421869E+03   -0.49202E-03   -0.49201E-03   688   0.485E-03 0.157E-06
CGA:  10    -0.484504569528E+03   -0.14766E-03   -0.14766E-03   688   0.148E-03 0.122E-06
CGA:  11    -0.484504617806E+03   -0.48279E-04   -0.48284E-04   688   0.546E-04-0.157E-06
  37 F= -.48900404E+03 E0= -.48899264E+03  d E =-.111674E+00  mag=     0.2821
       N       E                     dE             d eps       ncg     rms          ort
SDA:   1    -0.480911360764E+03    0.35932E+01    0.00000E+00   688   0.883E+01 0.000E+00
CGA:   2    -0.483712408012E+03   -0.28010E+01   -0.28009E+01   688   0.293E+01 0.268E-02
CGA:   3    -0.484371885782E+03   -0.65948E+00   -0.65920E+00   688   0.621E+00-0.478E-03
CGA:   4    -0.484509765768E+03   -0.13788E+00   -0.13792E+00   688   0.133E+00 0.107E-03
CGA:   5    -0.484540367986E+03   -0.30602E-01   -0.30599E-01   688   0.385E-01 0.113E-04
CGA:   6    -0.484550446490E+03   -0.10079E-01   -0.10078E-01   688   0.143E-01-0.100E-04
CGA:   7    -0.484554844014E+03   -0.43975E-02   -0.43973E-02   688   0.655E-02 0.885E-05
CGA:   8    -0.484556931251E+03   -0.20872E-02   -0.20870E-02   688   0.258E-02 0.590E-05
CGA:   9    -0.484557715992E+03   -0.78474E-03   -0.78474E-03   688   0.803E-03 0.161E-06
CGA:  10    -0.484557956807E+03   -0.24082E-03   -0.24081E-03   688   0.244E-03 0.279E-06
CGA:  11    -0.484558035209E+03   -0.78402E-04   -0.78406E-04   688   0.901E-04-0.111E-06
  38 F= -.48905124E+03 E0= -.48903968E+03  d E =-.158871E+00  mag=     0.2857
       N       E                     dE             d eps       ncg     rms          ort
SDA:   1    -0.483661706728E+03    0.89625E+00    0.00000E+00   688   0.234E+01 0.000E+00
CGA:   2    -0.484411890992E+03   -0.75018E+00   -0.75019E+00   688   0.757E+00-0.211E-03
CGA:   3    -0.484584362496E+03   -0.17247E+00   -0.17248E+00   688   0.161E+00 0.627E-04
CGA:   4    -0.484619864300E+03   -0.35502E-01   -0.35504E-01   688   0.339E-01 0.754E-05
CGA:   5    -0.484627910139E+03   -0.80458E-02   -0.80462E-02   688   0.996E-02 0.126E-04
CGA:   6    -0.484630525036E+03   -0.26149E-02   -0.26148E-02   688   0.385E-02-0.438E-05
CGA:   7    -0.484631685821E+03   -0.11608E-02   -0.11607E-02   688   0.183E-02 0.268E-05
CGA:   8    -0.484632237787E+03   -0.55197E-03   -0.55193E-03   688   0.710E-03 0.205E-05
CGA:   9    -0.484632454554E+03   -0.21677E-03   -0.21677E-03   688   0.209E-03-0.768E-07
CGA:  10    -0.484632518897E+03   -0.64342E-04   -0.64346E-04   688   0.657E-04-0.161E-06
  39 F= -.48912291E+03 E0= -.48911129E+03  d E =-.716752E-01  mag=     0.2845
       N       E                     dE             d eps       ncg     rms          ort
SDA:   1    -0.477868632995E+03    0.67638E+01    0.00000E+00   688   0.166E+02 0.000E+00
CGA:   2    -0.483154976569E+03   -0.52863E+01   -0.52865E+01   688   0.541E+01-0.298E-02
CGA:   3    -0.484378464967E+03   -0.12235E+01   -0.12236E+01   688   0.116E+01 0.103E-02
CGA:   4    -0.484631712986E+03   -0.25325E+00   -0.25333E+00   688   0.250E+00 0.301E-03
CGA:   5    -0.484689869885E+03   -0.58157E-01   -0.58147E-01   688   0.732E-01 0.451E-06
CGA:   6    -0.484709088469E+03   -0.19219E-01   -0.19219E-01   688   0.271E-01 0.576E-05
CGA:   7    -0.484717549996E+03   -0.84615E-02   -0.84610E-02   688   0.124E-01 0.147E-04
CGA:   8    -0.484721468679E+03   -0.39187E-02   -0.39184E-02   688   0.477E-02 0.909E-05
CGA:   9    -0.484722934899E+03   -0.14662E-02   -0.14662E-02   688   0.142E-02 0.932E-06
CGA:  10    -0.484723372132E+03   -0.43723E-03   -0.43723E-03   688   0.434E-03 0.121E-06
CGA:  11    -0.484723514435E+03   -0.14230E-03   -0.14236E-03   688   0.165E-03-0.142E-05
CGA:  12    -0.484723572032E+03   -0.57597E-04   -0.57614E-04   688   0.746E-04-0.261E-06
  40 F= -.48920685E+03 E0= -.48919509E+03  d E =-.155615E+00  mag=     0.2782
       N       E                     dE             d eps       ncg     rms          ort
SDA:   1    -0.483998537877E+03    0.72498E+00    0.00000E+00   688   0.191E+01 0.000E+00
CGA:   2    -0.484622800372E+03   -0.62426E+00   -0.62424E+00   688   0.604E+00 0.319E-03
CGA:   3    -0.484761304032E+03   -0.13850E+00   -0.13854E+00   688   0.126E+00 0.151E-03
CGA:   4    -0.484789722048E+03   -0.28418E-01   -0.28418E-01   688   0.274E-01-0.443E-05
CGA:   5    -0.484796185026E+03   -0.64630E-02   -0.64632E-02   688   0.827E-02 0.959E-05
CGA:   6    -0.484798404046E+03   -0.22190E-02   -0.22189E-02   688   0.322E-02-0.772E-05
CGA:   7    -0.484799414286E+03   -0.10102E-02   -0.10101E-02   688   0.151E-02 0.446E-05
CGA:   8    -0.484799879601E+03   -0.46532E-03   -0.46527E-03   688   0.579E-03 0.217E-05
CGA:   9    -0.484800049153E+03   -0.16955E-03   -0.16955E-03   688   0.176E-03-0.574E-06
CGA:  10    -0.484800101284E+03   -0.52131E-04   -0.52128E-04   688   0.534E-04 0.248E-06
  41 F= -.48928303E+03 E0= -.48927119E+03  d E =-.761769E-01  mag=     0.2774
       N       E                     dE             d eps       ncg     rms          ort
SDA:   1    -0.477724061969E+03    0.70760E+01    0.00000E+00   688   0.173E+02 0.000E+00
CGA:   2    -0.483328456984E+03   -0.56044E+01   -0.56038E+01   688   0.553E+01 0.741E-02
CGA:   3    -0.484582782722E+03   -0.12543E+01   -0.12556E+01   688   0.118E+01 0.538E-02
CGA:   4    -0.484842319363E+03   -0.25954E+00   -0.25962E+00   688   0.272E+00 0.348E-03
CGA:   5    -0.484903667095E+03   -0.61348E-01   -0.61325E-01   688   0.796E-01-0.395E-04
CGA:   6    -0.484925156761E+03   -0.21490E-01   -0.21490E-01   688   0.297E-01 0.403E-05
CGA:   7    -0.484934680624E+03   -0.95239E-02   -0.95234E-02   688   0.138E-01 0.128E-04
CGA:   8    -0.484939013156E+03   -0.43325E-02   -0.43322E-02   688   0.533E-02 0.128E-04
CGA:   9    -0.484940597678E+03   -0.15845E-02   -0.15845E-02   688   0.157E-02 0.187E-06
CGA:  10    -0.484941081602E+03   -0.48392E-03   -0.48392E-03   688   0.460E-03 0.366E-06
CGA:  11    -0.484941242371E+03   -0.16077E-03   -0.16079E-03   688   0.175E-03-0.395E-06
CGA:  12    -0.484941308751E+03   -0.66379E-04   -0.66410E-04   688   0.800E-04-0.344E-06
  42 F= -.48942317E+03 E0= -.48941119E+03  d E =-.216314E+00  mag=     0.2672
       N       E                     dE             d eps       ncg     rms          ort
SDA:   1    -0.455936327030E+03    0.29005E+02    0.00000E+00   688   0.696E+02 0.000E+00
CGA:   2    -0.478214357631E+03   -0.22278E+02   -0.22275E+02   688   0.230E+02 0.456E-01
CGA:   3    -0.483313807411E+03   -0.50994E+01   -0.51142E+01   688   0.502E+01 0.505E-01
CGA:   4    -0.484384040057E+03   -0.10702E+01   -0.10726E+01   688   0.124E+01 0.555E-02
CGA:   5    -0.484658262926E+03   -0.27422E+00   -0.27382E+00   688   0.336E+00-0.769E-03
CGA:   6    -0.484751595565E+03   -0.93333E-01   -0.93334E-01   688   0.123E+00 0.985E-04
CGA:   7    -0.484790859407E+03   -0.39264E-01   -0.39261E-01   688   0.582E-01 0.651E-04
CGA:   8    -0.484808996256E+03   -0.18137E-01   -0.18137E-01   688   0.225E-01 0.100E-04
CGA:   9    -0.484815868399E+03   -0.68721E-02   -0.68720E-02   688   0.650E-02 0.101E-04
CGA:  10    -0.484817948788E+03   -0.20804E-02   -0.20804E-02   688   0.190E-02-0.672E-06
CGA:  11    -0.484818621226E+03   -0.67244E-03   -0.67241E-03   688   0.741E-03 0.590E-06
CGA:  12    -0.484818899149E+03   -0.27792E-03   -0.27804E-03   688   0.351E-03-0.150E-05
CGA:  13    -0.484819021404E+03   -0.12226E-03   -0.12235E-03   688   0.159E-03-0.173E-05
CGA:  14    -0.484819072810E+03   -0.51405E-04   -0.51403E-04   688   0.615E-04 0.513E-07
  43 F= -.48929834E+03 E0= -.48928614E+03  d E =-.914855E-01  mag=     0.2273
       N       E                     dE             d eps       ncg     rms          ort
SDA:   1    -0.469560995976E+03    0.15258E+02    0.00000E+00   688   0.369E+02 0.000E+00
CGA:   2    -0.481563904533E+03   -0.12003E+02   -0.12004E+02   688   0.115E+02-0.204E-01
CGA:   3    -0.484213792227E+03   -0.26499E+01   -0.26531E+01   688   0.248E+01 0.114E-01
CGA:   4    -0.484757304196E+03   -0.54351E+00   -0.54380E+00   688   0.539E+00 0.761E-03
CGA:   5    -0.484885400074E+03   -0.12810E+00   -0.12808E+00   688   0.160E+00 0.490E-04
CGA:   6    -0.484928754422E+03   -0.43354E-01   -0.43360E-01   688   0.619E-01 0.796E-04
CGA:   7    -0.484948360436E+03   -0.19606E-01   -0.19606E-01   688   0.291E-01-0.863E-06
CGA:   8    -0.484957259326E+03   -0.88989E-02   -0.88984E-02   688   0.110E-01 0.278E-04
CGA:   9    -0.484960553318E+03   -0.32940E-02   -0.32940E-02   688   0.317E-02 0.235E-05
CGA:  10    -0.484961549818E+03   -0.99650E-03   -0.99638E-03   688   0.939E-03 0.707E-05
CGA:  11    -0.484961882799E+03   -0.33298E-03   -0.33305E-03   688   0.362E-03-0.135E-05
CGA:  12    -0.484962021628E+03   -0.13883E-03   -0.13891E-03   688   0.167E-03-0.890E-06
CGA:  13    -0.484962080565E+03   -0.58937E-04   -0.58933E-04   688   0.705E-04 0.173E-07
  44 F= -.48944332E+03 E0= -.48943159E+03  d E =-.236468E+00  mag=     0.2448
       N       E                     dE             d eps       ncg     rms          ort
SDA:   1    -0.483292053882E+03    0.16700E+01    0.00000E+00   688   0.420E+01 0.000E+00
CGA:   2    -0.484655091615E+03   -0.13630E+01   -0.13630E+01   688   0.138E+01 0.209E-02
CGA:   3    -0.484964750323E+03   -0.30966E+00   -0.30984E+00   688   0.288E+00 0.400E-03
CGA:   4    -0.485028491478E+03   -0.63741E-01   -0.63747E-01   688   0.640E-01 0.670E-05
CGA:   5    -0.485043216177E+03   -0.14725E-01   -0.14724E-01   688   0.187E-01 0.997E-05
CGA:   6    -0.485048231725E+03   -0.50155E-02   -0.50153E-02   688   0.697E-02-0.113E-04
CGA:   7    -0.485050442979E+03   -0.22113E-02   -0.22111E-02   688   0.321E-02 0.636E-05
CGA:   8    -0.485051441713E+03   -0.99873E-03   -0.99868E-03   688   0.124E-02 0.356E-05
CGA:   9    -0.485051805933E+03   -0.36422E-03   -0.36422E-03   688   0.371E-03-0.296E-06
CGA:  10    -0.485051917220E+03   -0.11129E-03   -0.11129E-03   688   0.111E-03 0.344E-06
CGA:  11    -0.485051954477E+03   -0.37258E-04   -0.37261E-04   688   0.406E-04-0.863E-07
  45 F= -.48953310E+03 E0= -.48952124E+03  d E =-.897817E-01  mag=     0.2419
       N       E                     dE             d eps       ncg     rms          ort
SDA:   1    -0.471845422167E+03    0.13206E+02    0.00000E+00   688   0.318E+02 0.000E+00
CGA:   2    -0.482093858645E+03   -0.10248E+02   -0.10247E+02   688   0.107E+02 0.405E-01
CGA:   3    -0.484461663086E+03   -0.23678E+01   -0.23728E+01   688   0.231E+01 0.133E-01
CGA:   4    -0.484956428012E+03   -0.49476E+00   -0.49528E+00   688   0.553E+00 0.118E-02
CGA:   5    -0.485078425439E+03   -0.12200E+00   -0.12190E+00   688   0.152E+00-0.975E-04
CGA:   6    -0.485119903321E+03   -0.41478E-01   -0.41479E-01   688   0.549E-01 0.101E-04
CGA:   7    -0.485137393451E+03   -0.17490E-01   -0.17490E-01   688   0.257E-01 0.178E-04
CGA:   8    -0.485145405715E+03   -0.80123E-02   -0.80120E-02   688   0.100E-01 0.178E-04
CGA:   9    -0.485148440703E+03   -0.30350E-02   -0.30350E-02   688   0.291E-02 0.321E-05
CGA:  10    -0.485149358718E+03   -0.91801E-03   -0.91800E-03   688   0.855E-03 0.483E-06
CGA:  11    -0.485149653744E+03   -0.29503E-03   -0.29498E-03   688   0.320E-03 0.859E-06
CGA:  12    -0.485149772960E+03   -0.11922E-03   -0.11926E-03   688   0.147E-03-0.550E-06
CGA:  13    -0.485149824510E+03   -0.51551E-04   -0.51592E-04   688   0.648E-04-0.765E-06
  46 F= -.48963079E+03 E0= -.48961876E+03  d E =-.187465E+00  mag=     0.2191
       N       E                     dE             d eps       ncg     rms          ort
SDA:   1    -0.483972723101E+03    0.11770E+01    0.00000E+00   688   0.297E+01 0.000E+00
CGA:   2    -0.484939915170E+03   -0.96719E+00   -0.96716E+00   688   0.953E+00 0.676E-03
CGA:   3    -0.485157570238E+03   -0.21766E+00   -0.21772E+00   688   0.198E+00 0.215E-03
CGA:   4    -0.485200979941E+03   -0.43410E-01   -0.43408E-01   688   0.440E-01-0.152E-06
CGA:   5    -0.485211167034E+03   -0.10187E-01   -0.10187E-01   688   0.128E-01 0.146E-04
CGA:   6    -0.485214596524E+03   -0.34295E-02   -0.34293E-02   688   0.471E-02-0.776E-05
CGA:   7    -0.485216099913E+03   -0.15034E-02   -0.15033E-02   688   0.220E-02 0.498E-05
CGA:   8    -0.485216774286E+03   -0.67437E-03   -0.67435E-03   688   0.873E-03 0.204E-05
CGA:   9    -0.485217028409E+03   -0.25412E-03   -0.25412E-03   688   0.259E-03-0.204E-07
CGA:  10    -0.485217106920E+03   -0.78511E-04   -0.78510E-04   688   0.778E-04 0.111E-06
  47 F= -.48969777E+03 E0= -.48968583E+03  d E =-.669857E-01  mag=     0.2124
       N       E                     dE             d eps       ncg     rms          ort
SDA:   1    -0.475280691541E+03    0.99363E+01    0.00000E+00   688   0.240E+02 0.000E+00
CGA:   2    -0.483031156020E+03   -0.77505E+01   -0.77495E+01   688   0.789E+01 0.149E-01
CGA:   3    -0.484802286456E+03   -0.17711E+01   -0.17734E+01   688   0.168E+01 0.800E-02
CGA:   4    -0.485161919123E+03   -0.35963E+00   -0.35980E+00   688   0.395E+00 0.594E-03
CGA:   5    -0.485250278879E+03   -0.88360E-01   -0.88310E-01   688   0.111E+00-0.649E-04
CGA:   6    -0.485280137772E+03   -0.29859E-01   -0.29860E-01   688   0.399E-01 0.182E-04
CGA:   7    -0.485292847061E+03   -0.12709E-01   -0.12709E-01   688   0.189E-01 0.108E-04
CGA:   8    -0.485298644063E+03   -0.57970E-02   -0.57968E-02   688   0.742E-02 0.130E-04
CGA:   9    -0.485300879674E+03   -0.22356E-02   -0.22356E-02   688   0.214E-02 0.179E-05
CGA:  10    -0.485301552994E+03   -0.67332E-03   -0.67331E-03   688   0.626E-03 0.353E-06
CGA:  11    -0.485301770047E+03   -0.21705E-03   -0.21710E-03   688   0.230E-03-0.796E-06
CGA:  12    -0.485301858471E+03   -0.88425E-04   -0.88484E-04   688   0.100E-03-0.649E-06
  48 F= -.48978167E+03 E0= -.48977022E+03  d E =-.150885E+00  mag=     0.1882
       N       E                     dE             d eps       ncg     rms          ort
SDA:   1    -0.485145909869E+03    0.15586E+00    0.00000E+00   688   0.464E+00 0.000E+00
CGA:   2    -0.485299416949E+03   -0.15351E+00   -0.15351E+00   688   0.145E+00-0.960E-05
CGA:   3    -0.485333321809E+03   -0.33905E-01   -0.33908E-01   688   0.290E-01 0.114E-04
CGA:   4    -0.485339765272E+03   -0.64435E-02   -0.64430E-02   688   0.640E-02-0.414E-05
CGA:   5    -0.485341273921E+03   -0.15086E-02   -0.15089E-02   688   0.184E-02 0.464E-05
CGA:   6    -0.485341766718E+03   -0.49280E-03   -0.49274E-03   688   0.735E-03-0.224E-05
CGA:   7    -0.485341993337E+03   -0.22662E-03   -0.22660E-03   688   0.360E-03 0.114E-05
CGA:   8    -0.485342103421E+03   -0.11008E-03   -0.11008E-03   688   0.143E-03 0.561E-06
CGA:   9    -0.485342146471E+03   -0.43051E-04   -0.43055E-04   688   0.427E-04-0.688E-06
  49 F= -.48982112E+03 E0= -.48980954E+03  d E =-.394470E-01  mag=     0.1936
       N       E                     dE             d eps       ncg     rms          ort
SDA:   1    -0.483648514092E+03    0.16936E+01    0.00000E+00   688   0.418E+01 0.000E+00
CGA:   2    -0.485029557674E+03   -0.13810E+01   -0.13810E+01   688   0.132E+01 0.176E-04
CGA:   3    -0.485335109750E+03   -0.30555E+00   -0.30566E+00   688   0.267E+00 0.437E-03
CGA:   4    -0.485393570245E+03   -0.58460E-01   -0.58460E-01   688   0.612E-01-0.430E-05
CGA:   5    -0.485407601574E+03   -0.14031E-01   -0.14031E-01   688   0.174E-01 0.180E-04
CGA:   6    -0.485412298591E+03   -0.46970E-02   -0.46970E-02   688   0.668E-02-0.586E-05
CGA:   7    -0.485414429499E+03   -0.21309E-02   -0.21308E-02   688   0.318E-02 0.475E-05
CGA:   8    -0.485415427134E+03   -0.99764E-03   -0.99757E-03   688   0.126E-02 0.221E-05
CGA:   9    -0.485415801824E+03   -0.37469E-03   -0.37470E-03   688   0.377E-03-0.132E-05
CGA:  10    -0.485415915597E+03   -0.11377E-03   -0.11377E-03   688   0.111E-03 0.283E-06
CGA:  11    -0.485415953612E+03   -0.38015E-04   -0.38043E-04   688   0.408E-04-0.536E-06
  50 F= -.48989234E+03 E0= -.48988044E+03  d E =-.110674E+00  mag=     0.2087
       N       E                     dE             d eps       ncg     rms          ort
SDA:   1    -0.478284907582E+03    0.71310E+01    0.00000E+00   688   0.168E+02 0.000E+00
CGA:   2    -0.483795397428E+03   -0.55105E+01   -0.55103E+01   688   0.536E+01-0.888E-03
CGA:   3    -0.485021002657E+03   -0.12256E+01   -0.12268E+01   688   0.112E+01 0.422E-02
CGA:   4    -0.485259541596E+03   -0.23854E+00   -0.23864E+00   688   0.269E+00 0.253E-03
CGA:   5    -0.485319668566E+03   -0.60127E-01   -0.60102E-01   688   0.739E-01-0.121E-04
CGA:   6    -0.485339687880E+03   -0.20019E-01   -0.20020E-01   688   0.274E-01 0.193E-04
CGA:   7    -0.485348506543E+03   -0.88187E-02   -0.88187E-02   688   0.131E-01 0.384E-05
CGA:   8    -0.485352633154E+03   -0.41266E-02   -0.41263E-02   688   0.524E-02 0.112E-04
CGA:   9    -0.485354216287E+03   -0.15831E-02   -0.15832E-02   688   0.155E-02-0.183E-05
CGA:  10    -0.485354698003E+03   -0.48172E-03   -0.48172E-03   688   0.447E-03 0.991E-07
CGA:  11    -0.485354854570E+03   -0.15657E-03   -0.15660E-03   688   0.164E-03-0.523E-06
CGA:  12    -0.485354919189E+03   -0.64619E-04   -0.64733E-04   688   0.713E-04-0.112E-05
  51 F= -.48982590E+03 E0= -.48981360E+03  d E =-.442286E-01  mag=     0.2311
       N       E                     dE             d eps       ncg     rms          ort
SDA:   1    -0.481579788364E+03    0.37751E+01    0.00000E+00   688   0.910E+01 0.000E+00
CGA:   2    -0.484591363497E+03   -0.30116E+01   -0.30117E+01   688   0.283E+01-0.536E-03
CGA:   3    -0.485252861812E+03   -0.66150E+00   -0.66148E+00   688   0.581E+00 0.283E-03
CGA:   4    -0.485378164559E+03   -0.12530E+00   -0.12533E+00   688   0.133E+00 0.469E-04
CGA:   5    -0.485408697705E+03   -0.30533E-01   -0.30530E-01   688   0.376E-01 0.142E-04
CGA:   6    -0.485418863231E+03   -0.10166E-01   -0.10166E-01   688   0.145E-01-0.209E-05
CGA:   7    -0.485423481574E+03   -0.46183E-02   -0.46182E-02   688   0.682E-02 0.662E-05
CGA:   8    -0.485425627905E+03   -0.21463E-02   -0.21463E-02   688   0.264E-02 0.137E-05
CGA:   9    -0.485426416119E+03   -0.78821E-03   -0.78821E-03   688   0.774E-03 0.919E-06
CGA:  10    -0.485426650528E+03   -0.23441E-03   -0.23439E-03   688   0.223E-03 0.286E-05
CGA:  11    -0.485426727796E+03   -0.77269E-04   -0.77278E-04   688   0.801E-04-0.183E-06
  52 F= -.48990173E+03 E0= -.48988981E+03  d E =-.120060E+00  mag=     0.2107
       N       E                     dE             d eps       ncg     rms          ort
SDA:   1    -0.484973970148E+03    0.45268E+00    0.00000E+00   688   0.120E+01 0.000E+00
CGA:   2    -0.485363023398E+03   -0.38905E+00   -0.38903E+00   688   0.396E+00 0.423E-03
CGA:   3    -0.485452614298E+03   -0.89591E-01   -0.89579E-01   688   0.810E-01-0.158E-04
CGA:   4    -0.485470201859E+03   -0.17588E-01   -0.17589E-01   688   0.177E-01-0.120E-04
CGA:   5    -0.485474326519E+03   -0.41247E-02   -0.41247E-02   688   0.473E-02 0.172E-05
CGA:   6    -0.485475565802E+03   -0.12393E-02   -0.12392E-02   688   0.175E-02-0.382E-05
CGA:   7    -0.485476089318E+03   -0.52352E-03   -0.52350E-03   688   0.811E-03 0.156E-05
CGA:   8    -0.485476338521E+03   -0.24920E-03   -0.24920E-03   688   0.326E-03 0.220E-06
CGA:   9    -0.485476437934E+03   -0.99413E-04   -0.99421E-04   688   0.978E-04-0.656E-06
  53 F= -.48994970E+03 E0= -.48993763E+03  d E =-.479719E-01  mag=     0.2130
       N       E                     dE             d eps       ncg     rms          ort
SDA:   1    -0.482763754007E+03    0.27126E+01    0.00000E+00   688   0.658E+01 0.000E+00
CGA:   2    -0.484898170415E+03   -0.21344E+01   -0.21341E+01   688   0.220E+01 0.613E-02
CGA:   3    -0.485390488616E+03   -0.49232E+00   -0.49224E+00   688   0.461E+00-0.219E-03
CGA:   4    -0.485488113165E+03   -0.97625E-01   -0.97659E-01   688   0.105E+00 0.302E-04
CGA:   5    -0.485511701663E+03   -0.23588E-01   -0.23587E-01   688   0.279E-01 0.861E-05
CGA:   6    -0.485518927162E+03   -0.72255E-02   -0.72254E-02   688   0.976E-02-0.775E-05
CGA:   7    -0.485521977590E+03   -0.30504E-02   -0.30503E-02   688   0.442E-02 0.420E-05
CGA:   8    -0.485523403721E+03   -0.14261E-02   -0.14260E-02   688   0.179E-02 0.312E-05
CGA:   9    -0.485523957452E+03   -0.55373E-03   -0.55376E-03   688   0.551E-03-0.153E-05
CGA:  10    -0.485524125705E+03   -0.16825E-03   -0.16824E-03   688   0.162E-03 0.444E-06
CGA:  11    -0.485524178929E+03   -0.53224E-04   -0.53213E-04   688   0.575E-04 0.289E-06
  54 F= -.48999334E+03 E0= -.48998098E+03  d E =-.916070E-01  mag=     0.2136
       N       E                     dE             d eps       ncg     rms          ort
SDA:   1    -0.485158028632E+03    0.36610E+00    0.00000E+00   688   0.958E+00 0.000E+00
CGA:   2    -0.485475817559E+03   -0.31779E+00   -0.31777E+00   688   0.310E+00 0.226E-03
CGA:   3    -0.485545808882E+03   -0.69991E-01   -0.69993E-01   688   0.621E-01 0.128E-04
CGA:   4    -0.485559502285E+03   -0.13693E-01   -0.13693E-01   688   0.132E-01-0.576E-05
CGA:   5    -0.485562683181E+03   -0.31809E-02   -0.31812E-02   688   0.368E-02 0.640E-05
CGA:   6    -0.485563653051E+03   -0.96987E-03   -0.96983E-03   688   0.146E-02-0.219E-05
CGA:   7    -0.485564085103E+03   -0.43205E-03   -0.43204E-03   688   0.704E-03 0.134E-05
CGA:   8    -0.485564299332E+03   -0.21423E-03   -0.21422E-03   688   0.276E-03 0.396E-06
CGA:   9    -0.485564384858E+03   -0.85526E-04   -0.85544E-04   688   0.824E-04-0.784E-06
  55 F= -.49003231E+03 E0= -.49002004E+03  d E =-.389672E-01  mag=     0.2056
       N       E                     dE             d eps       ncg     rms          ort
SDA:   1    -0.481972743631E+03    0.35916E+01    0.00000E+00   688   0.864E+01 0.000E+00
CGA:   2    -0.484830319527E+03   -0.28576E+01   -0.28571E+01   688   0.283E+01 0.649E-02
CGA:   3    -0.485461904528E+03   -0.63159E+00   -0.63172E+00   688   0.584E+00 0.559E-03
CGA:   4    -0.485587040753E+03   -0.12514E+00   -0.12517E+00   688   0.132E+00 0.802E-04
CGA:   5    -0.485617148374E+03   -0.30108E-01   -0.30103E-01   688   0.373E-01 0.108E-04
CGA:   6    -0.485626766621E+03   -0.96182E-02   -0.96185E-02   688   0.136E-01-0.214E-05
CGA:   7    -0.485630968576E+03   -0.42020E-02   -0.42020E-02   688   0.630E-02 0.142E-05
CGA:   8    -0.485632970659E+03   -0.20021E-02   -0.20019E-02   688   0.249E-02 0.445E-05
CGA:   9    -0.485633742675E+03   -0.77202E-03   -0.77209E-03   688   0.756E-03-0.258E-05
CGA:  10    -0.485633974386E+03   -0.23171E-03   -0.23169E-03   688   0.234E-03 0.955E-06
CGA:  11    -0.485634049617E+03   -0.75231E-04   -0.75249E-04   688   0.914E-04-0.509E-06
  56 F= -.49009824E+03 E0= -.49008622E+03  d E =-.104902E+00  mag=     0.1813
       N       E                     dE             d eps       ncg     rms          ort
SDA:   1    -0.485141493343E+03    0.49248E+00    0.00000E+00   688   0.118E+01 0.000E+00
CGA:   2    -0.485531629549E+03   -0.39014E+00   -0.39011E+00   688   0.382E+00 0.288E-03
CGA:   3    -0.485617582045E+03   -0.85952E-01   -0.85959E-01   688   0.770E-01 0.277E-04
CGA:   4    -0.485634508128E+03   -0.16926E-01   -0.16925E-01   688   0.163E-01-0.750E-05
CGA:   5    -0.485638460579E+03   -0.39525E-02   -0.39527E-02   688   0.444E-02 0.668E-05
CGA:   6    -0.485639650490E+03   -0.11899E-02   -0.11899E-02   688   0.178E-02-0.235E-05
CGA:   7    -0.485640174546E+03   -0.52406E-03   -0.52404E-03   688   0.881E-03 0.153E-05
CGA:   8    -0.485640438679E+03   -0.26413E-03   -0.26413E-03   688   0.346E-03 0.451E-06
CGA:   9    -0.485640545904E+03   -0.10722E-03   -0.10725E-03   688   0.106E-03-0.855E-06
CGA:  10    -0.485640577972E+03   -0.32068E-04   -0.32064E-04   688   0.356E-04 0.231E-06
  57 F= -.49010339E+03 E0= -.49009151E+03  d E =-.110049E+00  mag=     0.1694
       N       E                     dE             d eps       ncg     rms          ort
SDA:   1    -0.485387984274E+03    0.25256E+00    0.00000E+00   688   0.673E+00 0.000E+00
CGA:   2    -0.485613488217E+03   -0.22550E+00   -0.22549E+00   688   0.216E+00 0.901E-04
CGA:   3    -0.485662771225E+03   -0.49283E-01   -0.49288E-01   688   0.431E-01 0.271E-04
CGA:   4    -0.485672251716E+03   -0.94805E-02   -0.94799E-02   688   0.973E-02-0.259E-05
CGA:   5    -0.485674548446E+03   -0.22967E-02   -0.22970E-02   688   0.271E-02 0.705E-05
CGA:   6    -0.485675314654E+03   -0.76621E-03   -0.76621E-03   688   0.106E-02-0.224E-05
CGA:   7    -0.485675661180E+03   -0.34653E-03   -0.34640E-03   688   0.517E-03 0.271E-05
CGA:   8    -0.485675821795E+03   -0.16062E-03   -0.16061E-03   688   0.209E-03 0.349E-06
CGA:   9    -0.485675883916E+03   -0.62121E-04   -0.62119E-04   688   0.672E-04 0.141E-06
  58 F= -.49013879E+03 E0= -.49012721E+03  d E =-.354052E-01  mag=     0.1581
       N       E                     dE             d eps       ncg     rms          ort
SDA:   1    -0.483141135319E+03    0.25347E+01    0.00000E+00   688   0.606E+01 0.000E+00
CGA:   2    -0.485167292281E+03   -0.20262E+01   -0.20259E+01   688   0.197E+01 0.233E-02
CGA:   3    -0.485611321360E+03   -0.44403E+00   -0.44418E+00   688   0.406E+00 0.690E-03
CGA:   4    -0.485698109921E+03   -0.86789E-01   -0.86789E-01   688   0.963E-01 0.132E-04
CGA:   5    -0.485719843095E+03   -0.21733E-01   -0.21730E-01   688   0.271E-01 0.164E-04
CGA:   6    -0.485727180817E+03   -0.73377E-02   -0.73378E-02   688   0.103E-01 0.795E-08
CGA:   7    -0.485730443626E+03   -0.32628E-02   -0.32626E-02   688   0.506E-02 0.588E-05
[...]
CGA:   6    -0.486685915845E+03   -0.22601E-03   -0.22601E-03   688   0.321E-03 0.397E-06
CGA:   7    -0.486686011460E+03   -0.95615E-04   -0.95630E-04   688   0.151E-03-0.508E-06
 151 F= -.49111104E+03 E0= -.49110291E+03  d E =-.161867E-02  mag=     0.0696
       N       E                     dE             d eps       ncg     rms          ort
SDA:   1    -0.486519496792E+03    0.16642E+00    0.00000E+00   688   0.411E+00 0.000E+00
CGA:   2    -0.486648381255E+03   -0.12888E+00   -0.12888E+00   688   0.134E+00 0.768E-04
CGA:   3    -0.486678212694E+03   -0.29831E-01   -0.29827E-01   688   0.313E-01-0.188E-04
CGA:   4    -0.486684625389E+03   -0.64127E-02   -0.64132E-02   688   0.661E-02-0.257E-05
CGA:   5    -0.486686191516E+03   -0.15661E-02   -0.15662E-02   688   0.177E-02 0.226E-05
CGA:   6    -0.486686668084E+03   -0.47657E-03   -0.47657E-03   688   0.692E-03 0.563E-06
CGA:   7    -0.486686871110E+03   -0.20303E-03   -0.20304E-03   688   0.321E-03-0.680E-06
CGA:   8    -0.486686971514E+03   -0.10040E-03   -0.10040E-03   688   0.121E-03 0.156E-08
CGA:   9    -0.486687008637E+03   -0.37123E-04   -0.37115E-04   688   0.356E-04 0.210E-06
 152 F= -.49111196E+03 E0= -.49110374E+03  d E =-.253243E-02  mag=     0.0705
       N       E                     dE             d eps       ncg     rms          ort
SDA:   1    -0.486626104597E+03    0.60867E-01    0.00000E+00   688   0.153E+00 0.000E+00
CGA:   2    -0.486674167808E+03   -0.48063E-01   -0.48063E-01   688   0.498E-01 0.704E-06
CGA:   3    -0.486685260676E+03   -0.11093E-01   -0.11092E-01   688   0.115E-01-0.956E-06
CGA:   4    -0.486687650222E+03   -0.23895E-02   -0.23895E-02   688   0.236E-02-0.213E-05
CGA:   5    -0.486688214082E+03   -0.56386E-03   -0.56392E-03   688   0.615E-03 0.197E-05
CGA:   6    -0.486688383932E+03   -0.16985E-03   -0.16985E-03   688   0.236E-03 0.228E-06
CGA:   7    -0.486688454366E+03   -0.70434E-04   -0.70450E-04   688   0.111E-03-0.543E-06
 153 F= -.49111328E+03 E0= -.49110505E+03  d E =-.131880E-02  mag=     0.0701
       N       E                     dE             d eps       ncg     rms          ort
SDA:   1    -0.486284402985E+03    0.40398E+00    0.00000E+00   688   0.996E+00 0.000E+00
CGA:   2    -0.486597059156E+03   -0.31266E+00   -0.31265E+00   688   0.323E+00 0.112E-03
CGA:   3    -0.486669117679E+03   -0.72059E-01   -0.72050E-01   688   0.760E-01-0.412E-04
CGA:   4    -0.486684669942E+03   -0.15552E-01   -0.15555E-01   688   0.157E-01 0.122E-05
CGA:   5    -0.486688469327E+03   -0.37994E-02   -0.37995E-02   688   0.405E-02 0.555E-05
CGA:   6    -0.486689597839E+03   -0.11285E-02   -0.11285E-02   688   0.156E-02 0.414E-06
CGA:   7    -0.486690062423E+03   -0.46458E-03   -0.46463E-03   688   0.733E-03-0.131E-05
CGA:   8    -0.486690283406E+03   -0.22098E-03   -0.22099E-03   688   0.284E-03-0.344E-06
CGA:   9    -0.486690367509E+03   -0.84104E-04   -0.84101E-04   688   0.833E-04 0.995E-07
 154 F= -.49111486E+03 E0= -.49110662E+03  d E =-.290445E-02  mag=     0.0686
       N       E                     dE             d eps       ncg     rms          ort
SDA:   1    -0.486581341466E+03    0.10894E+00    0.00000E+00   688   0.273E+00 0.000E+00
CGA:   2    -0.486666154477E+03   -0.84813E-01   -0.84816E-01   688   0.911E-01-0.432E-04
CGA:   3    -0.486686389010E+03   -0.20235E-01   -0.20234E-01   688   0.213E-01-0.472E-06
CGA:   4    -0.486690788904E+03   -0.43999E-02   -0.44001E-02   688   0.440E-02-0.162E-05
CGA:   5    -0.486691851083E+03   -0.10622E-02   -0.10623E-02   688   0.113E-02 0.359E-05
CGA:   6    -0.486692168477E+03   -0.31739E-03   -0.31739E-03   688   0.436E-03 0.920E-07
CGA:   7    -0.486692299888E+03   -0.13141E-03   -0.13144E-03   688   0.204E-03-0.896E-06
CGA:   8    -0.486692361563E+03   -0.61675E-04   -0.61692E-04   688   0.817E-04-0.505E-06
 155 F= -.49111651E+03 E0= -.49110825E+03  d E =-.164361E-02  mag=     0.0688
       N       E                     dE             d eps       ncg     rms          ort
SDA:   1    -0.486624391591E+03    0.67908E-01    0.00000E+00   688   0.169E+00 0.000E+00
CGA:   2    -0.486676879605E+03   -0.52488E-01   -0.52489E-01   688   0.559E-01-0.197E-04
CGA:   3    -0.486689333482E+03   -0.12454E-01   -0.12454E-01   688   0.131E-01-0.147E-05
CGA:   4    -0.486692043025E+03   -0.27095E-02   -0.27096E-02   688   0.266E-02-0.131E-05
CGA:   5    -0.486692701838E+03   -0.65881E-03   -0.65886E-03   688   0.680E-03 0.258E-05
CGA:   6    -0.486692899864E+03   -0.19803E-03   -0.19802E-03   688   0.255E-03 0.205E-06
CGA:   7    -0.486692982026E+03   -0.82162E-04   -0.82213E-04   688   0.118E-03-0.954E-06
 156 F= -.49111685E+03 E0= -.49110859E+03  d E =-.198775E-02  mag=     0.0687
       N       E                     dE             d eps       ncg     rms          ort
SDA:   1    -0.486649054693E+03    0.43845E-01    0.00000E+00   688   0.111E+00 0.000E+00
CGA:   2    -0.486683565458E+03   -0.34511E-01   -0.34511E-01   688   0.377E-01 0.196E-05
CGA:   3    -0.486691703017E+03   -0.81376E-02   -0.81371E-02   688   0.899E-02-0.151E-06
CGA:   4    -0.486693546030E+03   -0.18430E-02   -0.18429E-02   688   0.193E-02-0.335E-05
CGA:   5    -0.486694001176E+03   -0.45515E-03   -0.45517E-03   688   0.569E-03 0.625E-06
CGA:   6    -0.486694142876E+03   -0.14170E-03   -0.14170E-03   688   0.228E-03 0.858E-07
CGA:   7    -0.486694209033E+03   -0.66157E-04   -0.66174E-04   688   0.992E-04-0.764E-06
 157 F= -.49111791E+03 E0= -.49110964E+03  d E =-.105756E-02  mag=     0.0687
       N       E                     dE             d eps       ncg     rms          ort
SDA:   1    -0.486498484299E+03    0.19566E+00    0.00000E+00   688   0.482E+00 0.000E+00
CGA:   2    -0.486648971302E+03   -0.15049E+00   -0.15048E+00   688   0.164E+00 0.503E-04
CGA:   3    -0.486684512931E+03   -0.35542E-01   -0.35537E-01   688   0.383E-01-0.174E-04
CGA:   4    -0.486692518732E+03   -0.80058E-02   -0.80064E-02   688   0.792E-02-0.409E-05
CGA:   5    -0.486694462860E+03   -0.19441E-02   -0.19442E-02   688   0.204E-02 0.245E-05
CGA:   6    -0.486695051238E+03   -0.58838E-03   -0.58840E-03   688   0.762E-03-0.687E-06
CGA:   7    -0.486695296910E+03   -0.24567E-03   -0.24573E-03   688   0.347E-03-0.109E-05
CGA:   8    -0.486695406238E+03   -0.10933E-03   -0.10936E-03   688   0.138E-03-0.629E-06
CGA:   9    -0.486695444890E+03   -0.38652E-04   -0.38652E-04   688   0.446E-04-0.170E-07
 158 F= -.49111879E+03 E0= -.49111051E+03  d E =-.193845E-02  mag=     0.0685
       N       E                     dE             d eps       ncg     rms          ort
SDA:   1    -0.486664745039E+03    0.30661E-01    0.00000E+00   688   0.771E-01 0.000E+00
CGA:   2    -0.486689102890E+03   -0.24358E-01   -0.24358E-01   688   0.258E-01-0.179E-05
CGA:   3    -0.486694722157E+03   -0.56193E-02   -0.56192E-02   688   0.592E-02 0.212E-05
CGA:   4    -0.486695963422E+03   -0.12413E-02   -0.12412E-02   688   0.123E-02-0.264E-05
CGA:   5    -0.486696258235E+03   -0.29481E-03   -0.29484E-03   688   0.318E-03 0.112E-05
CGA:   6    -0.486696348922E+03   -0.90687E-04   -0.90689E-04   688   0.119E-03-0.942E-07
 159 F= -.49111979E+03 E0= -.49111153E+03  d E =-.100316E-02  mag=     0.0679
       N       E                     dE             d eps       ncg     rms          ort
SDA:   1    -0.486489153551E+03    0.20710E+00    0.00000E+00   688   0.507E+00 0.000E+00
CGA:   2    -0.486649422319E+03   -0.16027E+00   -0.16027E+00   688   0.169E+00 0.144E-04
CGA:   3    -0.486686328563E+03   -0.36906E-01   -0.36904E-01   688   0.387E-01-0.875E-05
CGA:   4    -0.486694403863E+03   -0.80753E-02   -0.80760E-02   688   0.841E-02-0.356E-05
CGA:   5    -0.486696416959E+03   -0.20131E-02   -0.20132E-02   688   0.221E-02 0.286E-05
CGA:   6    -0.486697031889E+03   -0.61493E-03   -0.61493E-03   688   0.860E-03-0.821E-07
CGA:   7    -0.486697294532E+03   -0.26264E-03   -0.26268E-03   688   0.401E-03-0.906E-06
CGA:   8    -0.486697418688E+03   -0.12416E-03   -0.12417E-03   688   0.153E-03-0.255E-06
CGA:   9    -0.486697464003E+03   -0.45315E-04   -0.45314E-04   688   0.482E-04 0.526E-07
 160 F= -.49112116E+03 E0= -.49111287E+03  d E =-.236966E-02  mag=     0.0667
       N       E                     dE             d eps       ncg     rms          ort
SDA:   1    -0.486636760576E+03    0.60658E-01    0.00000E+00   688   0.151E+00 0.000E+00
CGA:   2    -0.486684432199E+03   -0.47672E-01   -0.47673E-01   688   0.498E-01-0.244E-04
CGA:   3    -0.486695534798E+03   -0.11103E-01   -0.11103E-01   688   0.116E-01 0.361E-05
CGA:   4    -0.486697895127E+03   -0.23603E-02   -0.23604E-02   688   0.241E-02-0.147E-05
CGA:   5    -0.486698468650E+03   -0.57352E-03   -0.57361E-03   688   0.610E-03 0.293E-05
CGA:   6    -0.486698637841E+03   -0.16919E-03   -0.16919E-03   688   0.228E-03 0.169E-06
CGA:   7    -0.486698708060E+03   -0.70219E-04   -0.70237E-04   688   0.105E-03-0.440E-06
 161 F= -.49112252E+03 E0= -.49111422E+03  d E =-.136274E-02  mag=     0.0664
       N       E                     dE             d eps       ncg     rms          ort
SDA:   1    -0.486671029238E+03    0.27609E-01    0.00000E+00   688   0.680E-01 0.000E+00
CGA:   2    -0.486692496596E+03   -0.21467E-01   -0.21468E-01   688   0.224E-01-0.574E-05
CGA:   3    -0.486697474413E+03   -0.49778E-02   -0.49779E-02   688   0.542E-02 0.185E-05
CGA:   4    -0.486698536684E+03   -0.10623E-02   -0.10622E-02   688   0.117E-02-0.129E-05
CGA:   5    -0.486698817363E+03   -0.28068E-03   -0.28073E-03   688   0.318E-03 0.176E-05
CGA:   6    -0.486698900588E+03   -0.83225E-04   -0.83227E-04   688   0.128E-03 0.394E-06
 162 F= -.49112279E+03 E0= -.49111449E+03  d E =-.163487E-02  mag=     0.0661
       N       E                     dE             d eps       ncg     rms          ort
SDA:   1    -0.486657209925E+03    0.41607E-01    0.00000E+00   688   0.104E+00 0.000E+00
CGA:   2    -0.486690195100E+03   -0.32985E-01   -0.32985E-01   688   0.343E-01 0.755E-05
CGA:   3    -0.486697739347E+03   -0.75442E-02   -0.75441E-02   688   0.787E-02 0.242E-05
CGA:   4    -0.486699396562E+03   -0.16572E-02   -0.16571E-02   688   0.177E-02-0.324E-05
CGA:   5    -0.486699802474E+03   -0.40591E-03   -0.40595E-03   688   0.520E-03 0.103E-05
CGA:   6    -0.486699934344E+03   -0.13187E-03   -0.13187E-03   688   0.209E-03 0.263E-07
CGA:   7    -0.486699996372E+03   -0.62028E-04   -0.62055E-04   688   0.933E-04-0.781E-06
 163 F= -.49112392E+03 E0= -.49111559E+03  d E =-.113134E-02  mag=     0.0659
       N       E                     dE             d eps       ncg     rms          ort
SDA:   1    -0.486590862044E+03    0.10907E+00    0.00000E+00   688   0.267E+00 0.000E+00
CGA:   2    -0.486675505904E+03   -0.84644E-01   -0.84642E-01   688   0.880E-01 0.281E-04
CGA:   3    -0.486694771799E+03   -0.19266E-01   -0.19265E-01   688   0.208E-01-0.175E-05
CGA:   4    -0.486699047283E+03   -0.42755E-02   -0.42755E-02   688   0.427E-02-0.468E-05
CGA:   5    -0.486700086395E+03   -0.10391E-02   -0.10392E-02   688   0.110E-02 0.231E-05
CGA:   6    -0.486700400351E+03   -0.31396E-03   -0.31397E-03   688   0.406E-03-0.673E-06
CGA:   7    -0.486700532593E+03   -0.13224E-03   -0.13228E-03   688   0.185E-03-0.562E-06
CGA:   8    -0.486700591887E+03   -0.59294E-04   -0.59308E-04   688   0.706E-04-0.260E-06
 164 F= -.49112458E+03 E0= -.49111621E+03  d E =-.178227E-02  mag=     0.0653
       N       E                     dE             d eps       ncg     rms          ort
SDA:   1    -0.486668900555E+03    0.31632E-01    0.00000E+00   688   0.795E-01 0.000E+00
CGA:   2    -0.486693930598E+03   -0.25030E-01   -0.25030E-01   688   0.266E-01 0.650E-05
CGA:   3    -0.486699746362E+03   -0.58158E-02   -0.58157E-02   688   0.632E-02 0.185E-05
CGA:   4    -0.486701051157E+03   -0.13048E-02   -0.13047E-02   688   0.128E-02-0.311E-05
CGA:   5    -0.486701355672E+03   -0.30451E-03   -0.30455E-03   688   0.376E-03 0.120E-05
CGA:   6    -0.486701450734E+03   -0.95062E-04   -0.95060E-04   688   0.152E-03-0.179E-06
 165 F= -.49112544E+03 E0= -.49111706E+03  d E =-.868166E-03  mag=     0.0650
       N       E                     dE             d eps       ncg     rms          ort
SDA:   1    -0.486626369706E+03    0.74986E-01    0.00000E+00   688   0.184E+00 0.000E+00
CGA:   2    -0.486684409668E+03   -0.58040E-01   -0.58039E-01   688   0.617E-01 0.167E-04
CGA:   3    -0.486697971483E+03   -0.13562E-01   -0.13561E-01   688   0.143E-01 0.695E-06
CGA:   4    -0.486700966162E+03   -0.29947E-02   -0.29946E-02   688   0.319E-02-0.438E-05
CGA:   5    -0.486701705607E+03   -0.73944E-03   -0.73950E-03   688   0.940E-03 0.202E-05
CGA:   6    -0.486701944044E+03   -0.23844E-03   -0.23844E-03   688   0.385E-03-0.248E-06
CGA:   7    -0.486702055659E+03   -0.11161E-03   -0.11165E-03   688   0.173E-03-0.132E-05
CGA:   8    -0.486702110522E+03   -0.54863E-04   -0.54871E-04   688   0.678E-04-0.137E-06
 166 F= -.49112612E+03 E0= -.49111767E+03  d E =-.154170E-02  mag=     0.0649
       N       E                     dE             d eps       ncg     rms          ort
SDA:   1    -0.486650776673E+03    0.51279E-01    0.00000E+00   688   0.128E+00 0.000E+00
CGA:   2    -0.486690790699E+03   -0.40014E-01   -0.40016E-01   688   0.431E-01-0.218E-04
CGA:   3    -0.486700421118E+03   -0.96304E-02   -0.96308E-02   688   0.104E-01 0.210E-05
CGA:   4    -0.486702492250E+03   -0.20711E-02   -0.20712E-02   688   0.209E-02-0.162E-05
CGA:   5    -0.486703007986E+03   -0.51574E-03   -0.51579E-03   688   0.558E-03 0.313E-05
CGA:   6    -0.486703158721E+03   -0.15073E-03   -0.15074E-03   688   0.226E-03-0.325E-07
CGA:   7    -0.486703223173E+03   -0.64452E-04   -0.64472E-04   688   0.106E-03-0.873E-06
 167 F= -.49112712E+03 E0= -.49111863E+03  d E =-.100370E-02  mag=     0.0651
       N       E                     dE             d eps       ncg     rms          ort
SDA:   1    -0.486699757390E+03    0.34013E-02    0.00000E+00   688   0.878E-02 0.000E+00
CGA:   2    -0.486702473919E+03   -0.27165E-02   -0.27165E-02   688   0.304E-02 0.195E-05
CGA:   3    -0.486703135425E+03   -0.66151E-03   -0.66151E-03   688   0.803E-03 0.234E-08
CGA:   4    -0.486703284097E+03   -0.14867E-03   -0.14860E-03   688   0.174E-03-0.879E-06
CGA:   5    -0.486703327508E+03   -0.43412E-04   -0.43420E-04   688   0.567E-04 0.719E-06
 168 F= -.49112720E+03 E0= -.49111869E+03  d E =-.107968E-02  mag=     0.0654
       N       E                     dE             d eps       ncg     rms          ort
SDA:   1    -0.486661543386E+03    0.41741E-01    0.00000E+00   688   0.104E+00 0.000E+00
CGA:   2    -0.486694474655E+03   -0.32931E-01   -0.32931E-01   688   0.351E-01 0.388E-05
CGA:   3    -0.486702143739E+03   -0.76691E-02   -0.76689E-02   688   0.846E-02 0.478E-06
CGA:   4    -0.486703886240E+03   -0.17425E-02   -0.17424E-02   688   0.180E-02-0.390E-05
CGA:   5    -0.486704313328E+03   -0.42709E-03   -0.42711E-03   688   0.522E-03 0.104E-05
CGA:   6    -0.486704448011E+03   -0.13468E-03   -0.13468E-03   688   0.220E-03 0.177E-07
CGA:   7    -0.486704510515E+03   -0.62504E-04   -0.62528E-04   688   0.995E-04-0.885E-06
 169 F= -.49112815E+03 E0= -.49111959E+03  d E =-.957422E-03  mag=     0.0659
       N       E                     dE             d eps       ncg     rms          ort
SDA:   1    -0.486619450934E+03    0.84997E-01    0.00000E+00   688   0.207E+00 0.000E+00
CGA:   2    -0.486685356566E+03   -0.65906E-01   -0.65905E-01   688   0.695E-01 0.131E-04
CGA:   3    -0.486700736572E+03   -0.15380E-01   -0.15379E-01   688   0.163E-01-0.169E-05
CGA:   4    -0.486704051072E+03   -0.33145E-02   -0.33145E-02   688   0.346E-02-0.514E-05
CGA:   5    -0.486704897239E+03   -0.84617E-03   -0.84620E-03   688   0.914E-03 0.201E-05
CGA:   6    -0.486705159457E+03   -0.26222E-03   -0.26223E-03   688   0.353E-03-0.457E-06
CGA:   7    -0.486705271552E+03   -0.11209E-03   -0.11215E-03   688   0.166E-03-0.952E-06
CGA:   8    -0.486705322694E+03   -0.51142E-04   -0.51166E-04   688   0.649E-04-0.539E-06
 170 F= -.49112865E+03 E0= -.49112000E+03  d E =-.144973E-02  mag=     0.0668
       N       E                     dE             d eps       ncg     rms          ort
SDA:   1    -0.486639584594E+03    0.65687E-01    0.00000E+00   688   0.161E+00 0.000E+00
CGA:   2    -0.486691108114E+03   -0.51524E-01   -0.51522E-01   688   0.543E-01 0.194E-04
CGA:   3    -0.486702922880E+03   -0.11815E-01   -0.11814E-01   688   0.124E-01-0.277E-05
CGA:   4    -0.486705515391E+03   -0.25925E-02   -0.25923E-02   688   0.255E-02-0.565E-05
CGA:   5    -0.486706123689E+03   -0.60830E-03   -0.60831E-03   688   0.718E-03 0.462E-06
CGA:   6    -0.486706312405E+03   -0.18872E-03   -0.18872E-03   688   0.287E-03 0.133E-06
CGA:   7    -0.486706394625E+03   -0.82221E-04   -0.82240E-04   688   0.136E-03-0.813E-06
 171 F= -.49112965E+03 E0= -.49112095E+03  d E =-.999560E-03  mag=     0.0670
       N       E                     dE             d eps       ncg     rms          ort
SDA:   1    -0.486674628029E+03    0.31684E-01    0.00000E+00   688   0.770E-01 0.000E+00
CGA:   2    -0.486699350621E+03   -0.24723E-01   -0.24722E-01   688   0.260E-01 0.331E-05
CGA:   3    -0.486704997089E+03   -0.56465E-02   -0.56462E-02   688   0.606E-02 0.883E-06
CGA:   4    -0.486706224660E+03   -0.12276E-02   -0.12274E-02   688   0.135E-02-0.427E-05
CGA:   5    -0.486706542666E+03   -0.31801E-03   -0.31801E-03   688   0.391E-03 0.160E-06
CGA:   6    -0.486706643463E+03   -0.10080E-03   -0.10080E-03   688   0.160E-03 0.168E-06
CGA:   7    -0.486706689792E+03   -0.46329E-04   -0.46347E-04   688   0.744E-04-0.646E-06
 172 F= -.49112989E+03 E0= -.49112115E+03  d E =-.124497E-02  mag=     0.0673
       N       E                     dE             d eps       ncg     rms          ort
SDA:   1    -0.486670823188E+03    0.35820E-01    0.00000E+00   688   0.886E-01 0.000E+00
CGA:   2    -0.486699195565E+03   -0.28372E-01   -0.28373E-01   688   0.293E-01-0.743E-05
CGA:   3    -0.486705756346E+03   -0.65608E-02   -0.65608E-02   688   0.666E-02 0.387E-06
CGA:   4    -0.486707101006E+03   -0.13447E-02   -0.13446E-02   688   0.148E-02-0.270E-05
CGA:   5    -0.486707455451E+03   -0.35445E-03   -0.35449E-03   688   0.393E-03 0.193E-05
CGA:   6    -0.486707564623E+03   -0.10917E-03   -0.10917E-03   688   0.152E-03 0.249E-06
CGA:   7    -0.486707611424E+03   -0.46801E-04   -0.46829E-04   688   0.739E-04-0.612E-06
 173 F= -.49113079E+03 E0= -.49112204E+03  d E =-.900335E-03  mag=     0.0674
       N       E                     dE             d eps       ncg     rms          ort
SDA:   1    -0.486645736553E+03    0.61828E-01    0.00000E+00   688   0.150E+00 0.000E+00
CGA:   2    -0.486693790576E+03   -0.48054E-01   -0.48055E-01   688   0.496E-01-0.157E-04
CGA:   3    -0.486704885779E+03   -0.11095E-01   -0.11095E-01   688   0.114E-01-0.362E-06
CGA:   4    -0.486707170696E+03   -0.22849E-02   -0.22849E-02   688   0.254E-02-0.324E-05
CGA:   5    -0.486707764304E+03   -0.59361E-03   -0.59367E-03   688   0.706E-03 0.222E-05
CGA:   6    -0.486707945649E+03   -0.18134E-03   -0.18135E-03   688   0.284E-03 0.620E-06
CGA:   7    -0.486708026627E+03   -0.80978E-04   -0.80998E-04   688   0.130E-03-0.849E-06
 174 F= -.49113118E+03 E0= -.49112241E+03  d E =-.128860E-02  mag=     0.0672
       N       E                     dE             d eps       ncg     rms          ort
SDA:   1    -0.486686860305E+03    0.21085E-01    0.00000E+00   688   0.532E-01 0.000E+00
CGA:   2    -0.486703812583E+03   -0.16952E-01   -0.16952E-01   688   0.173E-01 0.192E-06
CGA:   3    -0.486707711291E+03   -0.38987E-02   -0.38987E-02   688   0.399E-02 0.148E-05
CGA:   4    -0.486708521472E+03   -0.81018E-03   -0.81006E-03   688   0.928E-03-0.249E-05
CGA:   5    -0.486708738675E+03   -0.21720E-03   -0.21723E-03   688   0.263E-03 0.115E-05
CGA:   6    -0.486708809288E+03   -0.70613E-04   -0.70613E-04   688   0.109E-03 0.813E-07
 175 F= -.49113186E+03 E0= -.49112309E+03  d E =-.681171E-03  mag=     0.0669
