 vasp.5.4.4.18Apr17-6-g9f103f2a35 (build Nov  8 2022 18:58:45) complex           
 executed on             LinuxGNU date 2023.04.13  15:54:36
 running on   48 total cores
 distrk:  each k-point on   48 cores,    1 groups
 distr:  one band on NCORES_PER_BAND=  12 cores,    4 groups


--------------------------------------------------------------------------------------------------------


 INCAR:
 POTCAR:    PAW_PBE C 08Apr2002                   
 POTCAR:    PAW_PBE N 08Apr2002                   
 POTCAR:    PAW_PBE Ge_d 03Jul2007                
 POTCAR:    PAW_PBE C 08Apr2002                   
 POTCAR:    PAW_PBE O 08Apr2002                   
 POTCAR:    PAW_PBE C 08Apr2002                   
   SHA256 =  253f7b50bb8d59471dbedb8285d89021f4a42ed1a2c5d38a03a736e69125dd95 C/
   COPYR  = (c) Copyright 08Apr2002 Georg Kresse                                
   COPYR  = This file is part of the software VASP. Any use, copying, and all ot
   COPYR  = If you do not have a valid VASP license, you may not use, copy or di
   VRHFIN =C: s2p2                                                              
   LEXCH  = PE                                                                  
   EATOM  =   147.1560 eV,   10.8157 Ry                                         
                                                                                
   TITEL  = PAW_PBE C 08Apr2002                                                 
   LULTRA =        F    use ultrasoft PP ?                                      
   IUNSCR =        1    unscreen: 0-lin 1-nonlin 2-no                           
   RPACOR =    1.200    partial core radius                                     
   POMASS =   12.011; ZVAL   =    4.000    mass and valenz                      
   RCORE  =    1.500    outmost cutoff radius                                   
   RWIGS  =    1.630; RWIGS  =    0.863    wigner-seitz radius (au A)           
   ENMAX  =  400.000; ENMIN  =  300.000 eV                                      
   ICORE  =        2    local potential                                         
   LCOR   =        T    correct aug charges                                     
   LPAW   =        T    paw PP                                                  
   EAUG   =  644.873                                                            
   DEXC   =    0.000                                                            
   RMAX   =    1.529    core radius for proj-oper                               
   RAUG   =    1.300    factor for augmentation sphere                          
   RDEP   =    1.501    radius for radial grids                                 
   RDEPT  =    1.300    core radius for aug-charge                              
                                                                                
   Atomic configuration                                                         
    4 entries                                                                   
     n  l   j            E        occ.                                          
     1  0  0.50      -273.3789   2.0000                                         
     2  0  0.50       -13.7508   2.0000                                         
     2  1  0.50        -5.2854   2.0000                                         
     3  2  1.50        -5.4423   0.0000                                         
   Description                                                                  
     l       E           TYP  RCUT    TYP  RCUT                                 
     0    -13.7508458     23  1.200                                             
     0     -8.2022199     23  1.200                                             
     1     -5.2854383     23  1.500                                             
     1     34.0145650     23  1.500                                             
     2     -5.4423304      7  1.500                                             
  local pseudopotential read in
  partial core-charges read in
  partial kinetic energy density read in
  atomic valenz-charges read in
  non local Contribution for L=           0  read in
    real space projection operators read in
  non local Contribution for L=           0  read in
    real space projection operators read in
  non local Contribution for L=           1  read in
    real space projection operators read in
  non local Contribution for L=           1  read in
    real space projection operators read in
    PAW grid and wavefunctions read in

   number of l-projection  operators is LMAX  =           4
   number of lm-projection operators is LMMAX =           8

 POTCAR:    PAW_PBE N 08Apr2002                   
   SHA256 =  e053789ff3a61a86a1b75d8a110fcc91f86041011e7b0817c7c99e4e8a6349d7 N/
   COPYR  = (c) Copyright 08Apr2002 Georg Kresse                                
   COPYR  = This file is part of the software VASP. Any use, copying, and all ot
   COPYR  = If you do not have a valid VASP license, you may not use, copy or di
   VRHFIN =N: s2p3                                                              
   LEXCH  = PE                                                                  
   EATOM  =   264.5486 eV,   19.4438 Ry                                         
                                                                                
   TITEL  = PAW_PBE N 08Apr2002                                                 
   LULTRA =        F    use ultrasoft PP ?                                      
   IUNSCR =        1    unscreen: 0-lin 1-nonlin 2-no                           
   RPACOR =    1.200    partial core radius                                     
   POMASS =   14.001; ZVAL   =    5.000    mass and valenz                      
   RCORE  =    1.500    outmost cutoff radius                                   
   RWIGS  =    1.400; RWIGS  =    0.741    wigner-seitz radius (au A)           
   ENMAX  =  400.000; ENMIN  =  300.000 eV                                      
   ICORE  =        2    local potential                                         
   LCOR   =        T    correct aug charges                                     
   LPAW   =        T    paw PP                                                  
   EAUG   =  627.112                                                            
   DEXC   =    0.000                                                            
   RMAX   =    1.529    core radius for proj-oper                               
   RAUG   =    1.300    factor for augmentation sphere                          
   RDEP   =    1.514    radius for radial grids                                 
   RDEPT  =    1.338    core radius for aug-charge                              
                                                                                
   Atomic configuration                                                         
    4 entries                                                                   
     n  l   j            E        occ.                                          
     1  0  0.50      -384.7179   2.0000                                         
     2  0  0.50       -18.5828   2.0000                                         
     2  1  0.50        -7.0898   3.0000                                         
     3  2  1.50        -6.8029   0.0000                                         
   Description                                                                  
     l       E           TYP  RCUT    TYP  RCUT                                 
     0    -18.5828119     23  1.200                                             
     0    -13.5018863     23  1.200                                             
     1     -7.0897853     23  1.500                                             
     1      9.5240782     23  1.500                                             
     2     -6.8029130      7  1.500                                             
  local pseudopotential read in
  partial core-charges read in
  partial kinetic energy density read in
  atomic valenz-charges read in
  non local Contribution for L=           0  read in
    real space projection operators read in
  non local Contribution for L=           0  read in
    real space projection operators read in
  non local Contribution for L=           1  read in
    real space projection operators read in
  non local Contribution for L=           1  read in
    real space projection operators read in
    PAW grid and wavefunctions read in

   number of l-projection  operators is LMAX  =           4
   number of lm-projection operators is LMMAX =           8

 POTCAR:    PAW_PBE Ge_d 03Jul2007                
   SHA256 =  944b26c40d2d7c4f4eb1ff3a2e8dbfdd7129146276cd341854bfd5c0e57780ed Ge
   COPYR  = (c) Copyright 03Jul2007 Georg Kresse                                
   COPYR  = This file is part of the software VASP. Any use, copying, and all ot
   COPYR  = If you do not have a valid VASP license, you may not use, copy or di
   VRHFIN =Ge: 3d4s4p                                                           
   LEXCH  = PE                                                                  
   EATOM  =  2596.2402 eV,  190.8183 Ry                                         
                                                                                
   TITEL  = PAW_PBE Ge_d 03Jul2007                                              
   LULTRA =        F    use ultrasoft PP ?                                      
   IUNSCR =        1    unscreen: 0-lin 1-nonlin 2-no                           
   RPACOR =    2.000    partial core radius                                     
   POMASS =   72.610; ZVAL   =   14.000    mass and valenz                      
   RCORE  =    2.300    outmost cutoff radius                                   
   RWIGS  =    2.300; RWIGS  =    1.217    wigner-seitz radius (au A)           
   ENMAX  =  310.294; ENMIN  =  232.720 eV                                      
   ICORE  =        3    local potential                                         
   LCOR   =        T    correct aug charges                                     
   LPAW   =        T    paw PP                                                  
   EAUG   =  531.356                                                            
   DEXC   =    0.000                                                            
   RMAX   =    2.342    core radius for proj-oper                               
   RAUG   =    1.300    factor for augmentation sphere                          
   RDEP   =    2.318    radius for radial grids                                 
   RDEPT  =    1.783    core radius for aug-charge                              
                                                                                
   Atomic configuration                                                         
    9 entries                                                                   
     n  l   j            E        occ.                                          
     1  0  0.50    -10959.8463   2.0000                                         
     2  0  0.50     -1371.6056   2.0000                                         
     2  1  1.50     -1198.4791   6.0000                                         
     3  0  0.50      -168.4733   2.0000                                         
     3  1  1.50      -115.6019   6.0000                                         
     3  2  2.50       -29.3106  10.0000                                         
     4  0  0.50       -11.7309   2.0000                                         
     4  1  0.50        -3.8952   2.0000                                         
     4  3  2.50        -4.0817   0.0000                                         
   Description                                                                  
     l       E           TYP  RCUT    TYP  RCUT                                 
     2    -29.3105938     23  2.200                                             
     2    -13.6058260     23  2.200                                             
     0    -11.7309493     23  2.300                                             
     0     -7.4578696     23  2.300                                             
     1     -3.8952261     23  2.300                                             
     1      6.1178114     23  2.300                                             
     3     -1.3605826     23  2.300                                             
  local pseudopotential read in
  partial core-charges read in
  partial kinetic energy density read in
  atomic valenz-charges read in
  non local Contribution for L=           2  read in
    real space projection operators read in
  non local Contribution for L=           2  read in
    real space projection operators read in
  non local Contribution for L=           0  read in
    real space projection operators read in
  non local Contribution for L=           0  read in
    real space projection operators read in
  non local Contribution for L=           1  read in
    real space projection operators read in
  non local Contribution for L=           1  read in
    real space projection operators read in
    PAW grid and wavefunctions read in

   number of l-projection  operators is LMAX  =           6
   number of lm-projection operators is LMMAX =          18

 POTCAR:    PAW_PBE C 08Apr2002                   
   SHA256 =  253f7b50bb8d59471dbedb8285d89021f4a42ed1a2c5d38a03a736e69125dd95 C/
   COPYR  = (c) Copyright 08Apr2002 Georg Kresse                                
   COPYR  = This file is part of the software VASP. Any use, copying, and all ot
   COPYR  = If you do not have a valid VASP license, you may not use, copy or di
   VRHFIN =C: s2p2                                                              
   LEXCH  = PE                                                                  
   EATOM  =   147.1560 eV,   10.8157 Ry                                         
                                                                                
   TITEL  = PAW_PBE C 08Apr2002                                                 
   LULTRA =        F    use ultrasoft PP ?                                      
   IUNSCR =        1    unscreen: 0-lin 1-nonlin 2-no                           
   RPACOR =    1.200    partial core radius                                     
   POMASS =   12.011; ZVAL   =    4.000    mass and valenz                      
   RCORE  =    1.500    outmost cutoff radius                                   
   RWIGS  =    1.630; RWIGS  =    0.863    wigner-seitz radius (au A)           
   ENMAX  =  400.000; ENMIN  =  300.000 eV                                      
   ICORE  =        2    local potential                                         
   LCOR   =        T    correct aug charges                                     
   LPAW   =        T    paw PP                                                  
   EAUG   =  644.873                                                            
   DEXC   =    0.000                                                            
   RMAX   =    1.529    core radius for proj-oper                               
   RAUG   =    1.300    factor for augmentation sphere                          
   RDEP   =    1.501    radius for radial grids                                 
   RDEPT  =    1.300    core radius for aug-charge                              
                                                                                
   Atomic configuration                                                         
    4 entries                                                                   
     n  l   j            E        occ.                                          
     1  0  0.50      -273.3789   2.0000                                         
     2  0  0.50       -13.7508   2.0000                                         
     2  1  0.50        -5.2854   2.0000                                         
     3  2  1.50        -5.4423   0.0000                                         
   Description                                                                  
     l       E           TYP  RCUT    TYP  RCUT                                 
     0    -13.7508458     23  1.200                                             
     0     -8.2022199     23  1.200                                             
     1     -5.2854383     23  1.500                                             
     1     34.0145650     23  1.500                                             
     2     -5.4423304      7  1.500                                             
  local pseudopotential read in
  partial core-charges read in
  partial kinetic energy density read in
  atomic valenz-charges read in
  non local Contribution for L=           0  read in
    real space projection operators read in
  non local Contribution for L=           0  read in
    real space projection operators read in
  non local Contribution for L=           1  read in
    real space projection operators read in
  non local Contribution for L=           1  read in
    real space projection operators read in
    PAW grid and wavefunctions read in

   number of l-projection  operators is LMAX  =           4
   number of lm-projection operators is LMMAX =           8

 POTCAR:    PAW_PBE O 08Apr2002                   
   SHA256 =  818f92134a0a090dccd8ba1447fa70422a3b330e708bb4f08108d8ae51209ddf O/
   COPYR  = (c) Copyright 08Apr2002 Georg Kresse                                
   COPYR  = This file is part of the software VASP. Any use, copying, and all ot
   COPYR  = If you do not have a valid VASP license, you may not use, copy or di
   VRHFIN =O: s2p4                                                              
   LEXCH  = PE                                                                  
   EATOM  =   432.3788 eV,   31.7789 Ry                                         
                                                                                
   TITEL  = PAW_PBE O 08Apr2002                                                 
   LULTRA =        F    use ultrasoft PP ?                                      
   IUNSCR =        1    unscreen: 0-lin 1-nonlin 2-no                           
   RPACOR =    1.200    partial core radius                                     
   POMASS =   16.000; ZVAL   =    6.000    mass and valenz                      
   RCORE  =    1.520    outmost cutoff radius                                   
   RWIGS  =    1.550; RWIGS  =    0.820    wigner-seitz radius (au A)           
   ENMAX  =  400.000; ENMIN  =  300.000 eV                                      
   ICORE  =        2    local potential                                         
   LCOR   =        T    correct aug charges                                     
   LPAW   =        T    paw PP                                                  
   EAUG   =  605.392                                                            
   DEXC   =    0.000                                                            
   RMAX   =    1.553    core radius for proj-oper                               
   RAUG   =    1.300    factor for augmentation sphere                          
   RDEP   =    1.550    radius for radial grids                                 
   RDEPT  =    1.329    core radius for aug-charge                              
                                                                                
   Atomic configuration                                                         
    4 entries                                                                   
     n  l   j            E        occ.                                          
     1  0  0.50      -514.6923   2.0000                                         
     2  0  0.50       -23.9615   2.0000                                         
     2  1  0.50        -9.0305   4.0000                                         
     3  2  1.50        -9.5241   0.0000                                         
   Description                                                                  
     l       E           TYP  RCUT    TYP  RCUT                                 
     0    -23.9615318     23  1.200                                             
     0     -9.5240782     23  1.200                                             
     1     -9.0304911     23  1.520                                             
     1      8.1634956     23  1.520                                             
     2     -9.5240782      7  1.500                                             
  local pseudopotential read in
  partial core-charges read in
  partial kinetic energy density read in
  kinetic energy density of atom read in
  atomic valenz-charges read in
  non local Contribution for L=           0  read in
    real space projection operators read in
  non local Contribution for L=           0  read in
    real space projection operators read in
  non local Contribution for L=           1  read in
    real space projection operators read in
  non local Contribution for L=           1  read in
    real space projection operators read in
    PAW grid and wavefunctions read in

   number of l-projection  operators is LMAX  =           4
   number of lm-projection operators is LMMAX =           8


 ----------------------------------------------------------------------------- 
|                                                                             |
|  ADVICE TO THIS USER RUNNING 'VASP/VAMP'   (HEAR YOUR MASTER'S VOICE ...):  |
|                                                                             |
|      You have a (more or less) 'large supercell' and for larger cells       |
|      it might be more efficient to use real space projection opertators     |
|      So try LREAL= Auto  in the INCAR   file.                               |
|      Mind:          For very  accurate calculation you might also keep the  |
|      reciprocal projection scheme          (i.e. LREAL=.FALSE.)             |
|                                                                             |
 ----------------------------------------------------------------------------- 

  PAW_PBE C 08Apr2002                   :
 energy of atom  1       EATOM= -147.1560
 kinetic energy error for atom=    0.0132 (will be added to EATOM!!)
  PAW_PBE N 08Apr2002                   :
 energy of atom  2       EATOM= -264.5486
 kinetic energy error for atom=    0.0298 (will be added to EATOM!!)
  PAW_PBE Ge_d 03Jul2007                :
 energy of atom  3       EATOM=-2596.2402
 kinetic energy error for atom=    0.0090 (will be added to EATOM!!)
  PAW_PBE C 08Apr2002                   :
 energy of atom  4       EATOM= -147.1560
 kinetic energy error for atom=    0.0132 (will be added to EATOM!!)
  PAW_PBE O 08Apr2002                   :
 energy of atom  5       EATOM= -432.3788
 kinetic energy error for atom=    0.0458 (will be added to EATOM!!)


 POSCAR: POSCAR-c3n4                             
  positions in direct lattice
  velocities in cartesian coordinates
 exchange correlation table for  LEXCH =        8
   RHO(1)=    0.500       N(1)  =     2000
   RHO(2)=  100.500       N(2)  =     4000



--------------------------------------------------------------------------------------------------------


 ion  position               nearest neighbor table
   1  0.084  0.171  0.477-  46 1.24  26 1.25
   2  0.285  0.424  0.489-  29 1.34  25 1.35  35 1.41
   3  0.126  0.423  0.503-  44 1.33  25 1.35  39 1.40
   4  0.453  0.070  0.499-  30 1.34  27 1.41  48 1.42
   5  0.416  0.399  0.448-  29 1.33  28 1.34  56 1.41
   6  0.107  0.039  0.476-  31 1.30  26 1.39  32 1.40
   7  0.107  0.723  0.500-  54 1.34  34 1.35  33 1.54
   8  0.290  0.912  0.491-  37 1.34  27 1.34  33 1.56
   9  0.113  0.893  0.499-  52 1.33  31 1.37  33 1.42
  10  0.460  0.570  0.499-  38 1.31  35 1.39  56 1.39
  11  0.430  0.896  0.485-  37 1.33  36 1.35  48 1.40
  12  0.115  0.576  0.514-  34 1.33  39 1.36  40 1.38
  13  0.628  0.218  0.502-  42 1.37  41 1.38  30 1.43
  14  0.800  0.384  0.491-  45 1.38  41 1.38  51 1.43
  15  0.548  0.390  0.400-  55 1.30  28 1.32
  16  0.939  0.027  0.498-  43 1.28  46 1.41  32 1.42
  17  0.962  0.401  0.496-  45 1.32  44 1.35  40 1.43
  18  0.601  0.051  0.515-  42 1.31  47 1.36  48 1.43
  19  0.630  0.706  0.499-  49 1.33  50 1.36  38 1.40
  20  0.797  0.862  0.516-  49 1.33  53 1.37  43 1.39
  21  0.567  0.885  0.517-  47 1.29  36 1.32
  22  0.950  0.558  0.489-  51 1.33  54 1.40  40 1.42
  23  0.956  0.877  0.521-  53 1.32  52 1.35  32 1.43
  24  0.595  0.551  0.443-  50 1.32  55 1.35  56 1.43
  25  0.182  0.377  0.494-   2 1.35   3 1.35
  26  0.150  0.146  0.463-   1 1.25   6 1.39
  27  0.345  0.016  0.504-   8 1.34   4 1.41
  28  0.449  0.339  0.416-  15 1.32   5 1.34
  29  0.317  0.362  0.463-   5 1.33   2 1.34
  30  0.519  0.174  0.498-   4 1.34  13 1.43
  31  0.159  0.992  0.469-   6 1.30   9 1.37
  32  0.002  0.984  0.497-   6 1.40  16 1.42  23 1.43
  33  0.170  0.843  0.497-   9 1.42   7 1.54   8 1.56
  34  0.162  0.679  0.524-  12 1.33   7 1.35
  35  0.355  0.530  0.507-  10 1.39   2 1.41  57 2.05
  36  0.472  0.835  0.489-  21 1.32  11 1.35
  37  0.329  0.852  0.473-  11 1.33   8 1.34
  38  0.527  0.666  0.520-  10 1.31  19 1.40
  39  0.174  0.531  0.517-  12 1.36   3 1.40  57 2.09
  40  0.011  0.512  0.501-  12 1.38  22 1.42  17 1.43
  41  0.694  0.325  0.493-  14 1.38  13 1.38
  42  0.664  0.153  0.518-  18 1.31  13 1.37
  43  0.841  0.970  0.505-  16 1.28  20 1.39
  44  0.024  0.361  0.496-   3 1.33  17 1.35
  45  0.861  0.341  0.489-  17 1.32  14 1.38
  46  0.992  0.138  0.491-   1 1.24  16 1.41
  47  0.633  0.983  0.531-  21 1.29  18 1.36
  48  0.494  0.004  0.497-  11 1.40   4 1.42  18 1.43
  49  0.694  0.808  0.516-  20 1.33  19 1.33
  50  0.662  0.650  0.458-  24 1.32  19 1.36
  51  0.849  0.496  0.486-  22 1.33  14 1.43
  52  0.019  0.840  0.532-   9 1.33  23 1.35
  53  0.855  0.819  0.532-  23 1.32  20 1.37
  54  0.008  0.668  0.480-   7 1.34  22 1.40
  55  0.622  0.487  0.407-  15 1.30  24 1.35
  56  0.490  0.505  0.465-  10 1.39   5 1.41  24 1.43
  57  0.325  0.639  0.553-  35 2.05  39 2.09
  58  0.254  0.528  0.693-  59 1.14
  59  0.245  0.547  0.759-  58 1.14


IMPORTANT INFORMATION: All symmetrisations will be switched off!
NOSYMM: (Re-)initialisation of all symmetry stuff for point group C_1.



 KPOINTS: K-Points                                

Automatic generation of k-mesh.
Space group operators:
 irot       det(A)        alpha          n_x          n_y          n_z        tau_x        tau_y        tau_z
    1     1.000000     0.000002     1.000000     0.000000     0.000000     0.000000     0.000000     0.000000
 
 Subroutine IBZKPT returns following result:
 ===========================================
 
 Found      5 irreducible k-points:
 
 Following reciprocal coordinates:
            Coordinates               Weight
  0.000000  0.000000  0.000000      1.000000
  0.333333  0.000000  0.000000      2.000000
  0.000000  0.333333  0.000000      2.000000
  0.333333  0.333333  0.000000      2.000000
 -0.333333  0.333333  0.000000      2.000000
 
 Following cartesian coordinates:
            Coordinates               Weight
  0.000000  0.000000  0.000000      1.000000
  0.024277  0.014368  0.000000      2.000000
  0.000396  0.028736  0.000000      2.000000
  0.024673  0.043104  0.000000      2.000000
 -0.023881  0.014368  0.000000      2.000000
 
 TETIRR: Found     24 inequivalent tetrahedra from       54


--------------------------------------------------------------------------------------------------------




 Dimension of arrays:
   k-points           NKPTS =      5   k-points in BZ     NKDIM =      5   number of bands    NBANDS=    172
   number of dos      NEDOS =   4000   number of ions     NIONS =     59
   non local maximal  LDIM  =      6   non local SUM 2l+1 LMDIM =     18
   total plane-waves  NPLWV = 576000
   max r-space proj   IRMAX =      1   max aug-charges    IRDMAX=   6241
   dimension x,y,z NGX =    80 NGY =   80 NGZ =   90
   dimension x,y,z NGXF=   160 NGYF=  160 NGZF=  180
   support grid    NGXF=   160 NGYF=  160 NGZF=  180
   ions per type =              24  32   1   1   1
   NGX,Y,Z   is equivalent  to a cutoff of   8.73,  8.90,  9.07 a.u.
   NGXF,Y,Z  is equivalent  to a cutoff of  17.47, 17.79, 18.14 a.u.

 SYSTEM =  unknown system                          
 POSCAR =  POSCAR-c3n4                             

 Startparameter for this run:
   NWRITE =      2    write-flag & timer
   PREC   = normal    normal or accurate (medium, high low for compatibility)
   ISTART =      0    job   : 0-new  1-cont  2-samecut
   ICHARG =      2    charge: 1-file 2-atom 10-const
   ISPIN  =      2    spin polarized calculation?
   LNONCOLLINEAR =      F non collinear calculations
   LSORBIT =      F    spin-orbit coupling
   INIWAV =      1    electr: 0-lowe 1-rand  2-diag
   LASPH  =      F    aspherical Exc in radial PAW
   METAGGA=      F    non-selfconsistent MetaGGA calc.

 Electronic Relaxation 1
   ENCUT  =  440.0 eV  32.34 Ry    5.69 a.u.  26.05 25.57 28.22*2*pi/ulx,y,z
   ENINI  =  440.0     initial cutoff
   ENAUG  =  644.9 eV  augmentation charge cutoff
   NELM   =    100;   NELMIN=  2; NELMDL= -5     # of ELM steps 
   EDIFF  = 0.1E-03   stopping-criterion for ELM
   LREAL  =      F    real-space projection
   NLSPLINE    = F    spline interpolate recip. space projectors
   LCOMPAT=      F    compatible to vasp.4.4
   GGA_COMPAT  = T    GGA compatible to vasp.4.4-vasp.4.6
   LMAXPAW     = -100 max onsite density
   LMAXMIX     =    2 max onsite mixed and CHGCAR
   VOSKOWN=      0    Vosko Wilk Nusair interpolation
   ROPT   =    0.00000   0.00000   0.00000   0.00000
   ROPT   =    0.00000
 Ionic relaxation
   EDIFFG = -.1E-01   stopping-criterion for IOM
   NSW    =      0    number of steps for IOM
   NBLOCK =      1;   KBLOCK =      1    inner block; outer block 
   IBRION =     -1    ionic relax: 0-MD 1-quasi-New 2-CG
   NFREE  =      0    steps in history (QN), initial steepest desc. (CG)
   ISIF   =      2    stress and relaxation
   IWAVPR =     10    prediction:  0-non 1-charg 2-wave 3-comb
   ISYM   =      0    0-nonsym 1-usesym 2-fastsym
   LCORR  =      T    Harris-Foulkes like correction to forces

   POTIM  = 0.5000    time-step for ionic-motion
   TEIN   =    0.0    initial temperature
   TEBEG  =    0.0;   TEEND  =   0.0 temperature during run
   SMASS  =  -3.00    Nose mass-parameter (am)
   estimated Nose-frequenzy (Omega)   =  0.10E-29 period in steps =****** mass=  -0.530E-26a.u.
   SCALEE = 1.0000    scale energy and forces
   NPACO  =    256;   APACO  = 16.0  distance and # of slots for P.C.
   PSTRESS=    0.0 pullay stress

  Mass of Ions in am
   POMASS =  12.01 14.00 72.61 12.01 16.00
  Ionic Valenz
   ZVAL   =   4.00  5.00 14.00  4.00  6.00
  Atomic Wigner-Seitz radii
   RWIGS  =  -1.00 -1.00 -1.00 -1.00 -1.00
  virtual crystal weights 
   VCA    =   1.00  1.00  1.00  1.00  1.00
   NELECT =     280.0000    total number of electrons
   NUPDOWN=      -1.0000    fix difference up-down

 DOS related values:
   EMIN   = -14.00;   EMAX   =  6.00  energy-range for DOS
   EFERMI =   0.00
   ISMEAR =    -5;   SIGMA  =   0.20  broadening in eV -4-tet -1-fermi 0-gaus

 Electronic relaxation 2 (details)
   IALGO  =     38    algorithm
   LDIAG  =      T    sub-space diagonalisation (order eigenvalues)
   LSUBROT=      F    optimize rotation matrix (better conditioning)
   TURBO    =      0    0=normal 1=particle mesh
   IRESTART =      0    0=no restart 2=restart with 2 vectors
   NREBOOT  =      0    no. of reboots
   NMIN     =      0    reboot dimension
   EREF     =   0.00    reference energy to select bands
   IMIX   =      4    mixing-type and parameters
     AMIX     =   0.25;   BMIX     =  0.00
     AMIX_MAG =   1.00;   BMIX_MAG =  0.00
     AMIN     =   0.10
     WC   =   100.;   INIMIX=   1;  MIXPRE=   1;  MAXMIX= -45

 Intra band minimization:
   WEIMIN = 0.0000     energy-eigenvalue tresh-hold
   EBREAK =  0.15E-06  absolut break condition
   DEPER  =   0.30     relativ break condition  

   TIME   =   0.40     timestep for ELM

  volume/ion in A,a.u.               =      54.34       366.70
  Fermi-wavevector in a.u.,A,eV,Ry     =   0.726339  1.372582  7.178007  0.527569
  Thomas-Fermi vector in A             =   1.817287

 Write flags
   LWAVE        =      F    write WAVECAR
   LDOWNSAMPLE  =      F    k-point downsampling of WAVECAR
   LCHARG       =      F    write CHGCAR
   LVTOT        =      F    write LOCPOT, total local potential
   LVHAR        =      F    write LOCPOT, Hartree potential only
   LELF         =      F    write electronic localiz. function (ELF)
   LORBIT       =     11    0 simple, 1 ext, 2 COOP (PROOUT), +10 PAW based schemes


 Dipole corrections
   LMONO  =      F    monopole corrections only (constant potential shift)
   LDIPOL =      F    correct potential (dipole corrections)
   IDIPOL =      0    1-x, 2-y, 3-z, 4-all directions 
   EPSILON=  1.0000000 bulk dielectric constant

 Exchange correlation treatment:
   GGA     =    --    GGA type
   LEXCH   =     8    internal setting for exchange type
   VOSKOWN=      0    Vosko Wilk Nusair interpolation
   LHFCALC =     F    Hartree Fock is set to
   LHFONE  =     F    Hartree Fock one center treatment
   AEXX    =    0.0000 exact exchange contribution

 Linear response parameters
   LEPSILON=     F    determine dielectric tensor
   LRPA    =     F    only Hartree local field effects (RPA)
   LNABLA  =     F    use nabla operator in PAW spheres
   LVEL    =     F    velocity operator in full k-point grid
   LINTERFAST=   F  fast interpolation
   KINTER  =     0    interpolate to denser k-point grid
   CSHIFT  =0.1000    complex shift for real part using Kramers Kronig
   OMEGAMAX=  -1.0    maximum frequency
   DEG_THRESHOLD= 0.2000000E-02 threshold for treating states as degnerate
   RTIME   =   -0.100 relaxation time in fs
  (WPLASMAI=    0.000 imaginary part of plasma frequency in eV, 0.658/RTIME)
   DFIELD  = 0.0000000 0.0000000 0.0000000 field for delta impulse in time

 Orbital magnetization related:
   ORBITALMAG=     F  switch on orbital magnetization
   LCHIMAG   =     F  perturbation theory with respect to B field
   DQ        =  0.001000  dq finite difference perturbation B field
   LLRAUG    =     F  two centre corrections for induced B field



--------------------------------------------------------------------------------------------------------


 Static calculation
 charge density and potential will be updated during run
 spin polarized calculation
 Variant of blocked Davidson
 Davidson routine will perform the subspace rotation
 perform sub-space diagonalisation
    after iterative eigenvector-optimisation
 modified Broyden-mixing scheme, WC =      100.0
 initial mixing is a Kerker type mixing with AMIX =  0.2500 and BMIX =      0.0001
 Hartree-type preconditioning will be used
 using additional bands           32
 reciprocal scheme for non local part
 use partial core corrections
 calculate Harris-corrections to forces   (improved forces if not selfconsistent)
 use gradient corrections 
 use of overlap-Matrix (Vanderbilt PP)
 Fermi weights with tetrahedron method with Bloechl corrections


--------------------------------------------------------------------------------------------------------


  energy-cutoff  :      440.00
  volume of cell :     3206.00
      direct lattice vectors                 reciprocal lattice vectors
    15.227766658 -0.209814521  0.000000000     0.066209427  0.039185558 -0.000000000
    -7.613883329 12.864710093  0.000000000     0.001079830  0.078371117 -0.000000000
     0.000000000  0.000000000 16.500000000    -0.000000000 -0.000000000  0.060606061

  length of vectors
    15.229212045 14.948979401 16.500000000     0.076936312  0.078378556  0.060606061



 k-points in units of 2pi/SCALE and weight: K-Points                                
   0.00000000  0.00000000  0.00000000       0.111
   0.02427679  0.01436804  0.00000000       0.222
   0.00039594  0.02873608  0.00000000       0.222
   0.02467273  0.04310411  0.00000000       0.222
  -0.02388085  0.01436804  0.00000000       0.222

 k-points in reciprocal lattice and weights: K-Points                                
   0.00000000  0.00000000  0.00000000       0.111
   0.33333333  0.00000000  0.00000000       0.222
   0.00000000  0.33333333  0.00000000       0.222
   0.33333333  0.33333333  0.00000000       0.222
  -0.33333333  0.33333333  0.00000000       0.222

 position of ions in fractional coordinates (direct lattice) 
   0.08448036  0.17072720  0.47686257
   0.28511787  0.42425843  0.48864707
   0.12574771  0.42300096  0.50286603
   0.45306525  0.07010550  0.49876038
   0.41608072  0.39859837  0.44810146
   0.10683932  0.03924578  0.47590168
   0.10722306  0.72261785  0.50026703
   0.28979203  0.91175868  0.49068345
   0.11251177  0.89301579  0.49947161
   0.45958467  0.56966361  0.49864546
   0.43001574  0.89622159  0.48473079
   0.11524156  0.57550719  0.51447852
   0.62807129  0.21781357  0.50159383
   0.80043014  0.38416478  0.49065024
   0.54830479  0.38953436  0.39952578
   0.93874999  0.02717351  0.49772950
   0.96235581  0.40107126  0.49554213
   0.60117591  0.05100752  0.51526726
   0.63005344  0.70643849  0.49929291
   0.79671016  0.86210581  0.51638878
   0.56737177  0.88520299  0.51657204
   0.95021555  0.55836735  0.48926755
   0.95569260  0.87676459  0.52135452
   0.59522390  0.55053631  0.44309633
   0.18166705  0.37682783  0.49432433
   0.15036368  0.14642773  0.46329760
   0.34499309  0.01575838  0.50378477
   0.44922914  0.33926379  0.41612494
   0.31739925  0.36153053  0.46280734
   0.51913289  0.17413657  0.49839391
   0.15860089  0.99241328  0.46918296
   0.00220528  0.98372988  0.49659384
   0.17046476  0.84346197  0.49672155
   0.16156915  0.67865819  0.52368721
   0.35506507  0.53011683  0.50749249
   0.47153320  0.83528686  0.48944561
   0.32937287  0.85233624  0.47302238
   0.52694967  0.66610026  0.52007758
   0.17404199  0.53121816  0.51685678
   0.01099101  0.51248590  0.50116451
   0.69411411  0.32475770  0.49266059
   0.66396519  0.15290713  0.51823053
   0.84060875  0.96967292  0.50537860
   0.02394442  0.36125143  0.49551041
   0.86125587  0.34110817  0.48936140
   0.99228172  0.13760511  0.49120014
   0.63317806  0.98277741  0.53059287
   0.49443931  0.00424988  0.49743035
   0.69427822  0.80769287  0.51574708
   0.66206546  0.65007193  0.45811389
   0.84850902  0.49575603  0.48589703
   0.01906030  0.83996209  0.53167236
   0.85533779  0.81937170  0.53249442
   0.00770594  0.66765390  0.48008325
   0.62179174  0.48710196  0.40694326
   0.48962888  0.50482969  0.46462124
   0.32481465  0.63878215  0.55338231
   0.25423743  0.52816104  0.69319980
   0.24527003  0.54695551  0.75880571

 position of ions in cartesian coordinates  (Angst):
  -0.01344970  2.17863072  7.86823245
   1.11145418  5.39813979  8.06267666
  -1.30582327  5.41540108  8.29728950
   6.36539689  0.80682722  8.22954627
   3.30109864  5.04055265  7.39367409
   1.32811145  0.48246911  7.85237767
  -3.86916022  9.27377221  8.25440594
  -2.52913876 11.66870846  8.09627697
  -5.08601510 11.46478266  8.24128157
   2.66109587  7.23212967  8.22765005
  -0.27554724 11.43940737  7.99805804
  -2.62697304  7.37955380  8.48889559
   7.90571593  2.67033001  8.27629827
   9.26377758  4.77422663  8.09572901
   5.38358825  4.89620436  6.59217545
  14.08816988  0.15261591  8.21253668
  11.60081992  4.95774927  8.17644510
   8.76620118  0.53006150  8.50190986
   4.21556657  8.95593200  8.23833297
   5.56814337 10.92358002  8.52041490
   1.89997267 11.26883699  8.52343870
  10.21831688  6.98386503  8.07291459
   7.87748057 11.07880405  8.60234966
   4.87221144  6.95760338  7.31108950
  -0.10273966  4.80966435  8.15635144
   1.17481929  1.85220186  7.64441040
   5.13349178  0.13034238  8.31244864
   4.25764154  4.27027553  6.86606146
   2.08063036  4.58439049  7.63632109
   6.57937902  2.13129492  8.22349952
  -5.14098166 12.73383240  7.74151890
  -7.45642314 12.65493706  8.19379842
  -3.82622346 10.81512771  8.19590562
  -2.70688695  8.69684136  8.64083895
   1.37060035  6.74530152  8.37362612
   0.82062092 10.64678873  8.07585264
  -1.47397539 10.89595138  7.80486924
   2.95265687  8.45862506  8.58128015
  -1.39436224  6.79745108  8.52813687
  -3.73463938  6.59067647  8.26921435
   8.09714042  4.03227839  8.12889980
   8.94648992  1.82779631  8.55080373
   5.41761733 12.29818911  8.33874694
  -2.38590614  4.64237099  8.17592176
  10.51784559  4.20755378  8.07446318
  14.06252515  1.56205476  8.10480237
   2.15913521 12.51029657  8.75478227
   7.49684840 -0.04906711  8.20760073
   4.42262744 10.24506494  8.50982677
   5.13220655  8.22407600  7.55887922
   9.14626880  6.19972806  8.01730100
  -6.10512761 10.80186970  8.77259390
   6.78628380 10.36151710  8.78615795
  -4.96609467  8.58755707  7.92137362
   5.75976205  6.13596461  6.71456386
   3.61224002  6.39175637  7.66625049
   0.08258889  8.14959639  9.13080813
  -0.14988822  6.74129590 11.43779677
  -0.42954071  6.98496289 12.52029421



--------------------------------------------------------------------------------------------------------


 k-point  1 :   0.0000 0.0000 0.0000  plane waves:   67161
 k-point  2 :   0.3333 0.0000 0.0000  plane waves:   67171
 k-point  3 :   0.0000 0.3333 0.0000  plane waves:   67191
 k-point  4 :   0.3333 0.3333 0.0000  plane waves:   67211
 k-point  5 :  -0.3333 0.3333 0.0000  plane waves:   67188

 maximum and minimum number of plane-waves per node :      5625     5565

 maximum number of plane-waves:     67211
 maximum index in each direction: 
   IXMAX=   26   IYMAX=   25   IZMAX=   28
   IXMIN=  -26   IYMIN=  -25   IZMIN=  -28


 parallel 3D FFT for wavefunctions:
    minimum data exchange during FFTs selected (reduces bandwidth)
 parallel 3D FFT for charge:
    minimum data exchange during FFTs selected (reduces bandwidth)


 total amount of memory used by VASP MPI-rank0   116102. kBytes
=======================================================================

   base      :      30000. kBytes
   nonl-proj :      25519. kBytes
   fftplans  :       5290. kBytes
   grid      :      16143. kBytes
   one-center:        155. kBytes
   wavefun   :      38995. kBytes

     INWAV:  cpu time    0.0000: real time    0.0000
 Broyden mixing: mesh for mixing (old mesh)
   NGX = 53   NGY = 51   NGZ = 57
  (NGX  =160   NGY  =160   NGZ  =180)
  gives a total of 154071 points

 initial charge density was supplied:
 charge density of overlapping atoms calculated
 number of electron     280.0000000 magnetization       2.0000000
 keeping initial charge density in first step


--------------------------------------------------------------------------------------------------------


 Maximum index for augmentation-charges          320 (set IRDMAX)


--------------------------------------------------------------------------------------------------------


 First call to EWALD:  gamma=   0.120
 Maximum number of real-space cells 3x 3x 3
 Maximum number of reciprocal cells 3x 3x 3

    FEWALD:  cpu time    0.0022: real time    0.0022


--------------------------------------- Iteration      1(   1)  ---------------------------------------


    POTLOK:  cpu time    0.1526: real time    0.1643
    SETDIJ:  cpu time    0.0090: real time    0.0093
     EDDAV:  cpu time   17.3517: real time   17.3648
 BZINTS: Fermi energy:  7.893643;280.000000 electrons
         Band energy:***********;  BLOECHL correction: -0.011475
       DOS:  cpu time    0.1131: real time    0.1131
    --------------------------------------------
      LOOP:  cpu time   17.6264: real time   17.6515

 eigenvalue-minimisations  :  4176
 total energy-change (2. order) : 0.2587580E+04  (-0.1000622E+05)
 number of electron     280.0000000 magnetization       2.0000000
 augmentation part      280.0000000 magnetization       2.0000000

 Free energy of the ion-electron system (eV)
  ---------------------------------------------------
  alpha Z        PSCENC =       116.22571397
  Ewald energy   TEWEN  =     28926.30552264
  -Hartree energ DENC   =    -40713.25254695
  -exchange      EXHF   =         0.00000000
  -V(xc)+E(xc)   XCENC  =      1059.46799884
  PAW double counting   =     11453.83848114   -11942.90478952
  entropy T*S    EENTRO =         0.00000000
  eigenvalues    EBANDS =     -1483.83620145
  atomic energy  EATOM  =     15171.73615219
  Solvation  Ediel_sol  =         0.00000000
  ---------------------------------------------------
  free energy    TOTEN  =      2587.58033085 eV

  energy without entropy =     2587.58033085  energy(sigma->0) =     2587.58033085


--------------------------------------------------------------------------------------------------------




--------------------------------------- Iteration      1(   2)  ---------------------------------------


     EDDAV:  cpu time   19.8205: real time   19.8357
 BZINTS: Fermi energy: -0.475369;280.000000 electrons
         Band energy:***********;  BLOECHL correction:  0.000000
       DOS:  cpu time    0.0150: real time    0.0150
    --------------------------------------------
      LOOP:  cpu time   19.8354: real time   19.8506

 eigenvalue-minimisations  :  4936
 total energy-change (2. order) :-0.2480722E+04  (-0.2372965E+04)
 number of electron     280.0000000 magnetization       2.0000000
 augmentation part      280.0000000 magnetization       2.0000000

 Free energy of the ion-electron system (eV)
  ---------------------------------------------------
  alpha Z        PSCENC =       116.22571397
  Ewald energy   TEWEN  =     28926.30552264
  -Hartree energ DENC   =    -40713.25254695
  -exchange      EXHF   =         0.00000000
  -V(xc)+E(xc)   XCENC  =      1059.46799884
  PAW double counting   =     11453.83848114   -11942.90478952
  entropy T*S    EENTRO =         0.00000000
  eigenvalues    EBANDS =     -3964.55804708
  atomic energy  EATOM  =     15171.73615219
  Solvation  Ediel_sol  =         0.00000000
  ---------------------------------------------------
  free energy    TOTEN  =       106.85848523 eV

  energy without entropy =      106.85848523  energy(sigma->0) =      106.85848523


--------------------------------------------------------------------------------------------------------




--------------------------------------- Iteration      1(   3)  ---------------------------------------


     EDDAV:  cpu time   17.0483: real time   17.0603
 BZINTS: Fermi energy: -5.195299;280.000000 electrons
         Band energy:***********;  BLOECHL correction:  0.000000
       DOS:  cpu time    0.0159: real time    0.0159
    --------------------------------------------
      LOOP:  cpu time   17.0642: real time   17.0762

 eigenvalue-minimisations  :  4076
 total energy-change (2. order) :-0.5990693E+03  (-0.5945017E+03)
 number of electron     280.0000000 magnetization       2.0000000
 augmentation part      280.0000000 magnetization       2.0000000

 Free energy of the ion-electron system (eV)
  ---------------------------------------------------
  alpha Z        PSCENC =       116.22571397
  Ewald energy   TEWEN  =     28926.30552264
  -Hartree energ DENC   =    -40713.25254695
  -exchange      EXHF   =         0.00000000
  -V(xc)+E(xc)   XCENC  =      1059.46799884
  PAW double counting   =     11453.83848114   -11942.90478952
  entropy T*S    EENTRO =         0.00000000
  eigenvalues    EBANDS =     -4563.62736447
  atomic energy  EATOM  =     15171.73615219
  Solvation  Ediel_sol  =         0.00000000
  ---------------------------------------------------
  free energy    TOTEN  =      -492.21083217 eV

  energy without entropy =     -492.21083217  energy(sigma->0) =     -492.21083217


--------------------------------------------------------------------------------------------------------




--------------------------------------- Iteration      1(   4)  ---------------------------------------


     EDDAV:  cpu time   17.5752: real time   17.5795
 BZINTS: Fermi energy: -5.571643;280.000000 electrons
         Band energy:***********;  BLOECHL correction:  0.000000
       DOS:  cpu time    0.0166: real time    0.0166
    --------------------------------------------
      LOOP:  cpu time   17.5917: real time   17.5960

 eigenvalue-minimisations  :  4240
 total energy-change (2. order) :-0.2745787E+02  (-0.2671342E+02)
 number of electron     280.0000000 magnetization       2.0000000
 augmentation part      280.0000000 magnetization       2.0000000

 Free energy of the ion-electron system (eV)
  ---------------------------------------------------
  alpha Z        PSCENC =       116.22571397
  Ewald energy   TEWEN  =     28926.30552264
  -Hartree energ DENC   =    -40713.25254695
  -exchange      EXHF   =         0.00000000
  -V(xc)+E(xc)   XCENC  =      1059.46799884
  PAW double counting   =     11453.83848114   -11942.90478952
  entropy T*S    EENTRO =         0.00000000
  eigenvalues    EBANDS =     -4591.08523907
  atomic energy  EATOM  =     15171.73615219
  Solvation  Ediel_sol  =         0.00000000
  ---------------------------------------------------
  free energy    TOTEN  =      -519.66870676 eV

  energy without entropy =     -519.66870676  energy(sigma->0) =     -519.66870676


--------------------------------------------------------------------------------------------------------




--------------------------------------- Iteration      1(   5)  ---------------------------------------


     EDDAV:  cpu time   19.9031: real time   19.9186
 BZINTS: Fermi energy: -5.596649;280.000000 electrons
         Band energy:***********;  BLOECHL correction:  0.000000
       DOS:  cpu time    0.0161: real time    0.0161
    CHARGE:  cpu time    0.2907: real time    0.2909
    MIXING:  cpu time    0.0041: real time    0.0044
    --------------------------------------------
      LOOP:  cpu time   20.2140: real time   20.2300

 eigenvalue-minimisations  :  4960
 total energy-change (2. order) :-0.1157862E+01  (-0.1146138E+01)
 number of electron     280.0000085 magnetization       0.0000001
 augmentation part       20.0520784 magnetization       0.0300966

 Broyden mixing:
  rms(total) = 0.41823E+01    rms(broyden)= 0.41794E+01
  rms(prec ) = 0.45878E+01
  weight for this iteration     100.00

 Free energy of the ion-electron system (eV)
  ---------------------------------------------------
  alpha Z        PSCENC =       116.22571397
  Ewald energy   TEWEN  =     28926.30552264
  -Hartree energ DENC   =    -40713.25254695
  -exchange      EXHF   =         0.00000000
  -V(xc)+E(xc)   XCENC  =      1059.46799884
  PAW double counting   =     11453.83848114   -11942.90478952
  entropy T*S    EENTRO =         0.00000000
  eigenvalues    EBANDS =     -4592.24310154
  atomic energy  EATOM  =     15171.73615219
  Solvation  Ediel_sol  =         0.00000000
  ---------------------------------------------------
  free energy    TOTEN  =      -520.82656923 eV

  energy without entropy =     -520.82656923  energy(sigma->0) =     -520.82656923


--------------------------------------------------------------------------------------------------------




--------------------------------------- Iteration      1(   6)  ---------------------------------------


    POTLOK:  cpu time    0.1445: real time    0.1519
    SETDIJ:  cpu time    0.0090: real time    0.0090
     EDDAV:  cpu time   18.1711: real time   18.1832
 BZINTS: Fermi energy: -5.650413;280.000000 electrons
         Band energy:***********;  BLOECHL correction:  0.000000
       DOS:  cpu time    0.0172: real time    0.0172
    CHARGE:  cpu time    0.2856: real time    0.2856
    MIXING:  cpu time    0.0046: real time    0.0101
    --------------------------------------------
      LOOP:  cpu time   18.6320: real time   18.6570

 eigenvalue-minimisations  :  4416
 total energy-change (2. order) : 0.2390873E+02  (-0.1275713E+02)
 number of electron     280.0000077 magnetization      -0.0000000
 augmentation part       18.8888533 magnetization       0.0078961

 Broyden mixing:
  rms(total) = 0.26869E+01    rms(broyden)= 0.26861E+01
  rms(prec ) = 0.29587E+01
  weight for this iteration     100.00

 eigenvalues of (default mixing * dielectric matrix)
  average eigenvalue GAMMA=   1.1721
  1.1721

 Free energy of the ion-electron system (eV)
  ---------------------------------------------------
  alpha Z        PSCENC =       116.22571397
  Ewald energy   TEWEN  =     28926.30552264
  -Hartree energ DENC   =    -40998.42633216
  -exchange      EXHF   =         0.00000000
  -V(xc)+E(xc)   XCENC  =      1074.43996661
  PAW double counting   =     14857.22359777   -15348.41040732
  entropy T*S    EENTRO =         0.00000000
  eigenvalues    EBANDS =     -4296.01205712
  atomic energy  EATOM  =     15171.73615219
  Solvation  Ediel_sol  =         0.00000000
  ---------------------------------------------------
  free energy    TOTEN  =      -496.91784344 eV

  energy without entropy =     -496.91784344  energy(sigma->0) =     -496.91784344


--------------------------------------------------------------------------------------------------------




--------------------------------------- Iteration      1(   7)  ---------------------------------------


    POTLOK:  cpu time    0.1435: real time    0.1523
    SETDIJ:  cpu time    0.0091: real time    0.0091
     EDDAV:  cpu time   18.0379: real time   18.0575
 BZINTS: Fermi energy: -4.840210;280.000000 electrons
         Band energy:***********;  BLOECHL correction:  0.000000
       DOS:  cpu time    0.0175: real time    0.0175
    CHARGE:  cpu time    0.2829: real time    0.2829
    MIXING:  cpu time    0.0042: real time    0.0047
    --------------------------------------------
      LOOP:  cpu time   18.4951: real time   18.5240

 eigenvalue-minimisations  :  4376
 total energy-change (2. order) : 0.4182562E+01  (-0.4883956E+01)
 number of electron     280.0000080 magnetization      -0.0000000
 augmentation part       18.5707200 magnetization       0.0050406

 Broyden mixing:
  rms(total) = 0.20260E+01    rms(broyden)= 0.20253E+01
  rms(prec ) = 0.22995E+01
  weight for this iteration     100.00

 eigenvalues of (default mixing * dielectric matrix)
  average eigenvalue GAMMA=   1.1247
  1.6542  0.5952

 Free energy of the ion-electron system (eV)
  ---------------------------------------------------
  alpha Z        PSCENC =       116.22571397
  Ewald energy   TEWEN  =     28926.30552264
  -Hartree energ DENC   =    -41229.55456635
  -exchange      EXHF   =         0.00000000
  -V(xc)+E(xc)   XCENC  =      1082.73783510
  PAW double counting   =     18067.18307280   -18560.41545791
  entropy T*S    EENTRO =         0.00000000
  eigenvalues    EBANDS =     -4066.95355376
  atomic energy  EATOM  =     15171.73615219
  Solvation  Ediel_sol  =         0.00000000
  ---------------------------------------------------
  free energy    TOTEN  =      -492.73528131 eV

  energy without entropy =     -492.73528131  energy(sigma->0) =     -492.73528131


--------------------------------------------------------------------------------------------------------




--------------------------------------- Iteration      1(   8)  ---------------------------------------


    POTLOK:  cpu time    0.1504: real time    0.1518
    SETDIJ:  cpu time    0.0091: real time    0.0091
     EDDAV:  cpu time   17.7032: real time   17.7210
 BZINTS: Fermi energy: -3.294824;280.000000 electrons
         Band energy:***********;  BLOECHL correction:  0.000000
       DOS:  cpu time    0.0168: real time    0.0168
    CHARGE:  cpu time    0.2900: real time    0.2900
    MIXING:  cpu time    0.0044: real time    0.0044
    --------------------------------------------
      LOOP:  cpu time   18.1739: real time   18.1931

 eigenvalue-minimisations  :  4272
 total energy-change (2. order) : 0.6725937E+01  (-0.1182892E+01)
 number of electron     280.0000075 magnetization      -0.0000000
 augmentation part       18.4058762 magnetization       0.0007870

 Broyden mixing:
  rms(total) = 0.16066E+01    rms(broyden)= 0.16059E+01
  rms(prec ) = 0.18366E+01
  weight for this iteration     100.00

 eigenvalues of (default mixing * dielectric matrix)
  average eigenvalue GAMMA=   1.0497
  1.8595  0.8235  0.4663

 Free energy of the ion-electron system (eV)
  ---------------------------------------------------
  alpha Z        PSCENC =       116.22571397
  Ewald energy   TEWEN  =     28926.30552264
  -Hartree energ DENC   =    -41355.86068022
  -exchange      EXHF   =         0.00000000
  -V(xc)+E(xc)   XCENC  =      1088.54806514
  PAW double counting   =     21224.56779381   -21719.93971465
  entropy T*S    EENTRO =         0.00000000
  eigenvalues    EBANDS =     -3937.59219739
  atomic energy  EATOM  =     15171.73615219
  Solvation  Ediel_sol  =         0.00000000
  ---------------------------------------------------
  free energy    TOTEN  =      -486.00934452 eV

  energy without entropy =     -486.00934452  energy(sigma->0) =     -486.00934452


--------------------------------------------------------------------------------------------------------




--------------------------------------- Iteration      1(   9)  ---------------------------------------


    POTLOK:  cpu time    0.1436: real time    0.1504
    SETDIJ:  cpu time    0.0089: real time    0.0089
     EDDAV:  cpu time   18.1098: real time   18.1174
 BZINTS: Fermi energy: -3.986247;280.000000 electrons
         Band energy:***********;  BLOECHL correction:  0.000000
       DOS:  cpu time    0.0171: real time    0.0171
    CHARGE:  cpu time    0.2879: real time    0.2879
    MIXING:  cpu time    0.0045: real time    0.0045
    --------------------------------------------
      LOOP:  cpu time   18.5719: real time   18.5862

 eigenvalue-minimisations  :  4392
 total energy-change (2. order) :-0.9228756E+00  (-0.6048780E+01)
 number of electron     280.0000074 magnetization       0.0000000
 augmentation part       18.3080677 magnetization       0.0001993

 Broyden mixing:
  rms(total) = 0.11811E+01    rms(broyden)= 0.11804E+01
  rms(prec ) = 0.12840E+01
  weight for this iteration     100.00

 eigenvalues of (default mixing * dielectric matrix)
  average eigenvalue GAMMA=   1.2717
  2.9898  1.2387  0.4877  0.3707

 Free energy of the ion-electron system (eV)
  ---------------------------------------------------
  alpha Z        PSCENC =       116.22571397
  Ewald energy   TEWEN  =     28926.30552264
  -Hartree energ DENC   =    -41391.64335454
  -exchange      EXHF   =         0.00000000
  -V(xc)+E(xc)   XCENC  =      1089.69426864
  PAW double counting   =     22464.28460471   -22960.55903450
  entropy T*S    EENTRO =         0.00000000
  eigenvalues    EBANDS =     -3902.97609325
  atomic energy  EATOM  =     15171.73615219
  Solvation  Ediel_sol  =         0.00000000
  ---------------------------------------------------
  free energy    TOTEN  =      -486.93222015 eV

  energy without entropy =     -486.93222015  energy(sigma->0) =     -486.93222015


--------------------------------------------------------------------------------------------------------




--------------------------------------- Iteration      1(  10)  ---------------------------------------


    POTLOK:  cpu time    0.1469: real time    0.1516
    SETDIJ:  cpu time    0.0090: real time    0.0090
     EDDAV:  cpu time   16.5661: real time   16.5732
 BZINTS: Fermi energy: -3.904976;280.000000 electrons
         Band energy:***********;  BLOECHL correction:  0.000000
       DOS:  cpu time    0.0168: real time    0.0169
    CHARGE:  cpu time    0.2877: real time    0.2881
    MIXING:  cpu time    0.0049: real time    0.0049
    --------------------------------------------
      LOOP:  cpu time   17.0314: real time   17.0436

 eigenvalue-minimisations  :  3912
 total energy-change (2. order) :-0.2716032E+00  (-0.9845907E+00)
 number of electron     280.0000074 magnetization      -0.0000000
 augmentation part       18.2675594 magnetization      -0.0000782

 Broyden mixing:
  rms(total) = 0.84784E+00    rms(broyden)= 0.84739E+00
  rms(prec ) = 0.10751E+01
  weight for this iteration     100.00

 eigenvalues of (default mixing * dielectric matrix)
  average eigenvalue GAMMA=   1.3292
  3.5213  1.2697  1.0553  0.3999  0.3999

 Free energy of the ion-electron system (eV)
  ---------------------------------------------------
  alpha Z        PSCENC =       116.22571397
  Ewald energy   TEWEN  =     28926.30552264
  -Hartree energ DENC   =    -41478.87487411
  -exchange      EXHF   =         0.00000000
  -V(xc)+E(xc)   XCENC  =      1092.99063479
  PAW double counting   =     26588.29026506   -27087.33342011
  entropy T*S    EENTRO =         0.00000000
  eigenvalues    EBANDS =     -3816.54381778
  atomic energy  EATOM  =     15171.73615219
  Solvation  Ediel_sol  =         0.00000000
  ---------------------------------------------------
  free energy    TOTEN  =      -487.20382336 eV

  energy without entropy =     -487.20382336  energy(sigma->0) =     -487.20382336


--------------------------------------------------------------------------------------------------------




--------------------------------------- Iteration      1(  11)  ---------------------------------------


    POTLOK:  cpu time    0.1454: real time    0.1516
    SETDIJ:  cpu time    0.0090: real time    0.0090
     EDDAV:  cpu time   18.0173: real time   18.0299
 BZINTS: Fermi energy: -4.191298;280.000000 electrons
         Band energy:***********;  BLOECHL correction:  0.000000
       DOS:  cpu time    0.0159: real time    0.0159
    CHARGE:  cpu time    0.2891: real time    0.2891
    MIXING:  cpu time    0.0052: real time    0.0052
    --------------------------------------------
      LOOP:  cpu time   18.4818: real time   18.5008

 eigenvalue-minimisations  :  4368
 total energy-change (2. order) :-0.1365624E+01  (-0.3687413E+01)
 number of electron     280.0000074 magnetization       0.0000000
 augmentation part       18.2921546 magnetization      -0.0005423

 Broyden mixing:
  rms(total) = 0.88123E+00    rms(broyden)= 0.88020E+00
  rms(prec ) = 0.11903E+01
  weight for this iteration     100.00

 eigenvalues of (default mixing * dielectric matrix)
  average eigenvalue GAMMA=   1.2656
  3.7513  1.2911  0.9027  0.9027  0.3729  0.3729

 Free energy of the ion-electron system (eV)
  ---------------------------------------------------
  alpha Z        PSCENC =       116.22571397
  Ewald energy   TEWEN  =     28926.30552264
  -Hartree energ DENC   =    -41478.94160864
  -exchange      EXHF   =         0.00000000
  -V(xc)+E(xc)   XCENC  =      1093.47258295
  PAW double counting   =     28305.79489618   -28805.45873491
  entropy T*S    EENTRO =         0.00000000
  eigenvalues    EBANDS =     -3817.70397184
  atomic energy  EATOM  =     15171.73615219
  Solvation  Ediel_sol  =         0.00000000
  ---------------------------------------------------
  free energy    TOTEN  =      -488.56944746 eV

  energy without entropy =     -488.56944746  energy(sigma->0) =     -488.56944746


--------------------------------------------------------------------------------------------------------




--------------------------------------- Iteration      1(  12)  ---------------------------------------


    POTLOK:  cpu time    0.1457: real time    0.1507
    SETDIJ:  cpu time    0.0089: real time    0.0090
     EDDAV:  cpu time   17.3083: real time   17.3257
 BZINTS: Fermi energy: -3.441110;280.000000 electrons
         Band energy:***********;  BLOECHL correction:  0.000000
       DOS:  cpu time    0.0160: real time    0.0160
    CHARGE:  cpu time    0.2890: real time    0.2890
    MIXING:  cpu time    0.0052: real time    0.0053
    --------------------------------------------
      LOOP:  cpu time   17.7733: real time   17.7959

 eigenvalue-minimisations  :  4152
 total energy-change (2. order) : 0.2440530E+01  (-0.9995416E-01)
 number of electron     280.0000074 magnetization       0.0000000
 augmentation part       18.2837941 magnetization      -0.0001354

 Broyden mixing:
  rms(total) = 0.67312E+00    rms(broyden)= 0.67307E+00
  rms(prec ) = 0.89382E+00
  weight for this iteration     100.00

 eigenvalues of (default mixing * dielectric matrix)
  average eigenvalue GAMMA=   1.2925
  3.7105  1.4740  1.0443  1.0443  1.0042  0.3850  0.3850

 Free energy of the ion-electron system (eV)
  ---------------------------------------------------
  alpha Z        PSCENC =       116.22571397
  Ewald energy   TEWEN  =     28926.30552264
  -Hartree energ DENC   =    -41483.31067193
  -exchange      EXHF   =         0.00000000
  -V(xc)+E(xc)   XCENC  =      1093.51151797
  PAW double counting   =     28912.63973327   -29412.48629115
  entropy T*S    EENTRO =         0.00000000
  eigenvalues    EBANDS =     -3810.75059424
  atomic energy  EATOM  =     15171.73615219
  Solvation  Ediel_sol  =         0.00000000
  ---------------------------------------------------
  free energy    TOTEN  =      -486.12891730 eV

  energy without entropy =     -486.12891730  energy(sigma->0) =     -486.12891730


--------------------------------------------------------------------------------------------------------




--------------------------------------- Iteration      1(  13)  ---------------------------------------


    POTLOK:  cpu time    0.1430: real time    0.1513
    SETDIJ:  cpu time    0.0089: real time    0.0089
     EDDAV:  cpu time   18.5305: real time   18.5414
 BZINTS: Fermi energy: -3.811203;280.000000 electrons
         Band energy:***********;  BLOECHL correction:  0.000000
       DOS:  cpu time    0.0169: real time    0.0176
    CHARGE:  cpu time    0.2855: real time    0.2855
    MIXING:  cpu time    0.0055: real time    0.0055
    --------------------------------------------
      LOOP:  cpu time   18.9902: real time   19.0102

 eigenvalue-minimisations  :  4536
 total energy-change (2. order) :-0.4458072E+00  (-0.2012729E+01)
 number of electron     280.0000075 magnetization      -0.0000000
 augmentation part       18.2866601 magnetization      -0.0000558

 Broyden mixing:
  rms(total) = 0.69143E+00    rms(broyden)= 0.68996E+00
  rms(prec ) = 0.93222E+00
  weight for this iteration     100.00

 eigenvalues of (default mixing * dielectric matrix)
  average eigenvalue GAMMA=   1.2356
  3.8307  1.4171  1.4171  0.9718  0.7301  0.7301  0.3939  0.3939

 Free energy of the ion-electron system (eV)
  ---------------------------------------------------
  alpha Z        PSCENC =       116.22571397
  Ewald energy   TEWEN  =     28926.30552264
  -Hartree energ DENC   =    -41470.09287651
  -exchange      EXHF   =         0.00000000
  -V(xc)+E(xc)   XCENC  =      1092.92829494
  PAW double counting   =     29019.00294496   -29518.83482466
  entropy T*S    EENTRO =         0.00000000
  eigenvalues    EBANDS =     -3823.84565202
  atomic energy  EATOM  =     15171.73615219
  Solvation  Ediel_sol  =         0.00000000
  ---------------------------------------------------
  free energy    TOTEN  =      -486.57472451 eV

  energy without entropy =     -486.57472451  energy(sigma->0) =     -486.57472451


--------------------------------------------------------------------------------------------------------




--------------------------------------- Iteration      1(  14)  ---------------------------------------


    POTLOK:  cpu time    0.1476: real time    0.1496
    SETDIJ:  cpu time    0.0090: real time    0.0090
     EDDAV:  cpu time   17.3881: real time   17.4024
 BZINTS: Fermi energy: -3.304826;280.000000 electrons
         Band energy:***********;  BLOECHL correction:  0.000000
       DOS:  cpu time    0.0156: real time    0.0156
    CHARGE:  cpu time    0.2886: real time    0.2886
    MIXING:  cpu time    0.0058: real time    0.0058
    --------------------------------------------
      LOOP:  cpu time   17.8547: real time   17.8710

 eigenvalue-minimisations  :  4184
 total energy-change (2. order) : 0.9471729E+00  (-0.5371261E-01)
 number of electron     280.0000075 magnetization       0.0000000
 augmentation part       18.2769914 magnetization       0.0000587

 Broyden mixing:
  rms(total) = 0.60393E+00    rms(broyden)= 0.60386E+00
  rms(prec ) = 0.80910E+00
  weight for this iteration     100.00

 eigenvalues of (default mixing * dielectric matrix)
  average eigenvalue GAMMA=   1.2001
  3.7951  1.5378  1.2350  1.2350  0.7371  0.7371  0.7478  0.3881  0.3881

 Free energy of the ion-electron system (eV)
  ---------------------------------------------------
  alpha Z        PSCENC =       116.22571397
  Ewald energy   TEWEN  =     28926.30552264
  -Hartree energ DENC   =    -41459.09052606
  -exchange      EXHF   =         0.00000000
  -V(xc)+E(xc)   XCENC  =      1092.71398001
  PAW double counting   =     29252.43194853   -29752.08452196
  entropy T*S    EENTRO =         0.00000000
  eigenvalues    EBANDS =     -3833.86582088
  atomic energy  EATOM  =     15171.73615219
  Solvation  Ediel_sol  =         0.00000000
  ---------------------------------------------------
  free energy    TOTEN  =      -485.62755157 eV

  energy without entropy =     -485.62755157  energy(sigma->0) =     -485.62755157


--------------------------------------------------------------------------------------------------------




--------------------------------------- Iteration      1(  15)  ---------------------------------------


    POTLOK:  cpu time    0.1455: real time    0.1503
    SETDIJ:  cpu time    0.0090: real time    0.0090
     EDDAV:  cpu time   18.2913: real time   18.2991
 BZINTS: Fermi energy: -3.239810;280.000000 electrons
         Band energy:***********;  BLOECHL correction:  0.000000
       DOS:  cpu time    0.0158: real time    0.0158
    CHARGE:  cpu time    0.2903: real time    0.2903
    MIXING:  cpu time    0.0060: real time    0.0060
    --------------------------------------------
      LOOP:  cpu time   18.7578: real time   18.7705

 eigenvalue-minimisations  :  4456
 total energy-change (2. order) :-0.5790534E-01  (-0.7555822E+00)
 number of electron     280.0000075 magnetization       0.0000000
 augmentation part       18.3063149 magnetization       0.0000470

 Broyden mixing:
  rms(total) = 0.57507E+00    rms(broyden)= 0.57354E+00
  rms(prec ) = 0.77403E+00
  weight for this iteration     100.00

 eigenvalues of (default mixing * dielectric matrix)
  average eigenvalue GAMMA=   1.1170
  3.7742  1.4478  1.2447  1.2447  0.7378  0.7378  0.3878  0.3878  0.6037  0.6037

 Free energy of the ion-electron system (eV)
  ---------------------------------------------------
  alpha Z        PSCENC =       116.22571397
  Ewald energy   TEWEN  =     28926.30552264
  -Hartree energ DENC   =    -41453.60366561
  -exchange      EXHF   =         0.00000000
  -V(xc)+E(xc)   XCENC  =      1092.58279784
  PAW double counting   =     29253.86159398   -29753.39522388
  entropy T*S    EENTRO =         0.00000000
  eigenvalues    EBANDS =     -3839.39834805
  atomic energy  EATOM  =     15171.73615219
  Solvation  Ediel_sol  =         0.00000000
  ---------------------------------------------------
  free energy    TOTEN  =      -485.68545691 eV

  energy without entropy =     -485.68545691  energy(sigma->0) =     -485.68545691


--------------------------------------------------------------------------------------------------------




--------------------------------------- Iteration      1(  16)  ---------------------------------------


    POTLOK:  cpu time    0.1499: real time    0.1514
    SETDIJ:  cpu time    0.0091: real time    0.0091
     EDDAV:  cpu time   16.8299: real time   16.8400
 BZINTS: Fermi energy: -3.166042;280.000000 electrons
         Band energy:***********;  BLOECHL correction:  0.000000
       DOS:  cpu time    0.0158: real time    0.0158
    CHARGE:  cpu time    0.2892: real time    0.2893
    MIXING:  cpu time    0.0062: real time    0.0062
    --------------------------------------------
      LOOP:  cpu time   17.3001: real time   17.3118

 eigenvalue-minimisations  :  4000
 total energy-change (2. order) : 0.2309423E+00  (-0.1212759E-01)
 number of electron     280.0000075 magnetization       0.0000000
 augmentation part       18.3026180 magnetization       0.0000754

 Broyden mixing:
  rms(total) = 0.51981E+00    rms(broyden)= 0.51976E+00
  rms(prec ) = 0.69876E+00
  weight for this iteration     100.00

 eigenvalues of (default mixing * dielectric matrix)
  average eigenvalue GAMMA=   1.1592
  3.6739  1.5016  1.5016  1.3953  1.0306  1.0306  0.7021  0.3878  0.3878  0.5699
  0.5699

 Free energy of the ion-electron system (eV)
  ---------------------------------------------------
  alpha Z        PSCENC =       116.22571397
  Ewald energy   TEWEN  =     28926.30552264
  -Hartree energ DENC   =    -41452.03928550
  -exchange      EXHF   =         0.00000000
  -V(xc)+E(xc)   XCENC  =      1092.50421959
  PAW double counting   =     29253.78015491   -29753.33504457
  entropy T*S    EENTRO =         0.00000000
  eigenvalues    EBANDS =     -3840.63194780
  atomic energy  EATOM  =     15171.73615219
  Solvation  Ediel_sol  =         0.00000000
  ---------------------------------------------------
  free energy    TOTEN  =      -485.45451458 eV

  energy without entropy =     -485.45451458  energy(sigma->0) =     -485.45451458


--------------------------------------------------------------------------------------------------------




--------------------------------------- Iteration      1(  17)  ---------------------------------------


    POTLOK:  cpu time    0.1470: real time    0.1569
    SETDIJ:  cpu time    0.0090: real time    0.0090
     EDDAV:  cpu time   19.2585: real time   19.2675
 BZINTS: Fermi energy: -3.116029;280.000000 electrons
         Band energy:***********;  BLOECHL correction:  0.000000
       DOS:  cpu time    0.0153: real time    0.0153
    CHARGE:  cpu time    0.2914: real time    0.2916
    MIXING:  cpu time    0.0066: real time    0.0066
    --------------------------------------------
      LOOP:  cpu time   19.7277: real time   19.7469

 eigenvalue-minimisations  :  4736
 total energy-change (2. order) : 0.1470025E+00  (-0.1454120E-01)
 number of electron     280.0000075 magnetization      -0.0000000
 augmentation part       18.3020650 magnetization       0.0003133

 Broyden mixing:
  rms(total) = 0.34465E+00    rms(broyden)= 0.34460E+00
  rms(prec ) = 0.46320E+00
  weight for this iteration     100.00

 eigenvalues of (default mixing * dielectric matrix)
  average eigenvalue GAMMA=   1.1972
  3.6810  2.0296  2.0296  1.2812  0.6026  0.6026  0.9143  0.9143  0.7675  0.7675
  0.3880  0.3880

 Free energy of the ion-electron system (eV)
  ---------------------------------------------------
  alpha Z        PSCENC =       116.22571397
  Ewald energy   TEWEN  =     28926.30552264
  -Hartree energ DENC   =    -41447.38118243
  -exchange      EXHF   =         0.00000000
  -V(xc)+E(xc)   XCENC  =      1092.34566448
  PAW double counting   =     29231.10884400   -29730.64198948
  entropy T*S    EENTRO =         0.00000000
  eigenvalues    EBANDS =     -3845.00623739
  atomic energy  EATOM  =     15171.73615219
  Solvation  Ediel_sol  =         0.00000000
  ---------------------------------------------------
  free energy    TOTEN  =      -485.30751203 eV

  energy without entropy =     -485.30751203  energy(sigma->0) =     -485.30751203


--------------------------------------------------------------------------------------------------------




--------------------------------------- Iteration      1(  18)  ---------------------------------------


    POTLOK:  cpu time    0.1480: real time    0.1499
    SETDIJ:  cpu time    0.0090: real time    0.0090
     EDDAV:  cpu time   19.6778: real time   19.6902
 BZINTS: Fermi energy: -3.199800;280.000000 electrons
         Band energy:***********;  BLOECHL correction:  0.000000
       DOS:  cpu time    0.0154: real time    0.0154
    CHARGE:  cpu time    0.2903: real time    0.2903
    MIXING:  cpu time    0.0068: real time    0.0068
    --------------------------------------------
      LOOP:  cpu time   20.1473: real time   20.1616

 eigenvalue-minimisations  :  4880
 total energy-change (2. order) :-0.2432375E+00  (-0.5043429E+00)
 number of electron     280.0000075 magnetization      -0.0000000
 augmentation part       18.2937313 magnetization      -0.0004223

 Broyden mixing:
  rms(total) = 0.59330E+00    rms(broyden)= 0.59218E+00
  rms(prec ) = 0.79802E+00
  weight for this iteration     100.00

 eigenvalues of (default mixing * dielectric matrix)
  average eigenvalue GAMMA=   1.2448
  3.6151  2.6627  2.6627  1.2831  0.9669  0.9669  0.9927  0.5834  0.5834  0.3882
  0.3882  0.5443  0.5443

 Free energy of the ion-electron system (eV)
  ---------------------------------------------------
  alpha Z        PSCENC =       116.22571397
  Ewald energy   TEWEN  =     28926.30552264
  -Hartree energ DENC   =    -41445.09704814
  -exchange      EXHF   =         0.00000000
  -V(xc)+E(xc)   XCENC  =      1092.26101564
  PAW double counting   =     29262.64416243   -29762.15282173
  entropy T*S    EENTRO =         0.00000000
  eigenvalues    EBANDS =     -3847.47344650
  atomic energy  EATOM  =     15171.73615219
  Solvation  Ediel_sol  =         0.00000000
  ---------------------------------------------------
  free energy    TOTEN  =      -485.55074950 eV

  energy without entropy =     -485.55074950  energy(sigma->0) =     -485.55074950


--------------------------------------------------------------------------------------------------------




--------------------------------------- Iteration      1(  19)  ---------------------------------------


    POTLOK:  cpu time    0.1438: real time    0.1523
    SETDIJ:  cpu time    0.0091: real time    0.0091
     EDDAV:  cpu time   16.6570: real time   16.6656
 BZINTS: Fermi energy: -3.081020;280.000000 electrons
         Band energy:***********;  BLOECHL correction:  0.000000
       DOS:  cpu time    0.0157: real time    0.0157
    CHARGE:  cpu time    0.2878: real time    0.2879
    MIXING:  cpu time    0.0072: real time    0.0072
    --------------------------------------------
      LOOP:  cpu time   17.1205: real time   17.1376

 eigenvalue-minimisations  :  3952
 total energy-change (2. order) : 0.1572677E+00  (-0.5661717E-02)
 number of electron     280.0000075 magnetization       0.0000000
 augmentation part       18.2947200 magnetization      -0.0004405

 Broyden mixing:
  rms(total) = 0.56655E+00    rms(broyden)= 0.56651E+00
  rms(prec ) = 0.76323E+00
  weight for this iteration     100.00

 eigenvalues of (default mixing * dielectric matrix)
  average eigenvalue GAMMA=   1.2992
  3.5519  3.1431  3.1431  1.2901  1.0039  1.0039  0.6049  0.6049  1.0032  0.8446
  0.3879  0.3879  0.6100  0.6100

 Free energy of the ion-electron system (eV)
  ---------------------------------------------------
  alpha Z        PSCENC =       116.22571397
  Ewald energy   TEWEN  =     28926.30552264
  -Hartree energ DENC   =    -41442.87536407
  -exchange      EXHF   =         0.00000000
  -V(xc)+E(xc)   XCENC  =      1092.22290663
  PAW double counting   =     29268.80588505   -29768.26272014
  entropy T*S    EENTRO =         0.00000000
  eigenvalues    EBANDS =     -3849.55157809
  atomic energy  EATOM  =     15171.73615219
  Solvation  Ediel_sol  =         0.00000000
  ---------------------------------------------------
  free energy    TOTEN  =      -485.39348183 eV

  energy without entropy =     -485.39348183  energy(sigma->0) =     -485.39348183


--------------------------------------------------------------------------------------------------------




--------------------------------------- Iteration      1(  20)  ---------------------------------------


    POTLOK:  cpu time    0.1437: real time    0.1506
[...]
   -.301E+02 0.102E+03 0.904E+02   0.294E+02 -.105E+03 -.909E+02   0.396E+00 0.309E+01 0.440E+00   -.138E+00 -.797E-02 0.416E-01
   -.438E+02 -.689E+02 0.730E+02   0.470E+02 0.681E+02 -.728E+02   -.318E+01 0.779E+00 -.187E+00   -.899E-01 0.150E+00 -.156E-01
   0.527E+02 -.638E+02 0.114E+02   -.533E+02 0.610E+02 -.113E+02   0.571E+00 0.276E+01 -.151E+00   -.175E-01 0.101E-01 -.343E-02
   0.780E+02 -.344E+02 0.281E+02   -.751E+02 0.363E+02 -.280E+02   -.283E+01 -.191E+01 -.568E-01   -.287E-01 -.526E-03 -.298E-02
   -.196E+02 -.120E+02 -.306E+01   0.174E+02 0.127E+02 0.292E+01   0.222E+01 -.668E+00 0.147E+00   -.276E-01 0.440E-01 -.833E-02
   -.381E+02 0.395E+01 -.178E+02   0.378E+02 -.117E+01 0.185E+02   0.133E+00 -.271E+01 -.653E+00   -.389E-01 -.211E-01 0.955E-02
   -.196E+02 -.660E+01 0.920E+02   0.188E+02 0.417E+01 -.926E+02   0.623E+00 0.245E+01 0.568E+00   -.325E-01 -.459E-02 -.829E-02
   0.414E+02 0.594E+01 -.223E+02   -.407E+02 -.381E+01 0.223E+02   -.660E+00 -.211E+01 0.975E-02   0.271E-02 -.234E-01 -.465E-02
   0.222E+02 -.631E+02 -.123E+02   -.215E+02 0.632E+02 0.112E+02   -.781E+00 0.110E-02 0.108E+01   0.230E-01 -.108E-01 0.184E-01
   0.698E+02 0.166E+02 0.828E+01   -.695E+02 -.173E+02 -.732E+01   -.212E+00 0.662E+00 -.969E+00   0.275E-01 0.827E-02 0.731E-02
   -.161E+03 0.140E+03 0.259E+03   0.166E+03 -.145E+03 -.262E+03   -.610E+01 0.498E+01 0.308E+01   -.261E-01 0.119E-02 0.252E-01
   0.760E+02 -.688E+02 0.893E+01   -.792E+02 0.671E+02 -.834E+01   0.314E+01 0.155E+01 -.576E+00   0.745E-01 0.165E+00 -.234E-01
   0.291E+02 0.106E+03 0.189E+02   -.298E+02 -.109E+03 -.192E+02   0.657E+00 0.309E+01 0.300E+00   0.407E-01 -.159E-01 -.482E-03
   -.846E+02 -.468E+02 -.426E+02   0.867E+02 0.491E+02 0.432E+02   -.232E+01 -.203E+01 -.593E+00   0.153E-01 0.272E-01 0.626E-02
   -.439E+02 -.359E+02 -.254E+02   0.452E+02 0.350E+02 0.261E+02   -.159E+01 0.903E+00 -.705E+00   0.620E-02 0.713E-02 0.147E-01
   0.239E+02 -.451E+01 -.447E+02   -.226E+02 0.367E+01 0.430E+02   -.106E+01 0.100E+01 0.182E+01   0.760E-01 0.807E-01 -.819E-02
   -.165E+03 0.496E+02 -.557E+02   0.170E+03 -.543E+02 0.584E+02   -.586E+01 0.471E+01 -.272E+01   -.499E-01 0.731E-01 -.214E-01
   0.119E+03 -.259E+02 0.356E+02   -.122E+03 0.260E+02 -.359E+02   0.336E+01 -.928E-01 0.283E+00   0.131E-01 0.975E-02 0.551E-03
   0.717E+01 0.581E+02 -.813E+02   -.747E+01 -.609E+02 0.821E+02   0.330E+00 0.287E+01 -.900E+00   0.976E-02 0.727E-01 -.170E-01
   -.103E+03 -.873E+01 0.116E+03   0.105E+03 0.108E+02 -.117E+03   -.275E+01 -.186E+01 0.127E+01   -.401E-01 0.645E-01 0.393E-01
   0.124E+02 0.228E+03 0.347E+02   -.128E+02 -.255E+03 -.376E+02   0.563E+00 0.274E+02 0.287E+01   -.192E-01 -.191E+00 -.319E-01
   -.172E+03 -.132E+03 0.154E+03   0.204E+03 0.147E+03 -.164E+03   -.315E+02 -.151E+02 0.997E+01   -.315E+00 0.997E-01 0.544E-01
   0.154E+03 -.186E+03 -.712E+02   -.181E+03 0.206E+03 0.782E+02   0.271E+02 -.199E+02 -.698E+01   -.479E-01 -.745E-03 0.436E-03
   -.359E+02 0.268E+03 0.237E+03   0.312E+02 -.302E+03 -.242E+03   0.569E+01 0.339E+02 0.459E+01   -.182E+00 -.133E+00 0.256E-01
   -.372E+01 0.249E+03 0.112E+03   -.407E+01 -.283E+03 -.119E+03   0.813E+01 0.347E+02 0.599E+01   -.144E+00 -.125E+00 0.138E-01
   0.156E+03 -.168E+03 -.171E+02   -.179E+03 0.192E+03 0.159E+02   0.236E+02 -.241E+02 0.117E+01   -.127E-01 -.140E-02 0.205E-01
   -.147E+03 -.128E+03 0.179E+03   0.178E+03 0.142E+03 -.193E+03   -.306E+02 -.145E+02 0.137E+02   -.103E+00 0.733E-01 0.338E-02
   0.208E+02 -.143E+02 0.116E+02   -.211E+02 0.124E+02 -.119E+02   0.340E+00 0.164E+01 0.342E+00   0.208E-02 0.186E+00 -.330E-01
   -.313E+01 -.230E+02 0.146E+02   0.709E+01 0.219E+02 -.149E+02   -.392E+01 0.113E+01 0.315E+00   -.349E-01 0.159E-01 -.183E-02
   -.326E+02 -.119E+03 -.134E+03   0.583E+02 0.138E+03 0.145E+03   -.257E+02 -.196E+02 -.105E+02   -.245E-01 -.140E-01 -.605E-02
   -.222E+02 0.336E+02 -.422E+01   0.801E+01 -.243E+02 0.959E+01   0.143E+02 -.921E+01 -.530E+01   -.519E-01 -.637E-01 -.475E-02
   -.757E+02 0.100E+03 0.138E+03   0.743E+02 -.129E+03 -.146E+03   0.209E+01 0.293E+02 0.818E+01   -.556E-01 0.976E-02 -.255E-01
   0.214E+02 0.101E+03 0.207E+03   -.251E+02 -.134E+03 -.217E+03   0.386E+01 0.338E+02 0.953E+01   -.311E-01 0.135E-01 -.351E-02
   0.264E+00 -.139E+03 -.165E+03   -.188E+02 0.162E+03 0.180E+03   0.188E+02 -.228E+02 -.155E+02   0.194E-02 -.248E-01 0.125E-01
   0.309E+01 0.399E+02 0.330E+01   0.141E+02 -.314E+02 -.133E+01   -.172E+02 -.839E+01 -.193E+01   0.217E-02 -.709E-01 -.173E-01
   0.805E+02 0.468E+02 0.330E+01   -.837E+02 -.491E+02 -.304E+01   0.318E+01 0.222E+01 -.298E+00   0.150E-01 -.109E-01 -.208E-02
   0.122E+03 -.753E+02 -.786E+00   -.147E+03 0.915E+02 -.200E+01   0.252E+02 -.163E+02 0.279E+01   0.243E-01 -.335E-02 0.278E-01
   -.195E+03 -.958E+02 -.106E+03   0.226E+03 0.111E+03 0.113E+03   -.310E+02 -.158E+02 -.716E+01   0.977E-02 0.135E-01 0.475E-02
   0.216E+03 -.109E+03 -.390E+01   -.251E+03 0.119E+03 0.357E+01   0.345E+02 -.994E+01 0.360E+00   0.115E+00 0.103E+00 -.148E-01
   0.316E+02 0.278E+03 0.457E+02   -.282E+02 -.314E+03 -.497E+02   -.358E+01 0.352E+02 0.403E+01   0.843E-01 -.692E-01 -.116E-01
   0.847E+01 0.233E+03 0.509E+02   -.790E+01 -.268E+03 -.537E+02   -.722E+00 0.352E+02 0.277E+01   0.397E-01 -.128E-01 0.894E-03
   0.231E+03 -.119E+03 0.544E-01   -.266E+03 0.130E+03 0.522E+01   0.340E+02 -.120E+02 -.518E+01   0.307E+00 0.140E+00 -.634E-01
   -.239E+03 -.103E+03 -.157E+03   0.268E+03 0.116E+03 0.169E+03   -.292E+02 -.135E+02 -.113E+02   -.235E-01 0.554E-01 -.145E-01
   -.177E+02 -.612E+02 0.319E+02   0.179E+02 0.630E+02 -.330E+02   -.800E-01 -.181E+01 0.115E+01   -.216E-01 0.104E-01 -.323E-02
   0.740E+02 -.101E+03 -.860E+02   -.967E+02 0.115E+03 0.914E+02   0.224E+02 -.147E+02 -.540E+01   0.689E-01 0.134E-01 0.595E-02
   -.228E+03 -.819E+02 0.169E+03   0.259E+03 0.977E+02 -.178E+03   -.311E+02 -.161E+02 0.931E+01   0.374E-01 0.582E-01 -.107E-02
   0.239E+03 -.550E+02 0.393E+02   -.272E+03 0.649E+02 -.428E+02   0.329E+02 -.999E+01 0.351E+01   0.200E-01 0.110E-01 0.107E-01
   0.268E+02 0.159E+03 -.227E+03   -.227E+02 -.190E+03 0.244E+03   -.412E+01 0.316E+02 -.165E+02   -.581E-02 0.480E-01 -.150E-01
   -.114E+02 0.206E+03 -.181E+03   0.117E+02 -.241E+03 0.191E+03   -.436E+00 0.341E+02 -.997E+01   0.239E-01 0.463E-01 -.635E-02
   0.224E+03 -.407E+02 0.148E+03   -.254E+03 0.547E+02 -.160E+03   0.293E+02 -.140E+02 0.113E+02   0.982E-03 0.121E-01 0.937E-03
   -.255E+03 -.370E+02 0.290E+03   0.285E+03 0.497E+02 -.301E+03   -.301E+02 -.134E+02 0.104E+02   0.733E-01 0.155E+00 0.304E-01
   -.709E+02 0.381E+02 0.617E+02   0.735E+02 -.398E+02 -.624E+02   -.226E+01 0.162E+01 0.479E+00   -.836E-01 0.200E-01 0.367E-01
   -.622E+02 -.299E+03 -.506E+03   0.623E+02 0.320E+03 0.522E+03   -.550E-02 -.215E+02 -.155E+02   -.680E-01 -.138E+00 -.413E-02
   -.627E+02 0.105E+03 -.158E+03   0.691E+02 -.112E+03 0.133E+03   -.635E+01 0.638E+01 0.241E+02   -.554E-02 -.217E-01 -.933E-04
   0.500E+02 -.106E+02 -.615E+03   -.647E+02 0.233E+02 0.673E+03   0.147E+02 -.127E+02 -.572E+02   -.510E-02 -.185E-01 0.101E-03
 -----------------------------------------------------------------------------------------------
   -.383E+02 -.229E+02 0.398E+02   -.711E-13 -.234E-12 0.114E-12   0.390E+02 0.221E+02 -.398E+02   -.692E+00 0.693E+00 0.247E-01


 POSITION                                       TOTAL-FORCE (eV/Angst)
 -----------------------------------------------------------------------------------
     -0.01345      2.17863      7.86823         0.072008      0.105890     -0.024196
      1.11145      5.39814      8.06268        -0.193889      0.102035      0.034541
     -1.30582      5.41540      8.29729        -0.019347      0.082859      0.014664
      6.36540      0.80683      8.22955        -0.027118      0.043300      0.017525
      3.30110      5.04055      7.39367        -0.507440      0.133852      0.010621
      1.32811      0.48247      7.85238        -0.028795      0.091466     -0.000378
     -3.86916      9.27377      8.25441         0.010840     -0.053634     -0.013995
     -2.52914     11.66871      8.09628        -0.029928     -0.038228     -0.000753
     -5.08602     11.46478      8.24128        -0.013637      0.066074     -0.002180
      2.66110      7.23213      8.22765        -0.203788      0.048595      0.073877
     -0.27555     11.43941      7.99806        -0.239706     -0.007287      0.000316
     -2.62697      7.37955      8.48890         0.031537     -0.014511     -0.025930
      7.90572      2.67033      8.27630        -0.059956      0.151621     -0.042710
      9.26378      4.77423      8.09573         0.051455      0.039254      0.004439
      5.38359      4.89620      6.59218        -0.388031      0.153920      0.251629
     14.08817      0.15262      8.21254        -0.000060      0.086048     -0.001720
     11.60082      4.95775      8.17645         0.040706      0.003488     -0.005134
      8.76620      0.53006      8.50191        -0.150262      0.296396     -0.042995
      4.21557      8.95593      8.23833        -0.285693      0.081744      0.094716
      5.56814     10.92358      8.52041         0.205715      0.223007      0.048853
      1.89997     11.26884      8.52344        -0.179733      0.016043     -0.028923
     10.21832      6.98387      8.07291         0.078993      0.027225      0.024349
      7.87748     11.07880      8.60235         0.042185      0.043224     -0.022078
      4.87221      6.95760      7.31109        -0.078027      0.271637      0.246785
     -0.10274      4.80966      8.15635         0.094974     -0.016374     -0.051081
      1.17482      1.85220      7.64441         0.148881     -0.068082     -0.016786
      5.13349      0.13034      8.31245        -0.012902      0.015924     -0.001309
      4.25764      4.27028      6.86606         0.813162      0.185083     -0.081154
      2.08063      4.58439      7.63632         0.190143     -0.007540     -0.093957
      6.57938      2.13129      8.22350         0.014715     -0.043437     -0.018235
     -5.14098     12.73383      7.74152         0.063366     -0.071330      0.029086
     -7.45642     12.65494      8.19380        -0.015132     -0.093114      0.028756
     -3.82622     10.81513      8.19591         0.002416      0.021478     -0.006678
     -2.70689      8.69684      8.64084         0.021828      0.073140      0.028684
      1.37060      6.74530      8.37363         0.113647     -0.065508      0.048437
      0.82062     10.64679      8.07585         0.585368      0.223853      0.132326
     -1.47398     10.89595      7.80487         0.119041      0.039215      0.008767
      2.95266      8.45863      8.58128         0.212676      0.046486     -0.110275
     -1.39436      6.79745      8.52814        -0.021382      0.000617      0.014392
     -3.73464      6.59068      8.26921        -0.028194     -0.049700     -0.038729
      8.09714      4.03228      8.12890         0.015258     -0.127644      0.024259
      8.94649      1.82780      8.55080        -0.002426     -0.140904      0.027507
      5.41762     12.29819      8.33875        -0.101301     -0.118179      0.010955
     -2.38591      4.64237      8.17592        -0.027102     -0.039939     -0.013416
     10.51785      4.20755      8.07446        -0.112260      0.018508      0.023712
     14.06253      1.56205      8.10480        -0.191066     -0.156119      0.031332
      2.15914     12.51030      8.75478         0.067115     -0.456436     -0.092372
      7.49685     -0.04907      8.20760         0.168772     -0.048739      0.014295
      4.42263     10.24506      8.50983        -0.242066     -0.174586     -0.024339
      5.13221      8.22408      7.55888         0.105988     -0.187925      0.032266
      9.14627      6.19973      8.01730        -0.059120     -0.050011      0.025400
     -6.10513     10.80187      8.77259        -0.069232     -0.034296      0.006395
      6.78628     10.36152      8.78616        -0.148456     -0.062677      0.027256
     -4.96609      8.58756      7.92137        -0.074404      0.037688      0.037320
      5.75976      6.13596      6.71456        -0.049040     -0.556445     -0.381101
      3.61224      6.39176      7.66625         0.232100     -0.090823     -0.176972
      0.08259      8.14960      9.13081         0.012049      0.065152     -0.043287
     -0.14989      6.74130     11.43780         0.097648     -0.080113     -0.180118
     -0.42954      6.98496     12.52029        -0.053092      0.058759      0.167342
 -----------------------------------------------------------------------------------
    total drift:                                0.021458     -0.064240      0.001816


--------------------------------------------------------------------------------------------------------



  FREE ENERGIE OF THE ION-ELECTRON SYSTEM (eV)
  ---------------------------------------------------
  free  energy   TOTEN  =      -489.02215280 eV

  energy  without entropy=     -489.02215280  energy(sigma->0) =     -489.02215280



--------------------------------------------------------------------------------------------------------


    POTLOK:  cpu time    0.1478: real time    0.1554


--------------------------------------------------------------------------------------------------------


     LOOP+:  cpu time  689.2021: real time  689.9106
    4ORBIT:  cpu time    0.0000: real time    0.0000



 total charge     

# of ion       s       p       d       tot
------------------------------------------
    1        0.905   1.732   0.000   2.637
    2        0.851   1.704   0.000   2.555
    3        0.852   1.709   0.000   2.560
    4        0.839   1.659   0.000   2.498
    5        0.863   1.722   0.000   2.585
    6        0.851   1.706   0.000   2.556
    7        0.829   1.643   0.000   2.472
    8        0.831   1.641   0.000   2.472
    9        0.849   1.705   0.000   2.554
   10        0.858   1.736   0.000   2.594
   11        0.859   1.721   0.000   2.580
   12        0.859   1.740   0.000   2.599
   13        0.833   1.631   0.000   2.465
   14        0.831   1.625   0.000   2.456
   15        0.880   1.645   0.000   2.525
   16        0.852   1.708   0.000   2.560
   17        0.858   1.713   0.000   2.571
   18        0.861   1.709   0.000   2.570
   19        0.852   1.706   0.000   2.558
   20        0.851   1.698   0.000   2.549
   21        0.876   1.656   0.000   2.532
   22        0.842   1.670   0.000   2.512
   23        0.860   1.713   0.000   2.573
   24        0.863   1.713   0.000   2.576
   25        1.248   2.633   0.000   3.881
   26        1.260   2.650   0.000   3.911
   27        1.248   2.587   0.000   3.835
   28        1.267   2.634   0.000   3.901
   29        1.273   2.663   0.000   3.935
   30        1.253   2.564   0.000   3.818
   31        1.270   2.648   0.000   3.918
   32        1.223   2.719   0.000   3.942
   33        1.198   2.585   0.000   3.784
   34        1.262   2.656   0.000   3.918
   35        1.231   2.647   0.000   3.878
   36        1.255   2.631   0.000   3.886
   37        1.268   2.658   0.000   3.926
   38        1.264   2.629   0.000   3.892
   39        1.237   2.656   0.000   3.893
   40        1.226   2.728   0.000   3.955
   41        1.237   2.589   0.000   3.826
   42        1.273   2.631   0.000   3.904
   43        1.274   2.632   0.000   3.906
   44        1.268   2.639   0.000   3.908
   45        1.269   2.617   0.000   3.886
   46        1.264   2.637   0.000   3.901
   47        1.268   2.634   0.000   3.902
   48        1.225   2.714   0.000   3.939
   49        1.253   2.668   0.000   3.921
   50        1.275   2.639   0.000   3.914
   51        1.258   2.570   0.000   3.828
   52        1.269   2.646   0.000   3.914
   53        1.269   2.627   0.000   3.896
   54        1.251   2.598   0.000   3.849
   55        1.268   2.636   0.000   3.905
   56        1.224   2.737   0.000   3.961
   57        1.340   0.692  10.048  12.080
   58        1.024   1.462   0.000   2.487
   59        1.640   3.531   0.000   5.171
--------------------------------------------------
tot         64.635 130.794  10.048 205.478



 magnetization (x)

# of ion       s       p       d       tot
------------------------------------------
    1       -0.000  -0.000   0.000  -0.000
    2        0.000   0.000   0.000   0.000
    3        0.000   0.000   0.000   0.000
    4       -0.000  -0.000   0.000  -0.000
    5        0.000   0.001   0.000   0.001
    6        0.000   0.000   0.000   0.000
    7        0.000   0.000   0.000   0.000
    8       -0.000  -0.000   0.000  -0.000
    9       -0.000  -0.000   0.000  -0.000
   10        0.000  -0.000   0.000  -0.000
   11       -0.000  -0.001   0.000  -0.001
   12       -0.000  -0.000   0.000  -0.000
   13       -0.000  -0.000   0.000  -0.000
   14        0.000   0.000   0.000   0.000
   15        0.003   0.009   0.000   0.012
   16       -0.000  -0.000   0.000  -0.000
   17       -0.000   0.000   0.000   0.000
   18       -0.000  -0.001   0.000  -0.001
   19        0.000  -0.000   0.000  -0.000
   20       -0.000  -0.000   0.000  -0.000
   21       -0.003  -0.009   0.000  -0.012
   22        0.000   0.000   0.000   0.000
   23       -0.000  -0.000   0.000  -0.000
   24        0.001   0.001   0.000   0.001
   25        0.000   0.000   0.000   0.000
   26        0.000   0.000   0.000   0.000
   27        0.000  -0.000   0.000  -0.000
   28        0.001   0.002   0.000   0.003
   29        0.000   0.000   0.000   0.000
   30        0.000   0.000   0.000   0.000
   31        0.000   0.000   0.000   0.000
   32        0.000  -0.000   0.000  -0.000
   33       -0.000  -0.000   0.000  -0.000
   34        0.000   0.000   0.000   0.000
   35        0.000   0.000   0.000   0.000
   36       -0.001  -0.001   0.000  -0.001
   37       -0.000  -0.000   0.000  -0.000
   38       -0.000   0.000   0.000  -0.000
   39        0.000   0.000   0.000   0.000
   40        0.000   0.000   0.000   0.000
   41        0.000   0.000   0.000   0.000
   42       -0.000  -0.000   0.000  -0.000
   43       -0.000  -0.000   0.000  -0.000
   44        0.000   0.000   0.000   0.000
   45        0.000   0.000   0.000   0.000
   46        0.000   0.000   0.000   0.000
   47       -0.001  -0.002   0.000  -0.003
   48       -0.000  -0.000   0.000  -0.000
   49       -0.000  -0.001   0.000  -0.001
   50        0.000  -0.000   0.000  -0.000
   51        0.000   0.000   0.000   0.000
   52       -0.000   0.000   0.000   0.000
   53       -0.000  -0.000   0.000  -0.000
   54        0.000  -0.000   0.000  -0.000
   55        0.002   0.002   0.000   0.004
   56        0.000   0.000   0.000   0.000
   57        0.000  -0.001  -0.000  -0.001
   58       -0.000  -0.000   0.000  -0.000
   59       -0.000  -0.000   0.000  -0.000
--------------------------------------------------
tot          0.001  -0.002  -0.000  -0.000

 BZINTS: Fermi energy: -2.964741;280.000000 electrons
         Band energy:***********;  BLOECHL correction:  0.000000

 total amount of memory used by VASP MPI-rank0   116102. kBytes
=======================================================================

   base      :      30000. kBytes
   nonl-proj :      25519. kBytes
   fftplans  :       5290. kBytes
   grid      :      16143. kBytes
   one-center:        155. kBytes
   wavefun   :      38995. kBytes

  
  
 General timing and accounting informations for this job:
 ========================================================
  
                  Total CPU time used (sec):      703.283
                            User time (sec):      701.952
                          System time (sec):        1.331
                         Elapsed time (sec):      704.465
  
                   Maximum memory used (kb):      189984.
                   Average memory used (kb):           0.
  
                          Minor page faults:       153049
                          Major page faults:            2
                 Voluntary context switches:         1736
