       N       E                     dE             d eps       ncg     rms          rms(c)
DAV:   1     0.240503927197E+04    0.24050E+04   -0.92073E+04  3832   0.108E+03
DAV:   2     0.118523027937E+03   -0.22865E+04   -0.21823E+04  4808   0.261E+02
DAV:   3    -0.444669617618E+03   -0.56319E+03   -0.55832E+03  4248   0.141E+02
DAV:   4    -0.471257021177E+03   -0.26587E+02   -0.25803E+02  4048   0.407E+01
DAV:   5    -0.472699027867E+03   -0.14420E+01   -0.14252E+01  5072   0.850E+00    0.337E+01
DAV:   6    -0.453776409022E+03    0.18923E+02   -0.61585E+01  4392   0.189E+01    0.195E+01
DAV:   7    -0.452786352690E+03    0.99006E+00   -0.19443E+01  4168   0.145E+01    0.139E+01
DAV:   8    -0.451750461857E+03    0.10359E+01   -0.93032E+00  4056   0.105E+01    0.101E+01
DAV:   9    -0.452030646681E+03   -0.28018E+00   -0.18542E+01  4824   0.812E+00    0.658E+00
DAV:  10    -0.451175460413E+03    0.85519E+00   -0.67603E+00  4416   0.672E+00    0.328E+00
DAV:  11    -0.451062540736E+03    0.11292E+00   -0.18619E+00  4376   0.401E+00    0.258E+00
DAV:  12    -0.450937148700E+03    0.12539E+00   -0.13882E+00  4584   0.245E+00    0.132E+00
DAV:  13    -0.450913377085E+03    0.23772E-01   -0.13234E-01  3840   0.113E+00    0.736E-01
DAV:  14    -0.450907416040E+03    0.59610E-02   -0.46304E-02  4104   0.584E-01    0.364E-01
DAV:  15    -0.450906803525E+03    0.61252E-03   -0.11277E-02  4024   0.308E-01    0.216E-01
DAV:  16    -0.450906802057E+03    0.14681E-05   -0.52002E-03  4056   0.161E-01    0.148E-01
DAV:  17    -0.450907221855E+03   -0.41980E-03   -0.87417E-03  4000   0.134E-01    0.194E-01
DAV:  18    -0.450906809818E+03    0.41204E-03   -0.97677E-03  2784   0.139E-01    0.113E-01
DAV:  19    -0.450906777963E+03    0.31855E-04   -0.66025E-04  2296   0.482E-02
   1 F= -.45444489E+03 E0= -.45444489E+03  d E =0.000000E+00  mag=    -0.0000
