       N       E                     dE             d eps       ncg     rms          rms(c)
DAV:   1     0.252540241851E+04    0.25254E+04   -0.11218E+05  4392   0.107E+03
DAV:   2    -0.240785546785E+03   -0.27662E+04   -0.26400E+04  5448   0.280E+02
DAV:   3    -0.700238068262E+03   -0.45945E+03   -0.45525E+03  4600   0.120E+02
DAV:   4    -0.716910458754E+03   -0.16672E+02   -0.16532E+02  4656   0.282E+01
DAV:   5    -0.717460414497E+03   -0.54996E+00   -0.54818E+00  5264   0.428E+00    0.479E+01
DAV:   6    -0.711736829113E+03    0.57236E+01   -0.72290E+01  4752   0.297E+01    0.722E+01
DAV:   7    -0.675429938583E+03    0.36307E+02   -0.75683E+01  5256   0.588E+01    0.254E+01
DAV:   8    -0.668734869631E+03    0.66951E+01   -0.30530E+01  4792   0.127E+01    0.227E+01
DAV:   9    -0.664951102632E+03    0.37838E+01   -0.22363E+01  4672   0.141E+01    0.157E+01
DAV:  10    -0.663475717782E+03    0.14754E+01   -0.96848E+00  5272   0.115E+01    0.765E+00
DAV:  11    -0.663257986908E+03    0.21773E+00   -0.99133E-01  5072   0.314E+00    0.564E+00
DAV:  12    -0.663246729698E+03    0.11257E-01   -0.52833E-01  4744   0.236E+00    0.434E+00
DAV:  13    -0.663286124950E+03   -0.39395E-01   -0.29553E-01  4760   0.136E+00    0.250E+00
DAV:  14    -0.663288616030E+03   -0.24911E-02   -0.31931E-02  4664   0.605E-01    0.208E+00
DAV:  15    -0.663286323950E+03    0.22921E-02   -0.15320E-02  4712   0.334E-01    0.151E+00
DAV:  16    -0.663283968799E+03    0.23552E-02   -0.38264E-03  4992   0.178E-01    0.110E+00
DAV:  17    -0.663283540754E+03    0.42804E-03   -0.15277E-03  4864   0.958E-02    0.833E-01
DAV:  18    -0.663283424343E+03    0.11641E-03   -0.43466E-04  3624   0.571E-02    0.626E-01
DAV:  19    -0.663283208122E+03    0.21622E-03   -0.34011E-04  3552   0.467E-02    0.373E-01
DAV:  20    -0.663283106188E+03    0.10193E-03   -0.14206E-04  2680   0.300E-02    0.235E-01
DAV:  21    -0.663283081367E+03    0.24821E-04   -0.72712E-05  2520   0.199E-02
   1 F= -.66985393E+03 E0= -.66985393E+03  d E =0.000000E+00  mag=    -1.0003
