 vasp.5.4.4.18Apr17-6-g9f103f2a35 (build Jan 14 2022 15:04:31) complex          
  
 executed on             LinuxIFC date 2023.01.27  22:53:25
 running on   48 total cores
 distrk:  each k-point on   48 cores,    1 groups
 distr:  one band on NCORES_PER_BAND=  12 cores,    4 groups


--------------------------------------------------------------------------------------------------------


 INCAR:
 POTCAR:    PAW_PBE C 08Apr2002                   
 POTCAR:    PAW_PBE N 08Apr2002                   
 POTCAR:    PAW_PBE C 08Apr2002                   
 POTCAR:    PAW_PBE Cr_pv 02Aug2007               
 POTCAR:    PAW_PBE C 08Apr2002                   
 POTCAR:    PAW_PBE O 08Apr2002                   
 POTCAR:    PAW_PBE C 08Apr2002                   
   SHA256 =  253f7b50bb8d59471dbedb8285d89021f4a42ed1a2c5d38a03a736e69125dd95 C/
   COPYR  = (c) Copyright 08Apr2002 Georg Kresse                                
   COPYR  = This file is part of the software VASP. Any use, copying, and all ot
   COPYR  = If you do not have a valid VASP license, you may not use, copy or di
   VRHFIN =C: s2p2                                                              
   LEXCH  = PE                                                                  
   EATOM  =   147.1560 eV,   10.8157 Ry                                         
                                                                                
   TITEL  = PAW_PBE C 08Apr2002                                                 
   LULTRA =        F    use ultrasoft PP ?                                      
   IUNSCR =        1    unscreen: 0-lin 1-nonlin 2-no                           
   RPACOR =    1.200    partial core radius                                     
   POMASS =   12.011; ZVAL   =    4.000    mass and valenz                      
   RCORE  =    1.500    outmost cutoff radius                                   
   RWIGS  =    1.630; RWIGS  =    0.863    wigner-seitz radius (au A)           
   ENMAX  =  400.000; ENMIN  =  300.000 eV                                      
   ICORE  =        2    local potential                                         
   LCOR   =        T    correct aug charges                                     
   LPAW   =        T    paw PP                                                  
   EAUG   =  644.873                                                            
   DEXC   =    0.000                                                            
   RMAX   =    1.529    core radius for proj-oper                               
   RAUG   =    1.300    factor for augmentation sphere                          
   RDEP   =    1.501    radius for radial grids                                 
   RDEPT  =    1.300    core radius for aug-charge                              
                                                                                
   Atomic configuration                                                         
    4 entries                                                                   
     n  l   j            E        occ.                                          
     1  0  0.50      -273.3789   2.0000                                         
     2  0  0.50       -13.7508   2.0000                                         
     2  1  0.50        -5.2854   2.0000                                         
     3  2  1.50        -5.4423   0.0000                                         
   Description                                                                  
     l       E           TYP  RCUT    TYP  RCUT                                 
     0    -13.7508458     23  1.200                                             
     0     -8.2022199     23  1.200                                             
     1     -5.2854383     23  1.500                                             
     1     34.0145650     23  1.500                                             
     2     -5.4423304      7  1.500                                             
  local pseudopotential read in
  partial core-charges read in
  partial kinetic energy density read in
  atomic valenz-charges read in
  non local Contribution for L=           0  read in
    real space projection operators read in
  non local Contribution for L=           0  read in
    real space projection operators read in
  non local Contribution for L=           1  read in
    real space projection operators read in
  non local Contribution for L=           1  read in
    real space projection operators read in
    PAW grid and wavefunctions read in
 
   number of l-projection  operators is LMAX  =           4
   number of lm-projection operators is LMMAX =           8
 
 POTCAR:    PAW_PBE N 08Apr2002                   
   SHA256 =  e053789ff3a61a86a1b75d8a110fcc91f86041011e7b0817c7c99e4e8a6349d7 N/
   COPYR  = (c) Copyright 08Apr2002 Georg Kresse                                
   COPYR  = This file is part of the software VASP. Any use, copying, and all ot
   COPYR  = If you do not have a valid VASP license, you may not use, copy or di
   VRHFIN =N: s2p3                                                              
   LEXCH  = PE                                                                  
   EATOM  =   264.5486 eV,   19.4438 Ry                                         
                                                                                
   TITEL  = PAW_PBE N 08Apr2002                                                 
   LULTRA =        F    use ultrasoft PP ?                                      
   IUNSCR =        1    unscreen: 0-lin 1-nonlin 2-no                           
   RPACOR =    1.200    partial core radius                                     
   POMASS =   14.001; ZVAL   =    5.000    mass and valenz                      
   RCORE  =    1.500    outmost cutoff radius                                   
   RWIGS  =    1.400; RWIGS  =    0.741    wigner-seitz radius (au A)           
   ENMAX  =  400.000; ENMIN  =  300.000 eV                                      
   ICORE  =        2    local potential                                         
   LCOR   =        T    correct aug charges                                     
   LPAW   =        T    paw PP                                                  
   EAUG   =  627.112                                                            
   DEXC   =    0.000                                                            
   RMAX   =    1.529    core radius for proj-oper                               
   RAUG   =    1.300    factor for augmentation sphere                          
   RDEP   =    1.514    radius for radial grids                                 
   RDEPT  =    1.338    core radius for aug-charge                              
                                                                                
   Atomic configuration                                                         
    4 entries                                                                   
     n  l   j            E        occ.                                          
     1  0  0.50      -384.7179   2.0000                                         
     2  0  0.50       -18.5828   2.0000                                         
     2  1  0.50        -7.0898   3.0000                                         
     3  2  1.50        -6.8029   0.0000                                         
   Description                                                                  
     l       E           TYP  RCUT    TYP  RCUT                                 
     0    -18.5828119     23  1.200                                             
     0    -13.5018863     23  1.200                                             
     1     -7.0897853     23  1.500                                             
     1      9.5240782     23  1.500                                             
     2     -6.8029130      7  1.500                                             
  local pseudopotential read in
  partial core-charges read in
  partial kinetic energy density read in
  atomic valenz-charges read in
  non local Contribution for L=           0  read in
    real space projection operators read in
  non local Contribution for L=           0  read in
    real space projection operators read in
  non local Contribution for L=           1  read in
    real space projection operators read in
  non local Contribution for L=           1  read in
    real space projection operators read in
    PAW grid and wavefunctions read in
 
   number of l-projection  operators is LMAX  =           4
   number of lm-projection operators is LMMAX =           8
 
 POTCAR:    PAW_PBE C 08Apr2002                   
   SHA256 =  253f7b50bb8d59471dbedb8285d89021f4a42ed1a2c5d38a03a736e69125dd95 C/
   COPYR  = (c) Copyright 08Apr2002 Georg Kresse                                
   COPYR  = This file is part of the software VASP. Any use, copying, and all ot
   COPYR  = If you do not have a valid VASP license, you may not use, copy or di
   VRHFIN =C: s2p2                                                              
   LEXCH  = PE                                                                  
   EATOM  =   147.1560 eV,   10.8157 Ry                                         
                                                                                
   TITEL  = PAW_PBE C 08Apr2002                                                 
   LULTRA =        F    use ultrasoft PP ?                                      
   IUNSCR =        1    unscreen: 0-lin 1-nonlin 2-no                           
   RPACOR =    1.200    partial core radius                                     
   POMASS =   12.011; ZVAL   =    4.000    mass and valenz                      
   RCORE  =    1.500    outmost cutoff radius                                   
   RWIGS  =    1.630; RWIGS  =    0.863    wigner-seitz radius (au A)           
   ENMAX  =  400.000; ENMIN  =  300.000 eV                                      
   ICORE  =        2    local potential                                         
   LCOR   =        T    correct aug charges                                     
   LPAW   =        T    paw PP                                                  
   EAUG   =  644.873                                                            
   DEXC   =    0.000                                                            
   RMAX   =    1.529    core radius for proj-oper                               
   RAUG   =    1.300    factor for augmentation sphere                          
   RDEP   =    1.501    radius for radial grids                                 
   RDEPT  =    1.300    core radius for aug-charge                              
                                                                                
   Atomic configuration                                                         
    4 entries                                                                   
     n  l   j            E        occ.                                          
     1  0  0.50      -273.3789   2.0000                                         
     2  0  0.50       -13.7508   2.0000                                         
     2  1  0.50        -5.2854   2.0000                                         
     3  2  1.50        -5.4423   0.0000                                         
   Description                                                                  
     l       E           TYP  RCUT    TYP  RCUT                                 
     0    -13.7508458     23  1.200                                             
     0     -8.2022199     23  1.200                                             
     1     -5.2854383     23  1.500                                             
     1     34.0145650     23  1.500                                             
     2     -5.4423304      7  1.500                                             
  local pseudopotential read in
  partial core-charges read in
  partial kinetic energy density read in
  atomic valenz-charges read in
  non local Contribution for L=           0  read in
    real space projection operators read in
  non local Contribution for L=           0  read in
    real space projection operators read in
  non local Contribution for L=           1  read in
    real space projection operators read in
  non local Contribution for L=           1  read in
    real space projection operators read in
    PAW grid and wavefunctions read in
 
   number of l-projection  operators is LMAX  =           4
   number of lm-projection operators is LMMAX =           8
 
 POTCAR:    PAW_PBE Cr_pv 02Aug2007               
   SHA256 =  c9a7df34d3cdbacf1090e328ef39c0b420964e11c23f63548d1ac9dd218cdba0 Cr
   COPYR  = (c) Copyright 02Aug2007 Georg Kresse                                
   COPYR  = This file is part of the software VASP. Any use, copying, and all ot
   COPYR  = If you do not have a valid VASP license, you may not use, copy or di
   VRHFIN =Cr : p6d5s1                                                          
   LEXCH  = PE                                                                  
   EATOM  =  1647.9177 eV,  121.1185 Ry                                         
                                                                                
   TITEL  = PAW_PBE Cr_pv 02Aug2007                                             
   LULTRA =        F    use ultrasoft PP ?                                      
   IUNSCR =        1    unscreen: 0-lin 1-nonlin 2-no                           
   RPACOR =    2.080    partial core radius                                     
   POMASS =   51.996; ZVAL   =   12.000    mass and valenz                      
   RCORE  =    2.300    outmost cutoff radius                                   
   RWIGS  =    2.500; RWIGS  =    1.323    wigner-seitz radius (au A)           
   ENMAX  =  265.681; ENMIN  =  199.261 eV                                      
   ICORE  =        3    local potential                                         
   LCOR   =        T    correct aug charges                                     
   LPAW   =        T    paw PP                                                  
   EAUG   =  519.424                                                            
   DEXC   =    0.000                                                            
   RMAX   =    2.356    core radius for proj-oper                               
   RAUG   =    1.300    factor for augmentation sphere                          
   RDEP   =    2.447    radius for radial grids                                 
   RDEPT  =    1.882    core radius for aug-charge                              
                                                                                
   Atomic configuration                                                         
    8 entries                                                                   
     n  l   j            E        occ.                                          
     1  0  0.50     -5880.4963   2.0000                                         
     2  0  0.50      -667.0865   2.0000                                         
     2  1  1.50      -560.6250   6.0000                                         
     3  0  0.50       -73.9860   2.0000                                         
     3  1  1.50       -45.4378   6.0000                                         
     3  2  2.50        -2.9137   5.0000                                         
     4  0  0.50        -4.0071   1.0000                                         
     4  3  2.50        -1.3606   0.0000                                         
   Description                                                                  
     l       E           TYP  RCUT    TYP  RCUT                                 
     1    -45.4377911     23  2.000                                             
     1      1.3605826     23  2.000                                             
     2     -2.9136672     23  2.300                                             
     2     -4.2742498     23  2.300                                             
     0     -4.0071320     23  2.300                                             
     0      9.4498803     23  2.300                                             
     3      2.7211652     23  2.300                                             
  local pseudopotential read in
  partial core-charges read in
  partial kinetic energy density read in
  atomic valenz-charges read in
  non local Contribution for L=           1  read in
    real space projection operators read in
  non local Contribution for L=           1  read in
    real space projection operators read in
  non local Contribution for L=           2  read in
    real space projection operators read in
  non local Contribution for L=           2  read in
    real space projection operators read in
  non local Contribution for L=           0  read in
    real space projection operators read in
  non local Contribution for L=           0  read in
    real space projection operators read in
    PAW grid and wavefunctions read in
 
   number of l-projection  operators is LMAX  =           6
   number of lm-projection operators is LMMAX =          18
 
 POTCAR:    PAW_PBE C 08Apr2002                   
   SHA256 =  253f7b50bb8d59471dbedb8285d89021f4a42ed1a2c5d38a03a736e69125dd95 C/
   COPYR  = (c) Copyright 08Apr2002 Georg Kresse                                
   COPYR  = This file is part of the software VASP. Any use, copying, and all ot
   COPYR  = If you do not have a valid VASP license, you may not use, copy or di
   VRHFIN =C: s2p2                                                              
   LEXCH  = PE                                                                  
   EATOM  =   147.1560 eV,   10.8157 Ry                                         
                                                                                
   TITEL  = PAW_PBE C 08Apr2002                                                 
   LULTRA =        F    use ultrasoft PP ?                                      
   IUNSCR =        1    unscreen: 0-lin 1-nonlin 2-no                           
   RPACOR =    1.200    partial core radius                                     
   POMASS =   12.011; ZVAL   =    4.000    mass and valenz                      
   RCORE  =    1.500    outmost cutoff radius                                   
   RWIGS  =    1.630; RWIGS  =    0.863    wigner-seitz radius (au A)           
   ENMAX  =  400.000; ENMIN  =  300.000 eV                                      
   ICORE  =        2    local potential                                         
   LCOR   =        T    correct aug charges                                     
   LPAW   =        T    paw PP                                                  
   EAUG   =  644.873                                                            
   DEXC   =    0.000                                                            
   RMAX   =    1.529    core radius for proj-oper                               
   RAUG   =    1.300    factor for augmentation sphere                          
   RDEP   =    1.501    radius for radial grids                                 
   RDEPT  =    1.300    core radius for aug-charge                              
                                                                                
   Atomic configuration                                                         
    4 entries                                                                   
     n  l   j            E        occ.                                          
     1  0  0.50      -273.3789   2.0000                                         
     2  0  0.50       -13.7508   2.0000                                         
     2  1  0.50        -5.2854   2.0000                                         
     3  2  1.50        -5.4423   0.0000                                         
   Description                                                                  
     l       E           TYP  RCUT    TYP  RCUT                                 
     0    -13.7508458     23  1.200                                             
     0     -8.2022199     23  1.200                                             
     1     -5.2854383     23  1.500                                             
     1     34.0145650     23  1.500                                             
     2     -5.4423304      7  1.500                                             
  local pseudopotential read in
  partial core-charges read in
  partial kinetic energy density read in
  atomic valenz-charges read in
  non local Contribution for L=           0  read in
    real space projection operators read in
  non local Contribution for L=           0  read in
    real space projection operators read in
  non local Contribution for L=           1  read in
    real space projection operators read in
  non local Contribution for L=           1  read in
    real space projection operators read in
    PAW grid and wavefunctions read in
 
   number of l-projection  operators is LMAX  =           4
   number of lm-projection operators is LMMAX =           8
 
 POTCAR:    PAW_PBE O 08Apr2002                   
   SHA256 =  818f92134a0a090dccd8ba1447fa70422a3b330e708bb4f08108d8ae51209ddf O/
   COPYR  = (c) Copyright 08Apr2002 Georg Kresse                                
   COPYR  = This file is part of the software VASP. Any use, copying, and all ot
   COPYR  = If you do not have a valid VASP license, you may not use, copy or di
   VRHFIN =O: s2p4                                                              
   LEXCH  = PE                                                                  
   EATOM  =   432.3788 eV,   31.7789 Ry                                         
                                                                                
   TITEL  = PAW_PBE O 08Apr2002                                                 
   LULTRA =        F    use ultrasoft PP ?                                      
   IUNSCR =        1    unscreen: 0-lin 1-nonlin 2-no                           
   RPACOR =    1.200    partial core radius                                     
   POMASS =   16.000; ZVAL   =    6.000    mass and valenz                      
   RCORE  =    1.520    outmost cutoff radius                                   
   RWIGS  =    1.550; RWIGS  =    0.820    wigner-seitz radius (au A)           
   ENMAX  =  400.000; ENMIN  =  300.000 eV                                      
   ICORE  =        2    local potential                                         
   LCOR   =        T    correct aug charges                                     
   LPAW   =        T    paw PP                                                  
   EAUG   =  605.392                                                            
   DEXC   =    0.000                                                            
   RMAX   =    1.553    core radius for proj-oper                               
   RAUG   =    1.300    factor for augmentation sphere                          
   RDEP   =    1.550    radius for radial grids                                 
   RDEPT  =    1.329    core radius for aug-charge                              
                                                                                
   Atomic configuration                                                         
    4 entries                                                                   
     n  l   j            E        occ.                                          
     1  0  0.50      -514.6923   2.0000                                         
     2  0  0.50       -23.9615   2.0000                                         
     2  1  0.50        -9.0305   4.0000                                         
     3  2  1.50        -9.5241   0.0000                                         
   Description                                                                  
     l       E           TYP  RCUT    TYP  RCUT                                 
     0    -23.9615318     23  1.200                                             
     0     -9.5240782     23  1.200                                             
     1     -9.0304911     23  1.520                                             
     1      8.1634956     23  1.520                                             
     2     -9.5240782      7  1.500                                             
  local pseudopotential read in
  partial core-charges read in
  partial kinetic energy density read in
  kinetic energy density of atom read in
  atomic valenz-charges read in
  non local Contribution for L=           0  read in
    real space projection operators read in
  non local Contribution for L=           0  read in
    real space projection operators read in
  non local Contribution for L=           1  read in
    real space projection operators read in
  non local Contribution for L=           1  read in
    real space projection operators read in
    PAW grid and wavefunctions read in
 
   number of l-projection  operators is LMAX  =           4
   number of lm-projection operators is LMMAX =           8
 

 ----------------------------------------------------------------------------- 
|                                                                             |
|  ADVICE TO THIS USER RUNNING 'VASP/VAMP'   (HEAR YOUR MASTER'S VOICE ...):  |
|                                                                             |
|      You have a (more or less) 'large supercell' and for larger cells       |
|      it might be more efficient to use real space projection opertators     |
|      So try LREAL= Auto  in the INCAR   file.                               |
|      Mind:          For very  accurate calculation you might also keep the  |
|      reciprocal projection scheme          (i.e. LREAL=.FALSE.)             |
|                                                                             |
 ----------------------------------------------------------------------------- 

  PAW_PBE C 08Apr2002                   :
 energy of atom  1       EATOM= -147.1560
 kinetic energy error for atom=    0.0132 (will be added to EATOM!!)
  PAW_PBE N 08Apr2002                   :
 energy of atom  2       EATOM= -264.5486
 kinetic energy error for atom=    0.0298 (will be added to EATOM!!)
  PAW_PBE C 08Apr2002                   :
 energy of atom  3       EATOM= -147.1560
 kinetic energy error for atom=    0.0132 (will be added to EATOM!!)
  PAW_PBE Cr_pv 02Aug2007               :
 energy of atom  4       EATOM=-1647.9177
 kinetic energy error for atom=    0.0134 (will be added to EATOM!!)
  PAW_PBE C 08Apr2002                   :
 energy of atom  5       EATOM= -147.1560
 kinetic energy error for atom=    0.0132 (will be added to EATOM!!)
  PAW_PBE O 08Apr2002                   :
 energy of atom  6       EATOM= -432.3788
 kinetic energy error for atom=    0.0458 (will be added to EATOM!!)
 
 
 POSCAR: POSCAR-clean                            
  positions in direct lattice
  velocities in cartesian coordinates
 exchange correlation table for  LEXCH =        8
   RHO(1)=    0.500       N(1)  =     2000
   RHO(2)=  100.500       N(2)  =     4000

 VTST: version 3.2, (02/03/18)

 CHAIN: initializing optimizer
 
 OPT: Using VASP Dynamics algorithm
 CHAIN: Read ICHAIN            0
 
 POSCAR: POSCAR-clean                            
  positions in direct lattice
  velocities in cartesian coordinates
 


--------------------------------------------------------------------------------------------------------


 ion  position               nearest neighbor table
   1  0.001  0.001  0.490-  60 1.42   2 1.42  70 1.43
   2  0.057  0.113  0.491-   1 1.42  13 1.43  15 1.43
   3  0.168  0.002  0.491-   4 1.42  60 1.43  62 1.43
   4  0.224  0.113  0.493-   3 1.42  15 1.43  17 1.43
   5  0.334  0.001  0.491-  62 1.42   6 1.42  64 1.43
   6  0.390  0.113  0.492-   5 1.42  19 1.42  17 1.43
   7  0.500  0.999  0.492-   8 1.43  64 1.43  66 1.43
   8  0.556  0.111  0.491-  21 1.43   7 1.43  19 1.43
   9  0.666  0.998  0.492-  10 1.42  66 1.42  68 1.43
  10  0.722  0.110  0.490-   9 1.42  23 1.43  21 1.43
  11  0.833  0.999  0.490-  12 1.42  70 1.43  68 1.44
  12  0.889  0.110  0.490-  11 1.42  23 1.43  13 1.43
  13  0.000  0.167  0.491-  14 1.42   2 1.43  12 1.43
  14  0.056  0.278  0.493-  13 1.42  27 1.42  25 1.43
  15  0.169  0.169  0.493-   4 1.43  16 1.43   2 1.43
  16  0.225  0.281  0.498-  27 1.43  15 1.43  29 1.45
  17  0.335  0.170  0.494-  18 1.42   4 1.43   6 1.43
  18  0.391  0.281  0.497-  17 1.42  31 1.43  29 1.44
  19  0.501  0.167  0.491-  20 1.42   6 1.42   8 1.43
  20  0.557  0.279  0.492-  19 1.42  33 1.43  31 1.44
  21  0.667  0.166  0.491-  22 1.42   8 1.43  10 1.43
  22  0.723  0.277  0.491-  21 1.42  33 1.42  35 1.43
  23  0.833  0.166  0.490-  24 1.42  10 1.43  12 1.43
  24  0.889  0.277  0.491-  23 1.42  35 1.42  25 1.43
  25  1.000  0.333  0.492-  26 1.42  24 1.43  14 1.43
  26  0.055  0.444  0.493-  39 1.42  25 1.42  37 1.42
  27  0.166  0.334  0.497-  14 1.42  28 1.42  16 1.43
  28  0.221  0.446  0.499-  41 1.41  27 1.42  39 1.43
  29  0.337  0.339  0.503-  30 1.44  18 1.44  16 1.45
  30  0.391  0.451  0.515-  41 1.43  29 1.44  71 2.04
  31  0.502  0.336  0.494-  32 1.41  18 1.43  20 1.44
  32  0.559  0.446  0.495-  31 1.41  43 1.42  71 1.92
  33  0.668  0.333  0.492-  34 1.42  22 1.42  20 1.43
  34  0.725  0.444  0.495-  43 1.42  33 1.42  45 1.42
  35  0.834  0.333  0.491-  24 1.42  22 1.43  36 1.43
  36  0.890  0.445  0.492-  45 1.41  35 1.43  37 1.43
  37  0.001  0.501  0.492-  38 1.42  26 1.42  36 1.43
  38  0.057  0.612  0.492-  49 1.40  47 1.42  37 1.42
  39  0.165  0.501  0.495-  40 1.41  26 1.42  28 1.43
  40  0.221  0.612  0.495-  49 1.40  39 1.41  51 1.42
  41  0.330  0.500  0.507-  28 1.41  42 1.42  30 1.43
  42  0.385  0.612  0.507-  51 1.42  41 1.42  53 1.42
  43  0.670  0.500  0.493-  34 1.42  32 1.42  44 1.44  71 2.55
  44  0.726  0.613  0.491-  55 1.42  57 1.42  43 1.44  71 2.56
  45  0.836  0.500  0.494-  36 1.41  46 1.42  34 1.42
  46  0.892  0.612  0.493-  45 1.42  47 1.42  57 1.42
  47  0.002  0.668  0.492-  38 1.42  48 1.42  46 1.42
  48  0.057  0.779  0.491-  59 1.42  61 1.42  47 1.42
  49  0.167  0.667  0.493-  38 1.40  40 1.40  50 1.41
  50  0.222  0.778  0.492-  49 1.41  61 1.42  63 1.42
  51  0.331  0.667  0.499-  52 1.42  42 1.42  40 1.42
  52  0.389  0.778  0.496-  51 1.42  65 1.42  63 1.42
  53  0.495  0.661  0.514-  42 1.42  54 1.43  71 2.03
  54  0.553  0.772  0.502-  53 1.43  67 1.44  65 1.45
  55  0.669  0.666  0.488-  56 1.40  44 1.42  71 1.95
  56  0.722  0.776  0.489-  55 1.40  67 1.44  69 1.44
  57  0.837  0.668  0.493-  58 1.42  44 1.42  46 1.42
  58  0.891  0.779  0.490-  57 1.42  69 1.42  59 1.43
  59  0.002  0.835  0.490-  48 1.42  60 1.42  58 1.43
  60  0.057  0.946  0.490-  59 1.42   1 1.42   3 1.43
  61  0.168  0.834  0.491-  50 1.42  48 1.42  62 1.43
  62  0.224  0.946  0.491-   5 1.42  61 1.43   3 1.43
  63  0.333  0.833  0.493-  52 1.42  50 1.42  64 1.43
  64  0.389  0.945  0.491-  63 1.43   5 1.43   7 1.43
  65  0.499  0.831  0.497-  52 1.42  66 1.43  54 1.45
  66  0.555  0.943  0.493-   9 1.42  65 1.43   7 1.43
  67  0.665  0.830  0.495-  68 1.42  56 1.44  54 1.44
  68  0.721  0.942  0.492-  67 1.42   9 1.43  11 1.44
  69  0.834  0.833  0.489-  70 1.42  58 1.42  56 1.44
  70  0.890  0.945  0.489-  69 1.42  11 1.43   1 1.43
  71  0.542  0.557  0.544-  72 1.91  32 1.92  55 1.95  53 2.03  30 2.04  43 2.55  44 2.56
  72  0.490  0.521  0.664-  73 1.16  71 1.91
  73  0.463  0.505  0.737-  72 1.16
 

IMPORTANT INFORMATION: All symmetrisations will be switched off!
NOSYMM: (Re-)initialisation of all symmetry stuff for point group C_1.

 
 
 KPOINTS: K-Points                                

Automatic generation of k-mesh.
Space group operators:
 irot       det(A)        alpha          n_x          n_y          n_z        tau_x        tau_y        tau_z
    1     1.000000     0.000000     1.000000     0.000000     0.000000     0.000000     0.000000     0.000000
 
 Subroutine IBZKPT returns following result:
 ===========================================
 
 Found      5 irreducible k-points:
 
 Following reciprocal coordinates:
            Coordinates               Weight
  0.000000  0.000000  0.000000      1.000000
  0.333333 -0.000000  0.000000      2.000000
  0.000000  0.333333  0.000000      2.000000
  0.333333  0.333333  0.000000      2.000000
 -0.333333  0.333333  0.000000      2.000000
 
 Following cartesian coordinates:
            Coordinates               Weight
  0.000000  0.000000  0.000000      1.000000
  0.022433  0.013069  0.000000      2.000000
  0.000006  0.026138  0.000000      2.000000
  0.022438  0.039207  0.000000      2.000000
 -0.022427  0.013069  0.000000      2.000000
 
 TETIRR: Found     24 inequivalent tetrahedra from       54


--------------------------------------------------------------------------------------------------------




 Dimension of arrays:
   k-points           NKPTS =      5   k-points in BZ     NKDIM =      5   number of bands    NBANDS=    192
   number of dos      NEDOS =   4000   number of ions     NIONS =     73
   non local maximal  LDIM  =      6   non local SUM 2l+1 LMDIM =     18
   total plane-waves  NPLWV = 512000
   max r-space proj   IRMAX =      1   max aug-charges    IRDMAX=   6466
   dimension x,y,z NGX =    80 NGY =   80 NGZ =   80
   dimension x,y,z NGXF=   160 NGYF=  160 NGZF=  160
   support grid    NGXF=   160 NGYF=  160 NGZF=  160
   ions per type =              48   1  21   1   1   1
   NGX,Y,Z   is equivalent  to a cutoff of   8.95,  9.01,  8.87 a.u.
   NGXF,Y,Z  is equivalent  to a cutoff of  17.90, 18.02, 17.73 a.u.

 SYSTEM =  unknown system                          
 POSCAR =  POSCAR-clean                            

 Startparameter for this run:
   NWRITE =      2    write-flag & timer
   PREC   = normal    normal or accurate (medium, high low for compatibility)
   ISTART =      0    job   : 0-new  1-cont  2-samecut
   ICHARG =      2    charge: 1-file 2-atom 10-const
   ISPIN  =      2    spin polarized calculation?
   LNONCOLLINEAR =      F non collinear calculations
   LSORBIT =      F    spin-orbit coupling
   INIWAV =      1    electr: 0-lowe 1-rand  2-diag
   LASPH  =      F    aspherical Exc in radial PAW
   METAGGA=      F    non-selfconsistent MetaGGA calc.

 Electronic Relaxation 1
   ENCUT  =  440.0 eV  32.34 Ry    5.69 a.u.  25.42 25.25 25.66*2*pi/ulx,y,z
   ENINI  =  440.0     initial cutoff
   ENAUG  =  644.9 eV  augmentation charge cutoff
   NELM   =    100;   NELMIN=  2; NELMDL= -5     # of ELM steps 
   EDIFF  = 0.1E-03   stopping-criterion for ELM
   LREAL  =      F    real-space projection
   NLSPLINE    = F    spline interpolate recip. space projectors
   LCOMPAT=      F    compatible to vasp.4.4
   GGA_COMPAT  = T    GGA compatible to vasp.4.4-vasp.4.6
   LMAXPAW     = -100 max onsite density
   LMAXMIX     =    2 max onsite mixed and CHGCAR
   VOSKOWN=      0    Vosko Wilk Nusair interpolation
   ROPT   =    0.00000   0.00000   0.00000   0.00000
   ROPT   =    0.00000   0.00000
 Ionic relaxation
   EDIFFG = -.1E-01   stopping-criterion for IOM
   NSW    =      0    number of steps for IOM
   NBLOCK =      1;   KBLOCK =      1    inner block; outer block 
   IBRION =     -1    ionic relax: 0-MD 1-quasi-New 2-CG
   NFREE  =      0    steps in history (QN), initial steepest desc. (CG)
   ISIF   =      2    stress and relaxation
   IWAVPR =     10    prediction:  0-non 1-charg 2-wave 3-comb
   ISYM   =      0    0-nonsym 1-usesym 2-fastsym
   LCORR  =      T    Harris-Foulkes like correction to forces

   POTIM  = 0.5000    time-step for ionic-motion
   TEIN   =    0.0    initial temperature
   TEBEG  =    0.0;   TEEND  =   0.0 temperature during run
   SMASS  =  -3.00    Nose mass-parameter (am)
   estimated Nose-frequenzy (Omega)   =  0.10E-29 period in steps =****** mass=  -0.505E-26a.u.
   SCALEE = 1.0000    scale energy and forces
   NPACO  =    256;   APACO  = 16.0  distance and # of slots for P.C.
   PSTRESS=    0.0 pullay stress

  Mass of Ions in am
   POMASS =  12.01 14.00 12.01 52.00 12.01 16.00
  Ionic Valenz
   ZVAL   =   4.00  5.00  4.00 12.00  4.00  6.00
  Atomic Wigner-Seitz radii
   RWIGS  =  -1.00 -1.00 -1.00 -1.00 -1.00 -1.00
  virtual crystal weights 
   VCA    =   1.00  1.00  1.00  1.00  1.00  1.00
   NELECT =     303.0000    total number of electrons
   NUPDOWN=      -1.0000    fix difference up-down

 DOS related values:
   EMIN   = -14.00;   EMAX   =  6.00  energy-range for DOS
   EFERMI =   0.00
   ISMEAR =    -5;   SIGMA  =   0.20  broadening in eV -4-tet -1-fermi 0-gaus

 Electronic relaxation 2 (details)
   IALGO  =     38    algorithm
   LDIAG  =      T    sub-space diagonalisation (order eigenvalues)
   LSUBROT=      F    optimize rotation matrix (better conditioning)
   TURBO    =      0    0=normal 1=particle mesh
   IRESTART =      0    0=no restart 2=restart with 2 vectors
   NREBOOT  =      0    no. of reboots
   NMIN     =      0    reboot dimension
   EREF     =   0.00    reference energy to select bands
   IMIX   =      4    mixing-type and parameters
     AMIX     =   0.25;   BMIX     =  0.00
     AMIX_MAG =   1.00;   BMIX_MAG =  0.00
     AMIN     =   0.10
     WC   =   100.;   INIMIX=   1;  MIXPRE=   1;  MAXMIX= -45

 Intra band minimization:
   WEIMIN = 0.0000     energy-eigenvalue tresh-hold
   EBREAK =  0.13E-06  absolut break condition
   DEPER  =   0.30     relativ break condition  

   TIME   =   0.40     timestep for ELM

  volume/ion in A,a.u.               =      38.94       262.80
  Fermi-wavevector in a.u.,A,eV,Ry     =   0.776199  1.466804  8.197308  0.602485
  Thomas-Fermi vector in A             =   1.878627
 
 Write flags
   LWAVE        =      F    write WAVECAR
   LDOWNSAMPLE  =      F    k-point downsampling of WAVECAR
   LCHARG       =      F    write CHGCAR
   LVTOT        =      F    write LOCPOT, total local potential
   LVHAR        =      F    write LOCPOT, Hartree potential only
   LELF         =      F    write electronic localiz. function (ELF)
   LORBIT       =     11    0 simple, 1 ext, 2 COOP (PROOUT), +10 PAW based schemes


 Dipole corrections
   LMONO  =      F    monopole corrections only (constant potential shift)
   LDIPOL =      F    correct potential (dipole corrections)
   IDIPOL =      0    1-x, 2-y, 3-z, 4-all directions 
   EPSILON=  1.0000000 bulk dielectric constant

 Exchange correlation treatment:
   GGA     =    --    GGA type
   LEXCH   =     8    internal setting for exchange type
   VOSKOWN=      0    Vosko Wilk Nusair interpolation
   LHFCALC =     F    Hartree Fock is set to
   LHFONE  =     F    Hartree Fock one center treatment
   AEXX    =    0.0000 exact exchange contribution

 Linear response parameters
   LEPSILON=     F    determine dielectric tensor
   LRPA    =     F    only Hartree local field effects (RPA)
   LNABLA  =     F    use nabla operator in PAW spheres
   LVEL    =     F    velocity operator in full k-point grid
   LINTERFAST=   F  fast interpolation
   KINTER  =     0    interpolate to denser k-point grid
   CSHIFT  =0.1000    complex shift for real part using Kramers Kronig
   OMEGAMAX=  -1.0    maximum frequency
   DEG_THRESHOLD= 0.2000000E-02 threshold for treating states as degnerate
   RTIME   =   -0.100 relaxation time in fs
  (WPLASMAI=    0.000 imaginary part of plasma frequency in eV, 0.658/RTIME)
   DFIELD  = 0.0000000 0.0000000 0.0000000 field for delta impulse in time
 
 Orbital magnetization related:
   ORBITALMAG=     F  switch on orbital magnetization
   LCHIMAG   =     F  perturbation theory with respect to B field
   DQ        =  0.001000  dq finite difference perturbation B field
   LLRAUG    =     F  two centre corrections for induced B field



--------------------------------------------------------------------------------------------------------


 Static calculation
 charge density and potential will be updated during run
 spin polarized calculation
 Variant of blocked Davidson
 Davidson routine will perform the subspace rotation
 perform sub-space diagonalisation
    after iterative eigenvector-optimisation
 modified Broyden-mixing scheme, WC =      100.0
 initial mixing is a Kerker type mixing with AMIX =  0.2500 and BMIX =      0.0001
 Hartree-type preconditioning will be used
 using additional bands           40
 reciprocal scheme for non local part
 use partial core corrections
 calculate Harris-corrections to forces 
   (improved forces if not selfconsistent)
 use gradient corrections 
 use of overlap-Matrix (Vanderbilt PP)
 Fermi weights with tetrahedron method with Bloechl corrections


--------------------------------------------------------------------------------------------------------


  energy-cutoff  :      440.00
  volume of cell :     2842.81
      direct lattice vectors                 reciprocal lattice vectors
    14.861163841 -0.003273593  0.000000000     0.067298117  0.039207262  0.000000000
    -7.430581921 12.754376365  0.000000000     0.000017273  0.078414524  0.000000000
     0.000000000  0.000000000 15.000000000     0.000000000  0.000000000  0.066666667

  length of vectors
    14.861164202 14.761018398 15.000000000     0.077886109  0.078414526  0.066666667


 
 k-points in units of 2pi/SCALE and weight: K-Points                                
   0.00000000  0.00000000  0.00000000       0.111
   0.02243271  0.01306909  0.00000000       0.222
   0.00000576  0.02613817  0.00000000       0.222
   0.02243846  0.03920726  0.00000000       0.222
  -0.02242695  0.01306909  0.00000000       0.222
 
 k-points in reciprocal lattice and weights: K-Points                                
   0.00000000  0.00000000  0.00000000       0.111
   0.33333333 -0.00000000  0.00000000       0.222
   0.00000000  0.33333333  0.00000000       0.222
   0.33333333  0.33333333  0.00000000       0.222
  -0.33333333  0.33333333  0.00000000       0.222
 
 position of ions in fractional coordinates (direct lattice) 
   0.00131591  0.00093487  0.48994694
   0.05722027  0.11261346  0.49114182
   0.16837176  0.00169717  0.49079000
   0.22395575  0.11340264  0.49276276
   0.33434305  0.00137480  0.49085966
   0.39012311  0.11299315  0.49153053
   0.49996802  0.99905860  0.49152416
   0.55595216  0.11089452  0.49096397
   0.66618101  0.99836377  0.49189942
   0.72220979  0.10995671  0.49044949
   0.83310756  0.99884699  0.48970763
   0.88880014  0.11034686  0.48991224
   0.00027890  0.16661428  0.49104359
   0.05589666  0.27794177  0.49289645
   0.16873260  0.16920551  0.49333708
   0.22466739  0.28117558  0.49759703
   0.33520753  0.16967516  0.49372246
   0.39076481  0.28132069  0.49748219
   0.50097641  0.16729090  0.49132781
   0.55678352  0.27886479  0.49152544
   0.66701427  0.16591731  0.49053168
   0.72304199  0.27747409  0.49117232
   0.83323475  0.16587686  0.49013247
   0.88897606  0.27729145  0.49073474
   0.99997306  0.33324997  0.49186659
   0.05517423  0.44431091  0.49253128
   0.16646116  0.33406047  0.49675189
   0.22096961  0.44555804  0.49910205
   0.33704280  0.33940510  0.50345404
   0.39133414  0.45136647  0.51454440
   0.50207351  0.33590513  0.49360491
   0.55917021  0.44615440  0.49515213
   0.66787007  0.33320960  0.49246124
   0.72469858  0.44447719  0.49461021
   0.83414590  0.33325960  0.49125365
   0.89032935  0.44512068  0.49205888
   0.00146401  0.50107931  0.49195245
   0.05729071  0.61224380  0.49187624
   0.16543310  0.50123700  0.49519292
   0.22055978  0.61199961  0.49534114
   0.33001840  0.50048648  0.50696182
   0.38511930  0.61160649  0.50665256
   0.66970325  0.49973608  0.49301002
   0.72636726  0.61257321  0.49078972
   0.83553050  0.50042316  0.49369690
   0.89168160  0.61160573  0.49325287
   0.00243205  0.66773426  0.49163260
   0.05690109  0.77915367  0.49060275
   0.16660498  0.66738471  0.49255083
   0.22228571  0.77784164  0.49177254
   0.33103476  0.66738638  0.49881843
   0.38886086  0.77829268  0.49623000
   0.49533107  0.66095766  0.51352829
   0.55343194  0.77231184  0.50176270
   0.66911053  0.66552226  0.48778036
   0.72206625  0.77559841  0.48919886
   0.83693929  0.66766213  0.49263770
   0.89077622  0.77875028  0.48992975
   0.00185692  0.83463772  0.48986659
   0.05733019  0.94607106  0.48986217
   0.16756359  0.83372765  0.49064098
   0.22361202  0.94564708  0.49060563
   0.33305348  0.83314209  0.49270185
   0.38889329  0.94487316  0.49144375
   0.49934518  0.83086081  0.49671934
   0.55525326  0.94279752  0.49282785
   0.66538818  0.83049476  0.49471724
   0.72123534  0.94186621  0.49189676
   0.83413750  0.83300982  0.48851303
   0.88975959  0.94451473  0.48927832
   0.54247870  0.55705302  0.54441961
   0.49039028  0.52134078  0.66350377
   0.46289752  0.50455885  0.73744857
 
 position of ions in cartesian coordinates  (Angst):
   0.01260935  0.01191937  7.34920407
   0.01357618  1.43612718  7.36712726
   2.48958931  0.02109512  7.36185000
   2.48559554  1.44564685  7.39144137
   4.95851122  0.01644027  7.36289489
   4.95807855  1.43988003  7.37295791
   0.00651988 12.74073267  7.37286234
   7.43808534  1.41257046  7.36445959
   2.48180137 12.73132643  7.37849133
   9.91583568  1.40006499  7.35674240
   4.95893348 12.73694323  7.34561439
  12.38866320  1.40449579  7.34868361
  -1.23389627  2.12506032  7.36565378
  -1.23457967  3.54479099  7.39344669
   1.25026749  2.15755836  7.40005623
   1.24952060  3.58548377  7.46395547
   3.72078878  2.16300355  7.40583690
   3.71684347  3.58679071  7.46223283
   6.20202379  2.13205113  7.36991710
   6.20232345  3.55492375  7.37288158
   8.67974625  2.11398829  7.35797513
   8.68345159  3.53664204  7.36758476
  11.15027663  2.11292818  7.35198703
  11.15078202  3.53376934  7.36102106
  12.38452223  4.24712200  7.37799880
  -2.48153529  5.66672790  7.38796920
  -0.00845719  4.26018809  7.45127830
  -0.02688991  5.68209158  7.48653082
   2.48687091  4.32779702  7.55181061
   2.46176525  5.75561675  7.71816594
   4.96542614  4.28261683  7.40407360
   4.99473333  5.68859060  7.42728188
   7.44938528  4.24769429  7.38691858
   7.46714015  5.66665695  7.41915317
   9.92006608  4.24778772  7.36880472
   9.92382459  5.67432217  7.38088322
  -3.70155399  6.39094928  7.37928675
  -3.69792113  7.80860036  7.37814361
  -1.26595424  6.39242384  7.42789386
  -1.26973817  7.80495135  7.43011717
   1.18555177  6.38231256  7.60442728
   1.17872882  7.79939869  7.59978844
   6.23923978  6.37162976  7.39515025
   6.24288742  7.81061139  7.36184576
   8.69852027  6.37985019  7.40545349
   8.70683987  7.79773066  7.39879301
  -4.92551098  8.51652610  7.37448897
  -4.94394873  9.93743290  7.35904132
  -2.48311279  8.51153038  7.38826240
  -2.47639169  9.92015739  7.37658808
  -0.03950731  8.51101343  7.48227644
  -0.00424259  9.92536476  7.44344994
   2.44989620  8.42848120  7.70292442
   2.48591637  9.84854422  7.52644044
   4.99854356  8.48613103  7.31670544
   4.96759723  9.88991033  7.33798292
   7.47677370  8.51287432  7.38956552
   7.45140359  9.92955814  7.34894622
  -6.17424798 10.64527747  7.34799888
  -6.17786526 12.06635872  7.34793255
  -3.70489169 10.63312767  7.35961467
  -3.70357317 12.06040674  7.35908443
  -1.24116826 10.62511751  7.39052769
  -1.24155053 12.04999476  7.37165622
   1.24707118 10.59547684  7.45079013
   1.24617546 12.02297673  7.39241775
   3.71738337 10.59026450  7.42075855
   3.71978254 12.01055504  7.37845139
   6.20650639 10.62179015  7.32769551
   6.20456894 12.04378364  7.33917482
   3.92263670  7.10308805  8.16629413
   3.41390496  6.64777115  9.95255648
   3.13002999  6.43381814 11.06172854
 


--------------------------------------------------------------------------------------------------------


 k-point  1 :   0.0000 0.0000 0.0000  plane waves:   59577
 k-point  2 :   0.3333-0.0000 0.0000  plane waves:   59550
 k-point  3 :   0.0000 0.3333 0.0000  plane waves:   59602
 k-point  4 :   0.3333 0.3333 0.0000  plane waves:   59628
 k-point  5 :  -0.3333 0.3333 0.0000  plane waves:   59552

 maximum and minimum number of plane-waves per node :      4994     4923

 maximum number of plane-waves:     59628
 maximum index in each direction: 
   IXMAX=   25   IYMAX=   25   IZMAX=   25
   IXMIN=  -25   IYMIN=  -25   IZMIN=  -25


 parallel 3D FFT for wavefunctions:
    minimum data exchange during FFTs selected (reduces bandwidth)
 parallel 3D FFT for charge:
    minimum data exchange during FFTs selected (reduces bandwidth)


 total amount of memory used by VASP MPI-rank0   116094. kBytes
=======================================================================

   base      :      30000. kBytes
   nonl-proj :      27308. kBytes
   fftplans  :       4700. kBytes
   grid      :      15193. kBytes
   one-center:        217. kBytes
   wavefun   :      38676. kBytes
 
     INWAV:  cpu time    0.0000: real time    0.0002
 Broyden mixing: mesh for mixing (old mesh)
   NGX = 51   NGY = 51   NGZ = 51
  (NGX  =160   NGY  =160   NGZ  =160)
  gives a total of 132651 points

 initial charge density was supplied:
 charge density of overlapping atoms calculated
 number of electron     303.0000000 magnetization       2.0000000
 keeping initial charge density in first step


--------------------------------------------------------------------------------------------------------


 Maximum index for augmentation-charges          179 (set IRDMAX)


--------------------------------------------------------------------------------------------------------


 First call to EWALD:  gamma=   0.125
 Maximum number of real-space cells 3x 3x 3
 Maximum number of reciprocal cells 3x 3x 3

    FEWALD:  cpu time    0.0042: real time    0.0044


--------------------------------------- Iteration      1(   1)  ---------------------------------------


    POTLOK:  cpu time    0.1962: real time    0.2429
    SETDIJ:  cpu time    0.0086: real time    0.0093
     EDDAV:  cpu time   11.5332: real time   11.6470
 BZINTS: Fermi energy:  8.083568;303.000000 electrons
         Band energy:***********;  BLOECHL correction: -0.010407
       DOS:  cpu time    0.1168: real time    0.1174
    --------------------------------------------
      LOOP:  cpu time   11.8548: real time   12.0167

 eigenvalue-minimisations  :  4392
 total energy-change (2. order) : 0.2525402E+04  (-0.1121779E+05)
 number of electron     303.0000000 magnetization       2.0000000
 augmentation part      303.0000000 magnetization       2.0000000

 Free energy of the ion-electron system (eV)
  ---------------------------------------------------
  alpha Z        PSCENC =       167.27276889
  Ewald energy   TEWEN  =     30863.15479551
  -Hartree energ DENC   =    -40533.55336566
  -exchange      EXHF   =         0.00000000
  -V(xc)+E(xc)   XCENC  =      1023.28763122
  PAW double counting   =      9455.23336183    -9546.47664214
  entropy T*S    EENTRO =         0.00000000
  eigenvalues    EBANDS =     -1548.26928463
  atomic energy  EATOM  =     12644.75315347
  Solvation  Ediel_sol  =         0.00000000
  ---------------------------------------------------
  free energy    TOTEN  =      2525.40241851 eV

  energy without entropy =     2525.40241851  energy(sigma->0) =     2525.40241851


--------------------------------------------------------------------------------------------------------




--------------------------------------- Iteration      1(   2)  ---------------------------------------


     EDDAV:  cpu time   14.8754: real time   15.2220
 BZINTS: Fermi energy: -1.925731;303.000000 electrons
         Band energy:***********;  BLOECHL correction:  0.000000
       DOS:  cpu time    0.0044: real time    0.0044
    --------------------------------------------
      LOOP:  cpu time   14.8798: real time   15.2264

 eigenvalue-minimisations  :  5448
 total energy-change (2. order) :-0.2766188E+04  (-0.2639989E+04)
 number of electron     303.0000000 magnetization       2.0000000
 augmentation part      303.0000000 magnetization       2.0000000

 Free energy of the ion-electron system (eV)
  ---------------------------------------------------
  alpha Z        PSCENC =       167.27276889
  Ewald energy   TEWEN  =     30863.15479551
  -Hartree energ DENC   =    -40533.55336566
  -exchange      EXHF   =         0.00000000
  -V(xc)+E(xc)   XCENC  =      1023.28763122
  PAW double counting   =      9455.23336183    -9546.47664214
  entropy T*S    EENTRO =         0.00000000
  eigenvalues    EBANDS =     -4314.45724992
  atomic energy  EATOM  =     12644.75315347
  Solvation  Ediel_sol  =         0.00000000
  ---------------------------------------------------
  free energy    TOTEN  =      -240.78554678 eV

  energy without entropy =     -240.78554678  energy(sigma->0) =     -240.78554678


--------------------------------------------------------------------------------------------------------




--------------------------------------- Iteration      1(   3)  ---------------------------------------


     EDDAV:  cpu time   12.4714: real time   12.7217
 BZINTS: Fermi energy: -4.583781;303.000000 electrons
         Band energy:***********;  BLOECHL correction: -0.040884
       DOS:  cpu time    0.0115: real time    0.0115
    --------------------------------------------
      LOOP:  cpu time   12.4829: real time   12.7332

 eigenvalue-minimisations  :  4600
 total energy-change (2. order) :-0.4594525E+03  (-0.4552467E+03)
 number of electron     303.0000000 magnetization       2.0000000
 augmentation part      303.0000000 magnetization       2.0000000

 Free energy of the ion-electron system (eV)
  ---------------------------------------------------
  alpha Z        PSCENC =       167.27276889
  Ewald energy   TEWEN  =     30863.15479551
  -Hartree energ DENC   =    -40533.55336566
  -exchange      EXHF   =         0.00000000
  -V(xc)+E(xc)   XCENC  =      1023.28763122
  PAW double counting   =      9455.23336183    -9546.47664214
  entropy T*S    EENTRO =         0.00000000
  eigenvalues    EBANDS =     -4773.90977139
  atomic energy  EATOM  =     12644.75315347
  Solvation  Ediel_sol  =         0.00000000
  ---------------------------------------------------
  free energy    TOTEN  =      -700.23806826 eV

  energy without entropy =     -700.23806826  energy(sigma->0) =     -700.23806826


--------------------------------------------------------------------------------------------------------




--------------------------------------- Iteration      1(   4)  ---------------------------------------


     EDDAV:  cpu time   12.9364: real time   13.2074
 BZINTS: Fermi energy: -4.725296;303.000000 electrons
         Band energy:***********;  BLOECHL correction: -0.044765
       DOS:  cpu time    0.0116: real time    0.0117
    --------------------------------------------
      LOOP:  cpu time   12.9480: real time   13.2191

 eigenvalue-minimisations  :  4656
 total energy-change (2. order) :-0.1667239E+02  (-0.1653219E+02)
 number of electron     303.0000000 magnetization       2.0000000
 augmentation part      303.0000000 magnetization       2.0000000

 Free energy of the ion-electron system (eV)
  ---------------------------------------------------
  alpha Z        PSCENC =       167.27276889
  Ewald energy   TEWEN  =     30863.15479551
  -Hartree energ DENC   =    -40533.55336566
  -exchange      EXHF   =         0.00000000
  -V(xc)+E(xc)   XCENC  =      1023.28763122
  PAW double counting   =      9455.23336183    -9546.47664214
  entropy T*S    EENTRO =         0.00000000
  eigenvalues    EBANDS =     -4790.58216189
  atomic energy  EATOM  =     12644.75315347
  Solvation  Ediel_sol  =         0.00000000
  ---------------------------------------------------
  free energy    TOTEN  =      -716.91045875 eV

  energy without entropy =     -716.91045875  energy(sigma->0) =     -716.91045875


--------------------------------------------------------------------------------------------------------




--------------------------------------- Iteration      1(   5)  ---------------------------------------


     EDDAV:  cpu time   14.2934: real time   14.5246
 BZINTS: Fermi energy: -4.733061;303.000000 electrons
         Band energy:***********;  BLOECHL correction: -0.045153
       DOS:  cpu time    0.0109: real time    0.0109
    CHARGE:  cpu time    0.1692: real time    0.1727
    MIXING:  cpu time    0.0049: real time    0.0050
    --------------------------------------------
      LOOP:  cpu time   14.4784: real time   14.7132

 eigenvalue-minimisations  :  5264
 total energy-change (2. order) :-0.5499557E+00  (-0.5481768E+00)
 number of electron     302.9999942 magnetization       0.0500888
 augmentation part       12.4705444 magnetization       0.0869112

 Broyden mixing:
  rms(total) = 0.47918E+01    rms(broyden)= 0.47912E+01
  rms(prec ) = 0.54790E+01
  weight for this iteration     100.00

 Free energy of the ion-electron system (eV)
  ---------------------------------------------------
  alpha Z        PSCENC =       167.27276889
  Ewald energy   TEWEN  =     30863.15479551
  -Hartree energ DENC   =    -40533.55336566
  -exchange      EXHF   =         0.00000000
  -V(xc)+E(xc)   XCENC  =      1023.28763122
  PAW double counting   =      9455.23336183    -9546.47664214
  entropy T*S    EENTRO =         0.00000000
  eigenvalues    EBANDS =     -4791.13211763
  atomic energy  EATOM  =     12644.75315347
  Solvation  Ediel_sol  =         0.00000000
  ---------------------------------------------------
  free energy    TOTEN  =      -717.46041450 eV

  energy without entropy =     -717.46041450  energy(sigma->0) =     -717.46041450


--------------------------------------------------------------------------------------------------------




--------------------------------------- Iteration      1(   6)  ---------------------------------------


    POTLOK:  cpu time    0.1369: real time    0.1394
    SETDIJ:  cpu time    0.0099: real time    0.0100
     EDDAV:  cpu time   12.3388: real time   12.4291
 BZINTS: Fermi energy: -5.544710;303.000000 electrons
         Band energy:***********;  BLOECHL correction: -0.013279
       DOS:  cpu time    0.0118: real time    0.0119
    CHARGE:  cpu time    0.1657: real time    0.1728
    MIXING:  cpu time    0.0033: real time    0.0037
    --------------------------------------------
      LOOP:  cpu time   12.6664: real time   12.7669

 eigenvalue-minimisations  :  4752
 total energy-change (2. order) : 0.5723585E+01  (-0.7228986E+01)
 number of electron     302.9999911 magnetization       0.0355561
 augmentation part       17.8441621 magnetization       0.0732935

 Broyden mixing:
  rms(total) = 0.72162E+01    rms(broyden)= 0.72159E+01
  rms(prec ) = 0.82459E+01
  weight for this iteration     100.00

 eigenvalues of (default mixing * dielectric matrix)
  average eigenvalue GAMMA=   0.2803
  0.2803

 Free energy of the ion-electron system (eV)
  ---------------------------------------------------
  alpha Z        PSCENC =       167.27276889
  Ewald energy   TEWEN  =     30863.15479551
  -Hartree energ DENC   =    -40895.00975675
  -exchange      EXHF   =         0.00000000
  -V(xc)+E(xc)   XCENC  =      1035.89648324
  PAW double counting   =     13273.08124537   -13364.66824774
  entropy T*S    EENTRO =         0.00000000
  eigenvalues    EBANDS =     -4436.21727110
  atomic energy  EATOM  =     12644.75315347
  Solvation  Ediel_sol  =         0.00000000
  ---------------------------------------------------
  free energy    TOTEN  =      -711.73682911 eV

  energy without entropy =     -711.73682911  energy(sigma->0) =     -711.73682911


--------------------------------------------------------------------------------------------------------




--------------------------------------- Iteration      1(   7)  ---------------------------------------


    POTLOK:  cpu time    0.1349: real time    0.1415
    SETDIJ:  cpu time    0.0099: real time    0.0102
     EDDAV:  cpu time   13.5777: real time   13.7417
 BZINTS: Fermi energy: -4.001644;303.000000 electrons
         Band energy:***********;  BLOECHL correction: -0.009463
       DOS:  cpu time    0.0109: real time    0.0109
    CHARGE:  cpu time    0.1929: real time    0.1987
    MIXING:  cpu time    0.0041: real time    0.0041
    --------------------------------------------
      LOOP:  cpu time   13.9304: real time   14.1072

 eigenvalue-minimisations  :  5256
 total energy-change (2. order) : 0.3630689E+02  (-0.7568257E+01)
 number of electron     302.9999938 magnetization       0.5285745
 augmentation part       13.9929480 magnetization       0.2401117

 Broyden mixing:
  rms(total) = 0.25381E+01    rms(broyden)= 0.25377E+01
  rms(prec ) = 0.27740E+01
  weight for this iteration     100.00

 eigenvalues of (default mixing * dielectric matrix)
  average eigenvalue GAMMA=   0.7531
  1.2234  0.2827

 Free energy of the ion-electron system (eV)
  ---------------------------------------------------
  alpha Z        PSCENC =       167.27276889
  Ewald energy   TEWEN  =     30863.15479551
  -Hartree energ DENC   =    -41046.78664992
  -exchange      EXHF   =         0.00000000
  -V(xc)+E(xc)   XCENC  =      1040.23857210
  PAW double counting   =     14455.15835324   -14551.06826761
  entropy T*S    EENTRO =         0.00000000
  eigenvalues    EBANDS =     -4248.15266427
  atomic energy  EATOM  =     12644.75315347
  Solvation  Ediel_sol  =         0.00000000
  ---------------------------------------------------
  free energy    TOTEN  =      -675.42993858 eV

  energy without entropy =     -675.42993858  energy(sigma->0) =     -675.42993858


--------------------------------------------------------------------------------------------------------




--------------------------------------- Iteration      1(   8)  ---------------------------------------


    POTLOK:  cpu time    0.1342: real time    0.1367
    SETDIJ:  cpu time    0.0098: real time    0.0098
     EDDAV:  cpu time   12.7119: real time   12.8251
 BZINTS: Fermi energy: -2.486065;303.000000 electrons
         Band energy:***********;  BLOECHL correction: -0.032256
       DOS:  cpu time    0.0113: real time    0.0114
    CHARGE:  cpu time    0.1850: real time    0.1868
    MIXING:  cpu time    0.0036: real time    0.0036
    --------------------------------------------
      LOOP:  cpu time   13.0558: real time   13.1734

 eigenvalue-minimisations  :  4792
 total energy-change (2. order) : 0.6695069E+01  (-0.3053047E+01)
 number of electron     302.9999941 magnetization       0.1269465
 augmentation part       12.4860675 magnetization       0.0826495

 Broyden mixing:
  rms(total) = 0.22657E+01    rms(broyden)= 0.22653E+01
  rms(prec ) = 0.26264E+01
  weight for this iteration     100.00

 eigenvalues of (default mixing * dielectric matrix)
  average eigenvalue GAMMA=   1.2256
  2.8077  0.5519  0.3171

 Free energy of the ion-electron system (eV)
  ---------------------------------------------------
  alpha Z        PSCENC =       167.27276889
  Ewald energy   TEWEN  =     30863.15479551
  -Hartree energ DENC   =    -41366.28246400
  -exchange      EXHF   =         0.00000000
  -V(xc)+E(xc)   XCENC  =      1051.54198879
  PAW double counting   =     18879.13540351   -18978.50368533
  entropy T*S    EENTRO =         0.00000000
  eigenvalues    EBANDS =     -3929.80683048
  atomic energy  EATOM  =     12644.75315347
  Solvation  Ediel_sol  =         0.00000000
  ---------------------------------------------------
  free energy    TOTEN  =      -668.73486963 eV

  energy without entropy =     -668.73486963  energy(sigma->0) =     -668.73486963


--------------------------------------------------------------------------------------------------------




--------------------------------------- Iteration      1(   9)  ---------------------------------------


    POTLOK:  cpu time    0.1421: real time    0.1444
    SETDIJ:  cpu time    0.0103: real time    0.0103
     EDDAV:  cpu time   12.2919: real time   12.4500
 BZINTS: Fermi energy: -2.743260;303.000000 electrons
         Band energy:***********;  BLOECHL correction: -0.055967
       DOS:  cpu time    0.0117: real time    0.0117
    CHARGE:  cpu time    0.1919: real time    0.1938
    MIXING:  cpu time    0.0039: real time    0.0039
    --------------------------------------------
      LOOP:  cpu time   12.6517: real time   12.8141

 eigenvalue-minimisations  :  4672
 total energy-change (2. order) : 0.3783767E+01  (-0.2236251E+01)
 number of electron     302.9999935 magnetization       0.0257961
 augmentation part       14.4518457 magnetization      -0.1366978

 Broyden mixing:
  rms(total) = 0.15651E+01    rms(broyden)= 0.15642E+01
  rms(prec ) = 0.19396E+01
  weight for this iteration     100.00

 eigenvalues of (default mixing * dielectric matrix)
  average eigenvalue GAMMA=   1.2177
  3.1534  1.0069  0.3553  0.3553

 Free energy of the ion-electron system (eV)
  ---------------------------------------------------
  alpha Z        PSCENC =       167.27276889
  Ewald energy   TEWEN  =     30863.15479551
  -Hartree energ DENC   =    -41753.04500615
  -exchange      EXHF   =         0.00000000
  -V(xc)+E(xc)   XCENC  =      1065.78127261
  PAW double counting   =     26547.86598045   -26650.44778546
  entropy T*S    EENTRO =         0.00000000
  eigenvalues    EBANDS =     -3550.28628195
  atomic energy  EATOM  =     12644.75315347
  Solvation  Ediel_sol  =         0.00000000
  ---------------------------------------------------
  free energy    TOTEN  =      -664.95110263 eV

  energy without entropy =     -664.95110263  energy(sigma->0) =     -664.95110263


--------------------------------------------------------------------------------------------------------




--------------------------------------- Iteration      1(  10)  ---------------------------------------


    POTLOK:  cpu time    0.1353: real time    0.1378
    SETDIJ:  cpu time    0.0105: real time    0.0106
     EDDAV:  cpu time   13.4877: real time   13.6221
 BZINTS: Fermi energy: -1.918115;303.000000 electrons
         Band energy:***********;  BLOECHL correction: -0.004348
       DOS:  cpu time    0.0115: real time    0.0115
    CHARGE:  cpu time    0.1636: real time    0.1644
    MIXING:  cpu time    0.0039: real time    0.0039
    --------------------------------------------
      LOOP:  cpu time   13.8125: real time   13.9502

 eigenvalue-minimisations  :  5272
 total energy-change (2. order) : 0.1475385E+01  (-0.9684786E+00)
 number of electron     302.9999942 magnetization      -0.0566978
 augmentation part       12.9911851 magnetization      -0.0586881

 Broyden mixing:
  rms(total) = 0.76504E+00    rms(broyden)= 0.76431E+00
  rms(prec ) = 0.84800E+00
  weight for this iteration     100.00

 eigenvalues of (default mixing * dielectric matrix)
  average eigenvalue GAMMA=   1.2737
  3.5211  1.3821  0.7767  0.3443  0.3443

 Free energy of the ion-electron system (eV)
  ---------------------------------------------------
  alpha Z        PSCENC =       167.27276889
  Ewald energy   TEWEN  =     30863.15479551
  -Hartree energ DENC   =    -41769.96384002
  -exchange      EXHF   =         0.00000000
  -V(xc)+E(xc)   XCENC  =      1066.34878779
  PAW double counting   =     28346.68270025   -28449.53290973
  entropy T*S    EENTRO =         0.00000000
  eigenvalues    EBANDS =     -3532.19117395
  atomic energy  EATOM  =     12644.75315347
  Solvation  Ediel_sol  =         0.00000000
  ---------------------------------------------------
  free energy    TOTEN  =      -663.47571778 eV

  energy without entropy =     -663.47571778  energy(sigma->0) =     -663.47571778


--------------------------------------------------------------------------------------------------------




--------------------------------------- Iteration      1(  11)  ---------------------------------------


    POTLOK:  cpu time    0.1147: real time    0.1173
    SETDIJ:  cpu time    0.0082: real time    0.0082
     EDDAV:  cpu time   13.0740: real time   13.1705
 BZINTS: Fermi energy: -1.956945;303.000000 electrons
         Band energy:***********;  BLOECHL correction: -0.004160
       DOS:  cpu time    0.0117: real time    0.0117
    CHARGE:  cpu time    0.1634: real time    0.1644
    MIXING:  cpu time    0.0039: real time    0.0040
    --------------------------------------------
      LOOP:  cpu time   13.3759: real time   13.4762

 eigenvalue-minimisations  :  5072
 total energy-change (2. order) : 0.2177309E+00  (-0.9913263E-01)
 number of electron     302.9999939 magnetization      -0.7450704
 augmentation part       13.1476948 magnetization      -0.2949561

 Broyden mixing:
  rms(total) = 0.56356E+00    rms(broyden)= 0.56333E+00
  rms(prec ) = 0.61391E+00
  weight for this iteration     100.00

 eigenvalues of (default mixing * dielectric matrix)
  average eigenvalue GAMMA=   1.1801
  3.5485  1.4518  1.0129  0.3423  0.3423  0.3829

 Free energy of the ion-electron system (eV)
  ---------------------------------------------------
  alpha Z        PSCENC =       167.27276889
  Ewald energy   TEWEN  =     30863.15479551
  -Hartree energ DENC   =    -41741.99443448
  -exchange      EXHF   =         0.00000000
  -V(xc)+E(xc)   XCENC  =      1065.94820438
  PAW double counting   =     30071.94603617   -30174.35130399
  entropy T*S    EENTRO =         0.00000000
  eigenvalues    EBANDS =     -3559.98720686
  atomic energy  EATOM  =     12644.75315347
  Solvation  Ediel_sol  =         0.00000000
  ---------------------------------------------------
  free energy    TOTEN  =      -663.25798691 eV

  energy without entropy =     -663.25798691  energy(sigma->0) =     -663.25798691


--------------------------------------------------------------------------------------------------------




--------------------------------------- Iteration      1(  12)  ---------------------------------------


    POTLOK:  cpu time    0.1356: real time    0.1379
    SETDIJ:  cpu time    0.0092: real time    0.0095
     EDDAV:  cpu time   12.3932: real time   12.4699
 BZINTS: Fermi energy: -2.182044;303.000000 electrons
         Band energy:***********;  BLOECHL correction:  0.000000
       DOS:  cpu time    0.0073: real time    0.0074
    CHARGE:  cpu time    0.1641: real time    0.1663
    MIXING:  cpu time    0.0036: real time    0.0036
    --------------------------------------------
      LOOP:  cpu time   12.7131: real time   12.7947

 eigenvalue-minimisations  :  4744
 total energy-change (2. order) : 0.1125721E-01  (-0.5283262E-01)
 number of electron     302.9999938 magnetization      -1.1104360
 augmentation part       13.4378312 magnetization      -0.5411185

 Broyden mixing:
  rms(total) = 0.43408E+00    rms(broyden)= 0.43377E+00
  rms(prec ) = 0.44843E+00
  weight for this iteration     100.00

 eigenvalues of (default mixing * dielectric matrix)
  average eigenvalue GAMMA=   1.2718
  3.6232  1.8378  1.2039  0.7708  0.7708  0.3482  0.3482

 Free energy of the ion-electron system (eV)
  ---------------------------------------------------
  alpha Z        PSCENC =       167.27276889
  Ewald energy   TEWEN  =     30863.15479551
  -Hartree energ DENC   =    -41699.22310524
  -exchange      EXHF   =         0.00000000
  -V(xc)+E(xc)   XCENC  =      1064.70199467
  PAW double counting   =     31070.01155219   -31171.86724900
  entropy T*S    EENTRO =         0.00000000
  eigenvalues    EBANDS =     -3602.05064020
  atomic energy  EATOM  =     12644.75315347
  Solvation  Ediel_sol  =         0.00000000
  ---------------------------------------------------
  free energy    TOTEN  =      -663.24672970 eV

  energy without entropy =     -663.24672970  energy(sigma->0) =     -663.24672970


--------------------------------------------------------------------------------------------------------




--------------------------------------- Iteration      1(  13)  ---------------------------------------


    POTLOK:  cpu time    0.1345: real time    0.1367
    SETDIJ:  cpu time    0.0099: real time    0.0100
     EDDAV:  cpu time   12.5835: real time   12.7740
 BZINTS: Fermi energy: -2.277069;303.000000 electrons
         Band energy:***********;  BLOECHL correction:  0.000000
       DOS:  cpu time    0.0077: real time    0.0077
    CHARGE:  cpu time    0.1640: real time    0.1658
    MIXING:  cpu time    0.0041: real time    0.0041
    --------------------------------------------
      LOOP:  cpu time   12.9037: real time   13.0983

 eigenvalue-minimisations  :  4760
 total energy-change (2. order) :-0.3939525E-01  (-0.2955291E-01)
 number of electron     302.9999938 magnetization      -0.9661219
 augmentation part       13.4378604 magnetization      -0.5566028

 Broyden mixing:
  rms(total) = 0.25001E+00    rms(broyden)= 0.24986E+00
  rms(prec ) = 0.26269E+00
  weight for this iteration     100.00

 eigenvalues of (default mixing * dielectric matrix)
  average eigenvalue GAMMA=   1.3008
  3.7433  1.8566  1.6696  0.8844  0.8844  0.3480  0.3480  0.6719

 Free energy of the ion-electron system (eV)
  ---------------------------------------------------
  alpha Z        PSCENC =       167.27276889
  Ewald energy   TEWEN  =     30863.15479551
  -Hartree energ DENC   =    -41675.40793686
  -exchange      EXHF   =         0.00000000
  -V(xc)+E(xc)   XCENC  =      1064.00028165
  PAW double counting   =     31750.49973656   -31851.97102274
  entropy T*S    EENTRO =         0.00000000
  eigenvalues    EBANDS =     -3625.58790144
  atomic energy  EATOM  =     12644.75315347
  Solvation  Ediel_sol  =         0.00000000
  ---------------------------------------------------
  free energy    TOTEN  =      -663.28612495 eV

  energy without entropy =     -663.28612495  energy(sigma->0) =     -663.28612495


--------------------------------------------------------------------------------------------------------




--------------------------------------- Iteration      1(  14)  ---------------------------------------


    POTLOK:  cpu time    0.1346: real time    0.1369
    SETDIJ:  cpu time    0.0103: real time    0.0104
     EDDAV:  cpu time   12.1228: real time   12.2824
 BZINTS: Fermi energy: -2.282070;303.000000 electrons
         Band energy:***********;  BLOECHL correction:  0.000000
       DOS:  cpu time    0.0079: real time    0.0080
    CHARGE:  cpu time    0.1628: real time    0.1637
    MIXING:  cpu time    0.0042: real time    0.0043
    --------------------------------------------
      LOOP:  cpu time   12.4426: real time   12.6057

 eigenvalue-minimisations  :  4664
 total energy-change (2. order) :-0.2491080E-02  (-0.3193125E-02)
 number of electron     302.9999938 magnetization      -0.9909622
 augmentation part       13.4424201 magnetization      -0.6047898

 Broyden mixing:
  rms(total) = 0.20776E+00    rms(broyden)= 0.20775E+00
  rms(prec ) = 0.22168E+00
  weight for this iteration     100.00

 eigenvalues of (default mixing * dielectric matrix)
  average eigenvalue GAMMA=   1.3372
  3.7548  2.3282  1.7371  1.0672  1.0672  0.3483  0.3483  0.6919  0.6919

 Free energy of the ion-electron system (eV)
  ---------------------------------------------------
  alpha Z        PSCENC =       167.27276889
  Ewald energy   TEWEN  =     30863.15479551
  -Hartree energ DENC   =    -41677.16906040
  -exchange      EXHF   =         0.00000000
  -V(xc)+E(xc)   XCENC  =      1064.04689072
  PAW double counting   =     31850.99260299   -31952.41379671
  entropy T*S    EENTRO =         0.00000000
  eigenvalues    EBANDS =     -3623.92597049
  atomic energy  EATOM  =     12644.75315347
  Solvation  Ediel_sol  =         0.00000000
  ---------------------------------------------------
  free energy    TOTEN  =      -663.28861603 eV

  energy without entropy =     -663.28861603  energy(sigma->0) =     -663.28861603


--------------------------------------------------------------------------------------------------------




--------------------------------------- Iteration      1(  15)  ---------------------------------------


    POTLOK:  cpu time    0.1416: real time    0.1437
    SETDIJ:  cpu time    0.0099: real time    0.0100
     EDDAV:  cpu time   12.5944: real time   12.7252
 BZINTS: Fermi energy: -2.282070;303.000000 electrons
         Band energy:***********;  BLOECHL correction:  0.000000
       DOS:  cpu time    0.0075: real time    0.0075
    CHARGE:  cpu time    0.2121: real time    0.2136
    MIXING:  cpu time    0.0046: real time    0.0046
    --------------------------------------------
      LOOP:  cpu time   12.9700: real time   13.1045

 eigenvalue-minimisations  :  4712
 total energy-change (2. order) : 0.2292079E-02  (-0.1532044E-02)
 number of electron     302.9999938 magnetization      -1.0174196
 augmentation part       13.4205527 magnetization      -0.6464947

 Broyden mixing:
  rms(total) = 0.15065E+00    rms(broyden)= 0.15065E+00
  rms(prec ) = 0.16149E+00
  weight for this iteration     100.00

 eigenvalues of (default mixing * dielectric matrix)
  average eigenvalue GAMMA=   1.3601
  3.7118  2.2613  2.2613  1.2050  1.2050  0.3482  0.3482  0.7792  0.7792  0.7022

 Free energy of the ion-electron system (eV)
  ---------------------------------------------------
  alpha Z        PSCENC =       167.27276889
  Ewald energy   TEWEN  =     30863.15479551
  -Hartree energ DENC   =    -41678.16676210
  -exchange      EXHF   =         0.00000000
  -V(xc)+E(xc)   XCENC  =      1064.06392131
  PAW double counting   =     31868.31391299   -31969.67430451
  entropy T*S    EENTRO =         0.00000000
  eigenvalues    EBANDS =     -3623.00380951
  atomic energy  EATOM  =     12644.75315347
  Solvation  Ediel_sol  =         0.00000000
  ---------------------------------------------------
  free energy    TOTEN  =      -663.28632395 eV

  energy without entropy =     -663.28632395  energy(sigma->0) =     -663.28632395


--------------------------------------------------------------------------------------------------------




--------------------------------------- Iteration      1(  16)  ---------------------------------------


    POTLOK:  cpu time    0.1340: real time    0.1364
    SETDIJ:  cpu time    0.0101: real time    0.0102
     EDDAV:  cpu time   12.9452: real time   13.1611
 BZINTS: Fermi energy: -2.277069;303.000000 electrons
         Band energy:***********;  BLOECHL correction:  0.000000
       DOS:  cpu time    0.0075: real time    0.0075
    CHARGE:  cpu time    0.2081: real time    0.2125
    MIXING:  cpu time    0.0045: real time    0.0048
    --------------------------------------------
      LOOP:  cpu time   13.3094: real time   13.5326

 eigenvalue-minimisations  :  4992
 total energy-change (2. order) : 0.2355152E-02  (-0.3826437E-03)
 number of electron     302.9999938 magnetization      -1.0131086
 augmentation part       13.4008912 magnetization      -0.6472275

 Broyden mixing:
  rms(total) = 0.11031E+00    rms(broyden)= 0.11031E+00
  rms(prec ) = 0.11644E+00
  weight for this iteration     100.00

 eigenvalues of (default mixing * dielectric matrix)
  average eigenvalue GAMMA=   1.3681
  3.6983  2.5367  2.1881  1.3855  1.3855  0.3482  0.3482  0.8583  0.8583  0.7207
  0.7207

 Free energy of the ion-electron system (eV)
  ---------------------------------------------------
  alpha Z        PSCENC =       167.27276889
  Ewald energy   TEWEN  =     30863.15479551
  -Hartree energ DENC   =    -41678.31196509
  -exchange      EXHF   =         0.00000000
  -V(xc)+E(xc)   XCENC  =      1064.06148740
  PAW double counting   =     31868.01898505   -31969.31476512
  entropy T*S    EENTRO =         0.00000000
  eigenvalues    EBANDS =     -3622.91842892
  atomic energy  EATOM  =     12644.75315347
  Solvation  Ediel_sol  =         0.00000000
  ---------------------------------------------------
  free energy    TOTEN  =      -663.28396880 eV

[...]
   -.867E+01 0.826E+01 0.126E+02   0.143E+02 -.113E+02 -.124E+02   -.568E+01 0.315E+01 -.264E+00   -.793E-02 0.241E-02 -.282E-02
   0.382E+02 0.166E+02 0.187E+02   -.368E+02 -.168E+02 -.184E+02   -.137E+01 0.260E+00 -.318E+00   -.251E-01 -.137E-01 -.151E-01
   0.358E+02 -.236E+02 0.140E+02   -.339E+02 0.234E+02 -.135E+02   -.191E+01 0.856E-01 -.441E+00   -.318E-01 0.862E-02 -.150E-01
   -.517E+02 0.147E+02 0.528E+02   0.515E+02 -.153E+02 -.544E+02   0.148E+00 0.642E+00 0.171E+01   0.359E-01 -.235E-01 -.210E-01
   -.499E+02 -.187E+02 0.574E+02   0.494E+02 0.195E+02 -.587E+02   0.480E+00 -.879E+00 0.135E+01   0.441E-01 0.103E-01 -.230E-01
   -.112E+02 0.418E+01 0.481E+01   0.109E+02 -.439E+01 -.467E+01   0.310E+00 0.170E+00 -.128E+00   0.486E-02 0.250E-02 -.395E-02
   -.109E+02 -.359E+01 0.455E+01   0.102E+02 0.333E+01 -.433E+01   0.640E+00 0.303E+00 -.216E+00   0.845E-02 0.956E-04 -.394E-02
   0.461E+01 -.336E+01 0.964E+01   -.600E+01 0.379E+01 -.966E+01   0.138E+01 -.370E+00 0.290E-01   0.608E-02 0.835E-03 -.170E-02
   0.341E+01 -.859E+01 0.109E+02   -.417E+01 0.903E+01 -.109E+02   0.767E+00 -.461E+00 -.632E-02   0.559E-02 -.218E-02 -.145E-02
   0.814E+01 -.652E+01 0.160E+02   -.787E+01 0.666E+01 -.162E+02   -.250E+00 -.888E-01 0.224E+00   0.514E-03 0.312E-03 -.187E-02
   0.378E+01 -.321E+02 0.121E+02   -.357E+01 0.383E+02 -.121E+02   -.146E+00 -.630E+01 0.481E-01   -.258E-03 -.646E-02 -.117E-02
   0.116E+02 -.121E+02 0.134E+02   -.962E+01 0.123E+02 -.135E+02   -.197E+01 -.140E+00 0.109E+00   -.124E-01 0.627E-03 -.465E-02
   0.371E+01 -.205E+02 0.100E+02   -.269E+01 0.209E+02 -.988E+01   -.104E+01 -.365E+00 -.125E+00   -.981E-02 -.278E-02 -.286E-02
   0.105E+02 -.544E+02 0.132E+01   -.379E+01 0.500E+02 0.680E+00   -.664E+01 0.436E+01 -.195E+01   -.673E-01 0.503E-01 -.354E-01
   0.462E+01 -.324E+02 0.809E+01   -.416E+01 0.308E+02 -.816E+01   -.443E+00 0.157E+01 0.676E-01   -.182E-01 0.108E-01 -.104E-01
   0.141E+01 -.550E+02 0.129E+03   -.899E+01 0.513E+02 -.130E+03   0.754E+01 0.353E+01 0.118E+01   0.522E-01 0.598E-01 -.533E-01
   -.343E+01 -.370E+02 0.500E+02   0.301E+01 0.362E+02 -.500E+02   0.390E+00 0.789E+00 0.317E-01   0.109E-01 0.151E-01 -.145E-01
   -.224E+02 -.111E+02 0.108E+02   0.220E+02 0.110E+02 -.105E+02   0.412E+00 0.518E-01 -.274E+00   0.131E-01 -.906E-05 -.745E-02
   -.100E+02 -.160E+02 0.189E+02   0.959E+01 0.160E+02 -.190E+02   0.474E+00 -.566E-01 0.721E-01   0.103E-01 0.235E-03 -.399E-02
   -.244E+01 -.718E+01 0.137E+02   0.192E+01 0.748E+01 -.137E+02   0.504E+00 -.281E+00 0.369E-01   0.863E-02 -.316E-02 -.176E-02
   -.830E+00 -.447E+01 0.135E+02   0.735E+00 0.470E+01 -.135E+02   0.131E+00 -.221E+00 0.234E-01   0.575E-02 -.329E-02 -.138E-02
   0.414E+01 -.124E+02 0.118E+02   -.515E+01 0.134E+02 -.119E+02   0.963E+00 -.985E+00 0.417E-01   0.193E-02 -.481E-02 -.106E-02
   0.257E+01 -.239E+01 0.116E+02   -.259E+01 0.311E+01 -.115E+02   0.338E-01 -.714E+00 -.233E-01   0.152E-02 -.499E-02 -.113E-02
   0.127E+01 -.155E+02 0.124E+02   -.300E-01 0.164E+02 -.124E+02   -.126E+01 -.895E+00 0.387E-01   -.572E-02 -.628E-02 -.146E-02
   0.602E+00 -.664E+01 0.121E+02   -.555E+00 0.731E+01 -.121E+02   -.679E-01 -.655E+00 0.772E-02   -.448E-02 -.567E-02 -.121E-02
   -.903E+00 -.179E+02 0.104E+02   0.203E+01 0.177E+02 -.105E+02   -.105E+01 0.239E+00 0.476E-01   -.112E-01 -.560E-03 -.370E-02
   0.204E+01 -.987E+01 0.128E+02   -.184E+01 0.975E+01 -.129E+02   -.199E+00 0.144E+00 0.936E-01   -.509E-02 -.858E-03 -.194E-02
   0.300E+01 -.220E+02 0.182E+02   -.319E+01 0.212E+02 -.179E+02   0.189E+00 0.803E+00 -.259E+00   -.355E-02 0.140E-01 -.880E-02
   -.638E+00 -.147E+02 0.138E+02   0.597E+00 0.142E+02 -.138E+02   0.104E-01 0.466E+00 0.288E-02   -.207E-02 0.380E-02 -.311E-02
   -.486E+01 -.169E+02 0.291E+02   0.418E+01 0.167E+02 -.292E+02   0.629E+00 0.187E+00 0.997E-01   0.954E-02 0.336E-02 -.497E-02
   -.313E+01 -.109E+02 0.168E+02   0.303E+01 0.109E+02 -.168E+02   0.107E+00 0.730E-01 -.135E-01   0.427E-02 0.232E-02 -.235E-02
   -.618E+02 -.775E+02 -.314E+03   0.527E+02 0.756E+02 0.306E+03   0.921E+01 0.186E+01 0.783E+01   -.858E-04 -.380E-01 -.126E+00
   -.258E+02 -.748E+01 -.265E+03   0.309E+02 0.114E+02 0.247E+03   -.511E+01 -.394E+01 0.182E+02   -.263E-01 -.257E-01 0.758E-01
   0.605E+02 0.527E+02 -.677E+03   -.748E+02 -.635E+02 0.733E+03   0.143E+02 0.108E+02 -.560E+02   -.181E-01 -.141E-01 0.444E-01
 -----------------------------------------------------------------------------------------------
   -.167E+02 -.978E+01 0.306E+02   0.711E-13 -.895E-12 -.796E-12   0.168E+02 0.984E+01 -.301E+02   -.296E-01 -.607E-01 -.458E+00
 
 
 POSITION                                       TOTAL-FORCE (eV/Angst)
 -----------------------------------------------------------------------------------
      0.01261      0.01192      7.34920        -0.001440      0.025768     -0.005870
      0.01358      1.43613      7.36713        -0.048530     -0.041770      0.007804
      2.48959      0.02110      7.36185        -0.037226     -0.015160      0.001288
      2.48560      1.44565      7.39144         0.066959     -0.018168      0.007224
      4.95851      0.01644      7.36289         0.022671     -0.013819      0.000932
      4.95808      1.43988      7.37296        -0.021516      0.012187     -0.004810
      0.00652     12.74073      7.37286         0.013457      0.044403     -0.000890
      7.43809      1.41257      7.36446         0.021855     -0.045912      0.002992
      2.48180     12.73133      7.37849         0.025074     -0.000010      0.006169
      9.91584      1.40006      7.35674        -0.086038     -0.021221      0.011344
      4.95893     12.73694      7.34561        -0.000290     -0.004485     -0.001305
     12.38866      1.40450      7.34868         0.071533      0.000004      0.001387
     -1.23390      2.12506      7.36565        -0.013440     -0.016582      0.000906
     -1.23458      3.54479      7.39345        -0.025701      0.014506     -0.001733
      1.25027      2.15756      7.40006        -0.022784      0.007621      0.013179
      1.24952      3.58548      7.46396         0.000938      0.058306      0.015940
      3.72079      2.16300      7.40584        -0.014661      0.007994     -0.007832
      3.71684      3.58679      7.46223        -0.023637      0.010868      0.008101
      6.20202      2.13205      7.36992        -0.003889      0.041279     -0.017266
      6.20232      3.55492      7.37288         0.044399     -0.019645      0.007924
      8.67975      2.11399      7.35798         0.013376     -0.004805      0.013061
      8.68345      3.53664      7.36758        -0.018935     -0.010961      0.007453
     11.15028      2.11293      7.35199         0.029281      0.000651      0.012197
     11.15078      3.53377      7.36102        -0.002125      0.041656     -0.001807
     12.38452      4.24712      7.37800         0.019506      0.006152      0.000382
     -2.48154      5.66673      7.38797        -0.036534     -0.003036      0.000726
     -0.00846      4.26019      7.45128         0.004862     -0.001748      0.004268
     -0.02689      5.68209      7.48653         0.030636     -0.001905      0.007800
      2.48687      4.32780      7.55181         0.027433      0.008451     -0.008630
      2.46177      5.75562      7.71817         0.010712      0.010172     -0.002279
      4.96543      4.28262      7.40407        -0.041104     -0.011035      0.010878
      4.99473      5.68859      7.42728        -0.012463      0.055640     -0.053515
      7.44939      4.24769      7.38692         0.023963      0.014712     -0.009446
      7.46714      5.66666      7.41915        -0.012472     -0.025901     -0.007226
      9.92007      4.24779      7.36880         0.010477      0.028736      0.002778
      9.92382      5.67432      7.38088         0.031782     -0.038730      0.001870
     -3.70155      6.39095      7.37929         0.016452     -0.065295     -0.006269
     -3.69792      7.80860      7.37814        -0.011442      0.013403      0.006383
     -1.26595      6.39242      7.42789        -0.000742     -0.109311      0.008348
     -1.26974      7.80495      7.43012        -0.018464      0.093087      0.005981
      1.18555      6.38231      7.60443        -0.000533      0.014283     -0.008740
      1.17873      7.79940      7.59979        -0.003740     -0.041002      0.011784
      6.23924      6.37163      7.39515         0.001086      0.038113     -0.018424
      6.24289      7.81061      7.36185        -0.011380     -0.012490      0.011906
      8.69852      6.37985      7.40545        -0.002874     -0.040017      0.008073
      8.70684      7.79773      7.39879        -0.010309      0.045417     -0.001851
     -4.92551      8.51653      7.37449         0.003331      0.061249      0.006043
     -4.94395      9.93743      7.35904         0.013400     -0.021230      0.005363
     -2.48311      8.51153      7.38826         0.020980      0.054472      0.002879
     -2.47639      9.92016      7.37659         0.060165     -0.047796      0.011172
     -0.03951      8.51101      7.48228         0.029857      0.014613      0.009949
     -0.00424      9.92536      7.44345        -0.037769     -0.022857      0.003408
      2.44990      8.42848      7.70292         0.029852     -0.001476      0.015481
      2.48592      9.84854      7.52644         0.020634      0.005606     -0.007927
      4.99854      8.48613      7.31671        -0.002014     -0.051699     -0.053922
      4.96760      9.88991      7.33798        -0.026037      0.028634      0.009456
      7.47677      8.51287      7.38957        -0.025745      0.016837     -0.010066
      7.45140      9.92956      7.34895         0.046508     -0.043590     -0.014584
     -6.17425     10.64528      7.34800        -0.011314      0.016763      0.004840
     -6.17787     12.06636      7.34793         0.040799      0.007799      0.009223
     -3.70489     10.63313      7.35961        -0.036568      0.024089      0.001501
     -3.70357     12.06041      7.35908         0.006221      0.001851      0.002103
     -1.24117     10.62512      7.39053        -0.026797     -0.012648      0.008673
     -1.24155     12.04999      7.37166        -0.022881      0.007007     -0.001864
      1.24707     10.59548      7.45079         0.065752     -0.021831      0.004609
      1.24618     12.02298      7.39242         0.002490      0.027819      0.009134
      3.71738     10.59026      7.42076        -0.002942     -0.007378     -0.000293
      3.71978     12.01056      7.37845        -0.034223     -0.033243     -0.007629
      6.20651     10.62179      7.32770        -0.040162     -0.011343     -0.003499
      6.20457     12.04378      7.33917         0.015208      0.012937     -0.012168
      3.92264      7.10309      8.16629         0.009005      0.009897      0.016584
      3.41390      6.64777      9.95256        -0.066438     -0.009735     -0.037961
      3.13003      6.43382     11.06173        -0.035494     -0.035147     -0.011690
 -----------------------------------------------------------------------------------
    total drift:                                0.012216      0.000915      0.017506


--------------------------------------------------------------------------------------------------------



  FREE ENERGIE OF THE ION-ELECTRON SYSTEM (eV)
  ---------------------------------------------------
  free  energy   TOTEN  =      -669.85392933 eV

  energy  without entropy=     -669.85392933  energy(sigma->0) =     -669.85392933
 


--------------------------------------------------------------------------------------------------------


    POTLOK:  cpu time    0.1454: real time    0.1460


--------------------------------------------------------------------------------------------------------


 stress matrix after NEB project (eV)
     -9.13313      0.54523     -0.25912
      0.54523     -1.99339     -0.13379
     -0.25912     -0.13379     -3.52129
  FORCES: max atom, RMS     0.109631    0.045910
  FORCE total and by dimension    0.392259    0.109311
  Stress total and by dimension   10.027557    9.133135
     LOOP+:  cpu time  276.2096: real time  279.7328
    4ORBIT:  cpu time    0.0000: real time    0.0000
 


 total charge     
 
# of ion       s       p       d       tot
------------------------------------------
    1        0.864   1.782   0.000   2.646
    2        0.864   1.780   0.000   2.644
    3        0.863   1.782   0.000   2.645
    4        0.864   1.782   0.000   2.646
    5        0.865   1.787   0.000   2.652
    6        0.864   1.781   0.000   2.645
    7        0.863   1.779   0.000   2.641
    8        0.864   1.779   0.000   2.642
    9        0.863   1.784   0.000   2.648
   10        0.865   1.782   0.000   2.646
   11        0.863   1.782   0.000   2.645
   12        0.865   1.778   0.000   2.642
   13        0.864   1.786   0.000   2.650
   14        0.866   1.785   0.000   2.651
   15        0.863   1.777   0.000   2.639
   16        0.862   1.764   0.000   2.625
   17        0.863   1.776   0.000   2.639
   18        0.865   1.767   0.000   2.632
   19        0.864   1.784   0.000   2.648
   20        0.864   1.776   0.000   2.640
   21        0.864   1.786   0.000   2.650
   22        0.865   1.785   0.000   2.650
   23        0.864   1.790   0.000   2.654
   24        0.866   1.786   0.000   2.652
   25        0.863   1.794   0.000   2.658
   26        0.869   1.796   0.000   2.664
   27        0.865   1.791   0.000   2.655
   28        0.868   1.795   0.000   2.664
   29        0.858   1.748   0.000   2.606
   30        0.870   1.629   0.000   2.498
   31        0.866   1.777   0.000   2.643
   32        0.882   1.693   0.000   2.575
   33        0.866   1.787   0.000   2.653
   34        0.869   1.795   0.000   2.663
   35        0.864   1.787   0.000   2.650
   36        0.865   1.789   0.000   2.655
   37        0.864   1.799   0.000   2.663
   38        0.855   1.761   0.000   2.617
   39        0.865   1.803   0.000   2.668
   40        0.857   1.761   0.000   2.618
   41        0.876   1.798   0.000   2.675
   42        0.876   1.786   0.000   2.662
   43        0.870   1.778   0.000   2.648
   44        0.871   1.772   0.000   2.643
   45        0.867   1.799   0.000   2.667
   46        0.866   1.793   0.000   2.659
   47        0.864   1.801   0.000   2.666
   48        0.867   1.790   0.000   2.657
   49        1.212   2.707   0.000   3.919
   50        0.853   1.754   0.000   2.607
   51        0.868   1.806   0.000   2.674
   52        0.868   1.794   0.000   2.662
   53        0.871   1.650   0.000   2.521
   54        0.859   1.742   0.000   2.601
   55        0.880   1.707   0.000   2.586
   56        0.865   1.769   0.000   2.635
   57        0.868   1.795   0.000   2.664
   58        0.867   1.787   0.000   2.654
   59        0.865   1.793   0.000   2.658
   60        0.865   1.787   0.000   2.652
   61        0.863   1.794   0.000   2.657
   62        0.863   1.784   0.000   2.647
   63        0.863   1.794   0.000   2.657
   64        0.863   1.783   0.000   2.647
   65        0.862   1.771   0.000   2.633
   66        0.864   1.775   0.000   2.638
   67        0.863   1.770   0.000   2.633
   68        0.863   1.770   0.000   2.633
   69        0.864   1.777   0.000   2.641
   70        0.865   1.778   0.000   2.643
   71        0.410   6.447   4.309  11.167
   72        0.983   1.541   0.000   2.524
   73        1.627   3.527   0.000   5.154
--------------------------------------------------
tot         63.932 136.764   4.309 205.005
 


 magnetization (x)
 
# of ion       s       p       d       tot
------------------------------------------
    1       -0.000  -0.004   0.000  -0.004
    2        0.000   0.003   0.000   0.004
    3       -0.000  -0.005   0.000  -0.005
    4        0.000   0.006   0.000   0.006
    5       -0.000  -0.002   0.000  -0.002
    6        0.000   0.007   0.000   0.008
    7       -0.000  -0.004   0.000  -0.004
    8        0.000   0.003   0.000   0.004
    9       -0.000  -0.004   0.000  -0.005
   10        0.000   0.003   0.000   0.004
   11       -0.000  -0.005   0.000  -0.005
   12        0.000   0.006   0.000   0.006
   13       -0.000  -0.006   0.000  -0.006
   14        0.000   0.005   0.000   0.005
   15       -0.000  -0.003   0.000  -0.003
   16        0.001   0.007   0.000   0.008
   17       -0.001  -0.007   0.000  -0.007
   18        0.001   0.015   0.000   0.016
   19       -0.000  -0.004   0.000  -0.005
   20        0.001   0.006   0.000   0.007
   21       -0.000  -0.003   0.000  -0.004
   22        0.001   0.007   0.000   0.007
   23       -0.000  -0.006   0.000  -0.007
   24        0.000   0.003   0.000   0.003
   25       -0.000  -0.002   0.000  -0.002
   26        0.000   0.005   0.000   0.006
   27       -0.000  -0.005   0.000  -0.006
   28        0.000   0.005   0.000   0.005
   29       -0.001  -0.011   0.000  -0.012
   30        0.007   0.039   0.000   0.046
   31       -0.002  -0.015   0.000  -0.017
   32        0.008   0.048   0.000   0.056
   33       -0.001  -0.010   0.000  -0.011
   34        0.000   0.006   0.000   0.006
   35       -0.000  -0.006   0.000  -0.006
   36        0.000   0.004   0.000   0.004
   37       -0.000  -0.004   0.000  -0.004
   38        0.000   0.003   0.000   0.003
   39       -0.000  -0.004   0.000  -0.005
   40        0.000   0.007   0.000   0.007
   41       -0.002  -0.008   0.000  -0.010
   42       -0.001   0.007   0.000   0.006
   43       -0.002  -0.015   0.000  -0.017
   44       -0.000   0.008   0.000   0.008
   45       -0.000  -0.002   0.000  -0.002
   46        0.000   0.008   0.000   0.008
   47       -0.000  -0.006   0.000  -0.006
   48        0.000   0.005   0.000   0.006
   49       -0.000  -0.002   0.000  -0.002
   50        0.000   0.007   0.000   0.007
   51       -0.000  -0.001   0.000  -0.002
   52        0.000   0.000   0.000   0.000
   53        0.005   0.016   0.000   0.021
   54        0.000  -0.001   0.000  -0.001
   55        0.003   0.003   0.000   0.006
   56       -0.000   0.001   0.000   0.001
   57       -0.001  -0.005   0.000  -0.006
   58        0.000   0.002   0.000   0.003
   59       -0.000  -0.002   0.000  -0.002
   60        0.000   0.004   0.000   0.004
   61       -0.000  -0.004   0.000  -0.004
   62        0.000   0.005   0.000   0.005
   63       -0.000  -0.002   0.000  -0.003
   64        0.000   0.002   0.000   0.003
   65        0.000  -0.000   0.000   0.000
   66        0.000   0.005   0.000   0.006
   67       -0.001  -0.007   0.000  -0.007
   68        0.000   0.003   0.000   0.003
   69       -0.000  -0.006   0.000  -0.006
   70        0.000   0.003   0.000   0.004
   71       -0.010  -0.014  -0.958  -0.981
   72        0.003  -0.013   0.000  -0.011
   73       -0.001  -0.038   0.000  -0.039
--------------------------------------------------
tot          0.010   0.027  -0.958  -0.921
 
 BZINTS: Fermi energy: -2.272067;303.000000 electrons
         Band energy:***********;  BLOECHL correction:  0.000000

 total amount of memory used by VASP MPI-rank0   116094. kBytes
=======================================================================

   base      :      30000. kBytes
   nonl-proj :      27308. kBytes
   fftplans  :       4700. kBytes
   grid      :      15193. kBytes
   one-center:        217. kBytes
   wavefun   :      38676. kBytes
 
  
  
 General timing and accounting informations for this job:
 ========================================================
  
                  Total CPU time used (sec):      293.494
                            User time (sec):      284.396
                          System time (sec):        9.098
                         Elapsed time (sec):      305.448
  
                   Maximum memory used (kb):      476220.
                   Average memory used (kb):           0.
  
                          Minor page faults:      1595676
                          Major page faults:            0
                 Voluntary context switches:         8620
