  71  71   0   0
  0.4011563E+02  0.1487831E-08  0.1477209E-08  0.1500000E-08  0.3000000E-15
  1.000000000000000E-004
  CAR 
 unknown system                          
      5.28027891    -48.49821636  301     -2.09792976      1.00000000
    -48.498  0.0000E+00  0.0000E+00  0.0000E+00  0.0000E+00
    -48.319  0.0000E+00  0.0000E+00  0.0000E+00  0.0000E+00
    -48.140  0.0000E+00  0.0000E+00  0.0000E+00  0.0000E+00
    -47.960  0.0000E+00  0.0000E+00  0.0000E+00  0.0000E+00
    -47.781  0.0000E+00  0.0000E+00  0.0000E+00  0.0000E+00
    -47.602  0.0000E+00  0.0000E+00  0.0000E+00  0.0000E+00
    -47.423  0.0000E+00  0.0000E+00  0.0000E+00  0.0000E+00
    -47.243  0.0000E+00  0.0000E+00  0.0000E+00  0.0000E+00
    -47.064  0.0000E+00  0.0000E+00  0.0000E+00  0.0000E+00
    -46.885  0.0000E+00  0.0000E+00  0.0000E+00  0.0000E+00
    -46.706  0.0000E+00  0.0000E+00  0.0000E+00  0.0000E+00
    -46.526  0.0000E+00  0.1626E-12  0.0000E+00  0.2915E-13
    -46.347  0.0000E+00  0.2334E-06  0.0000E+00  0.4185E-07
    -46.168  0.0000E+00  0.7438E-03  0.0000E+00  0.1334E-03
    -45.989  0.0000E+00  0.1129E-01  0.0000E+00  0.2157E-02
    -45.809  0.0000E+00  0.1941E-01  0.0000E+00  0.5636E-02
    -45.630  0.0000E+00  0.1030E-01  0.0000E+00  0.7483E-02
    -45.451  0.0000E+00  0.9463E-04  0.0000E+00  0.7500E-02
    -45.272  0.0000E+00  0.3417E-08  0.0000E+00  0.7500E-02
    -45.092  0.0000E+00  0.2648E-15  0.0000E+00  0.7500E-02
    -44.913  0.0000E+00  0.0000E+00  0.0000E+00  0.7500E-02
    -44.734  0.0000E+00  0.0000E+00  0.0000E+00  0.7500E-02
    -44.554  0.5306E-14  0.0000E+00  0.9512E-15  0.7500E-02
    -44.375  0.2515E-07  0.0000E+00  0.4508E-08  0.7500E-02
    -44.196  0.2505E-03  0.0000E+00  0.4491E-04  0.7500E-02
    -44.017  0.9099E-02  0.0000E+00  0.1676E-02  0.7500E-02
    -43.837  0.9077E-02  0.0000E+00  0.3303E-02  0.7500E-02
    -43.658  0.1628E-01  0.0000E+00  0.6221E-02  0.7500E-02
    -43.479  0.7063E-02  0.0000E+00  0.7487E-02  0.7500E-02
    -43.300  0.7401E-04  0.0000E+00  0.7500E-02  0.7500E-02
    -43.120  0.2491E-08  0.0000E+00  0.7500E-02  0.7500E-02
    -42.941  0.1703E-15  0.0000E+00  0.7500E-02  0.7500E-02
    -42.762  0.0000E+00  0.0000E+00  0.7500E-02  0.7500E-02
    -42.583  0.0000E+00  0.0000E+00  0.7500E-02  0.7500E-02
    -42.403  0.0000E+00  0.0000E+00  0.7500E-02  0.7500E-02
    -42.224  0.0000E+00  0.0000E+00  0.7500E-02  0.7500E-02
    -42.045  0.0000E+00  0.0000E+00  0.7500E-02  0.7500E-02
    -41.866  0.0000E+00  0.0000E+00  0.7500E-02  0.7500E-02
    -41.686  0.0000E+00  0.0000E+00  0.7500E-02  0.7500E-02
    -41.507  0.0000E+00  0.0000E+00  0.7500E-02  0.7500E-02
    -41.328  0.0000E+00  0.0000E+00  0.7500E-02  0.7500E-02
    -41.148  0.0000E+00  0.0000E+00  0.7500E-02  0.7500E-02
    -40.969  0.0000E+00  0.0000E+00  0.7500E-02  0.7500E-02
    -40.790  0.0000E+00  0.0000E+00  0.7500E-02  0.7500E-02
    -40.611  0.0000E+00  0.0000E+00  0.7500E-02  0.7500E-02
    -40.431  0.0000E+00  0.0000E+00  0.7500E-02  0.7500E-02
    -40.252  0.0000E+00  0.0000E+00  0.7500E-02  0.7500E-02
    -40.073  0.0000E+00  0.0000E+00  0.7500E-02  0.7500E-02
    -39.894  0.0000E+00  0.0000E+00  0.7500E-02  0.7500E-02
    -39.714  0.0000E+00  0.0000E+00  0.7500E-02  0.7500E-02
    -39.535  0.0000E+00  0.0000E+00  0.7500E-02  0.7500E-02
    -39.356  0.0000E+00  0.0000E+00  0.7500E-02  0.7500E-02
    -39.177  0.0000E+00  0.0000E+00  0.7500E-02  0.7500E-02
    -38.997  0.0000E+00  0.0000E+00  0.7500E-02  0.7500E-02
    -38.818  0.0000E+00  0.0000E+00  0.7500E-02  0.7500E-02
    -38.639  0.0000E+00  0.0000E+00  0.7500E-02  0.7500E-02
    -38.460  0.0000E+00  0.0000E+00  0.7500E-02  0.7500E-02
    -38.280  0.0000E+00  0.0000E+00  0.7500E-02  0.7500E-02
    -38.101  0.0000E+00  0.0000E+00  0.7500E-02  0.7500E-02
    -37.922  0.0000E+00  0.0000E+00  0.7500E-02  0.7500E-02
    -37.743  0.0000E+00  0.0000E+00  0.7500E-02  0.7500E-02
    -37.563  0.0000E+00  0.0000E+00  0.7500E-02  0.7500E-02
    -37.384  0.0000E+00  0.0000E+00  0.7500E-02  0.7500E-02
    -37.205  0.0000E+00  0.0000E+00  0.7500E-02  0.7500E-02
    -37.025  0.0000E+00  0.0000E+00  0.7500E-02  0.7500E-02
    -36.846  0.0000E+00  0.0000E+00  0.7500E-02  0.7500E-02
    -36.667  0.0000E+00  0.0000E+00  0.7500E-02  0.7500E-02
    -36.488  0.0000E+00  0.0000E+00  0.7500E-02  0.7500E-02
    -36.308  0.0000E+00  0.0000E+00  0.7500E-02  0.7500E-02
    -36.129  0.0000E+00  0.0000E+00  0.7500E-02  0.7500E-02
    -35.950  0.0000E+00  0.0000E+00  0.7500E-02  0.7500E-02
    -35.771  0.0000E+00  0.0000E+00  0.7500E-02  0.7500E-02
    -35.591  0.0000E+00  0.0000E+00  0.7500E-02  0.7500E-02
    -35.412  0.0000E+00  0.0000E+00  0.7500E-02  0.7500E-02
    -35.233  0.0000E+00  0.0000E+00  0.7500E-02  0.7500E-02
    -35.054  0.0000E+00  0.0000E+00  0.7500E-02  0.7500E-02
    -34.874  0.0000E+00  0.0000E+00  0.7500E-02  0.7500E-02
    -34.695  0.0000E+00  0.0000E+00  0.7500E-02  0.7500E-02
    -34.516  0.0000E+00  0.0000E+00  0.7500E-02  0.7500E-02
    -34.337  0.0000E+00  0.0000E+00  0.7500E-02  0.7500E-02
    -34.157  0.0000E+00  0.0000E+00  0.7500E-02  0.7500E-02
    -33.978  0.0000E+00  0.0000E+00  0.7500E-02  0.7500E-02
    -33.799  0.0000E+00  0.0000E+00  0.7500E-02  0.7500E-02
    -33.619  0.0000E+00  0.0000E+00  0.7500E-02  0.7500E-02
    -33.440  0.0000E+00  0.0000E+00  0.7500E-02  0.7500E-02
    -33.261  0.0000E+00  0.0000E+00  0.7500E-02  0.7500E-02
    -33.082  0.0000E+00  0.0000E+00  0.7500E-02  0.7500E-02
    -32.902  0.0000E+00  0.0000E+00  0.7500E-02  0.7500E-02
    -32.723  0.0000E+00  0.0000E+00  0.7500E-02  0.7500E-02
    -32.544  0.0000E+00  0.0000E+00  0.7500E-02  0.7500E-02
    -32.365  0.0000E+00  0.0000E+00  0.7500E-02  0.7500E-02
    -32.185  0.0000E+00  0.0000E+00  0.7500E-02  0.7500E-02
    -32.006  0.0000E+00  0.0000E+00  0.7500E-02  0.7500E-02
    -31.827  0.0000E+00  0.0000E+00  0.7500E-02  0.7500E-02
    -31.648  0.0000E+00  0.0000E+00  0.7500E-02  0.7500E-02
    -31.468  0.0000E+00  0.0000E+00  0.7500E-02  0.7500E-02
    -31.289  0.0000E+00  0.0000E+00  0.7500E-02  0.7500E-02
    -31.110  0.0000E+00  0.0000E+00  0.7500E-02  0.7500E-02
    -30.931  0.0000E+00  0.0000E+00  0.7500E-02  0.7500E-02
    -30.751  0.0000E+00  0.0000E+00  0.7500E-02  0.7500E-02
    -30.572  0.0000E+00  0.0000E+00  0.7500E-02  0.7500E-02
    -30.393  0.0000E+00  0.0000E+00  0.7500E-02  0.7500E-02
    -30.214  0.0000E+00  0.0000E+00  0.7500E-02  0.7500E-02
    -30.034  0.0000E+00  0.0000E+00  0.7500E-02  0.7500E-02
    -29.855  0.0000E+00  0.0000E+00  0.7500E-02  0.7500E-02
    -29.676  0.0000E+00  0.0000E+00  0.7500E-02  0.7500E-02
    -29.496  0.0000E+00  0.0000E+00  0.7500E-02  0.7500E-02
    -29.317  0.0000E+00  0.0000E+00  0.7500E-02  0.7500E-02
    -29.138  0.0000E+00  0.0000E+00  0.7500E-02  0.7500E-02
    -28.959  0.0000E+00  0.0000E+00  0.7500E-02  0.7500E-02
    -28.779  0.0000E+00  0.0000E+00  0.7500E-02  0.7500E-02
    -28.600  0.0000E+00  0.0000E+00  0.7500E-02  0.7500E-02
    -28.421  0.0000E+00  0.0000E+00  0.7500E-02  0.7500E-02
    -28.242  0.0000E+00  0.0000E+00  0.7500E-02  0.7500E-02
    -28.062  0.0000E+00  0.0000E+00  0.7500E-02  0.7500E-02
    -27.883  0.0000E+00  0.0000E+00  0.7500E-02  0.7500E-02
    -27.704  0.0000E+00  0.0000E+00  0.7500E-02  0.7500E-02
    -27.525  0.0000E+00  0.0000E+00  0.7500E-02  0.7500E-02
    -27.345  0.0000E+00  0.0000E+00  0.7500E-02  0.7500E-02
    -27.166  0.0000E+00  0.0000E+00  0.7500E-02  0.7500E-02
    -26.987  0.0000E+00  0.0000E+00  0.7500E-02  0.7500E-02
    -26.808  0.0000E+00  0.0000E+00  0.7500E-02  0.7500E-02
    -26.628  0.0000E+00  0.0000E+00  0.7500E-02  0.7500E-02
    -26.449  0.0000E+00  0.0000E+00  0.7500E-02  0.7500E-02
    -26.270  0.0000E+00  0.0000E+00  0.7500E-02  0.7500E-02
    -26.091  0.0000E+00  0.0000E+00  0.7500E-02  0.7500E-02
    -25.911  0.0000E+00  0.0000E+00  0.7500E-02  0.7500E-02
    -25.732  0.0000E+00  0.0000E+00  0.7500E-02  0.7500E-02
    -25.553  0.0000E+00  0.0000E+00  0.7500E-02  0.7500E-02
    -25.373  0.0000E+00  0.0000E+00  0.7500E-02  0.7500E-02
    -25.194  0.0000E+00  0.0000E+00  0.7500E-02  0.7500E-02
    -25.015  0.0000E+00  0.0000E+00  0.7500E-02  0.7500E-02
    -24.836  0.0000E+00  0.0000E+00  0.7500E-02  0.7500E-02
    -24.656  0.1349E-14  0.7881E-15  0.7500E-02  0.7500E-02
    -24.477  0.1011E-07  0.7047E-08  0.7500E-02  0.7500E-02
    -24.298  0.1564E-03  0.1294E-03  0.7528E-02  0.7523E-02
    -24.119  0.8205E-02  0.7844E-02  0.8999E-02  0.8929E-02
    -23.939  0.5548E-02  0.5927E-02  0.9993E-02  0.9992E-02
    -23.760  0.3705E-04  0.4609E-04  0.1000E-01  0.1000E-01
    -23.581  0.7137E-09  0.1055E-08  0.1000E-01  0.1000E-01
    -23.402  0.2787E-16  0.4800E-16  0.1000E-01  0.1000E-01
    -23.222  0.0000E+00  0.0000E+00  0.1000E-01  0.1000E-01
    -23.043  0.0000E+00  0.0000E+00  0.1000E-01  0.1000E-01
    -22.864  0.0000E+00  0.0000E+00  0.1000E-01  0.1000E-01
    -22.685  0.0000E+00  0.0000E+00  0.1000E-01  0.1000E-01
    -22.505  0.0000E+00  0.0000E+00  0.1000E-01  0.1000E-01
    -22.326  0.0000E+00  0.0000E+00  0.1000E-01  0.1000E-01
    -22.147  0.0000E+00  0.0000E+00  0.1000E-01  0.1000E-01
    -21.967  0.9828E-12  0.6857E-12  0.1000E-01  0.1000E-01
    -21.788  0.5528E-06  0.4404E-06  0.1000E-01  0.1000E-01
    -21.609  0.8640E-03  0.7774E-03  0.1015E-01  0.1014E-01
    -21.430  0.1126E-01  0.1103E-01  0.1217E-01  0.1212E-01
    -21.250  0.1284E-01  0.1291E-01  0.1448E-01  0.1443E-01
    -21.071  0.1027E-01  0.1015E-01  0.1632E-01  0.1625E-01
    -20.892  0.1527E-01  0.1511E-01  0.1905E-01  0.1896E-01
    -20.713  0.1048E-01  0.1061E-01  0.2093E-01  0.2086E-01
    -20.533  0.1378E-01  0.1354E-01  0.2340E-01  0.2329E-01
    -20.354  0.1603E-01  0.1607E-01  0.2628E-01  0.2617E-01
    -20.175  0.1307E-01  0.1297E-01  0.2862E-01  0.2849E-01
    -19.996  0.1256E-01  0.1274E-01  0.3087E-01  0.3078E-01
    -19.816  0.9485E-02  0.9357E-02  0.3257E-01  0.3245E-01
    -19.637  0.1886E-01  0.1872E-01  0.3595E-01  0.3581E-01
    -19.458  0.1349E-01  0.1352E-01  0.3837E-01  0.3823E-01
    -19.279  0.1616E-01  0.1606E-01  0.4127E-01  0.4111E-01
    -19.099  0.1181E-01  0.1204E-01  0.4338E-01  0.4327E-01
    -18.920  0.1106E-01  0.1090E-01  0.4537E-01  0.4522E-01
    -18.741  0.1361E-01  0.1382E-01  0.4781E-01  0.4770E-01
    -18.562  0.1351E-01  0.1328E-01  0.5023E-01  0.5008E-01
    -18.382  0.1759E-01  0.1754E-01  0.5338E-01  0.5323E-01
    -18.203  0.2026E-01  0.2002E-01  0.5701E-01  0.5681E-01
    -18.024  0.1272E-01  0.1316E-01  0.5929E-01  0.5917E-01
    -17.844  0.9390E-02  0.9674E-02  0.6098E-01  0.6091E-01
    -17.665  0.7604E-02  0.7148E-02  0.6234E-01  0.6219E-01
    -17.486  0.1824E-01  0.1800E-01  0.6561E-01  0.6542E-01
    -17.307  0.1808E-01  0.1838E-01  0.6885E-01  0.6871E-01
    -17.127  0.1950E-01  0.1904E-01  0.7235E-01  0.7212E-01
    -16.948  0.1757E-01  0.1807E-01  0.7550E-01  0.7536E-01
    -16.769  0.1575E-01  0.1586E-01  0.7832E-01  0.7821E-01
    -16.590  0.1257E-01  0.1244E-01  0.8057E-01  0.8044E-01
    -16.410  0.1211E-01  0.1194E-01  0.8274E-01  0.8258E-01
    -16.231  0.1036E-01  0.1072E-01  0.8460E-01  0.8450E-01
    -16.052  0.1613E-01  0.1554E-01  0.8749E-01  0.8728E-01
    -15.873  0.1720E-01  0.1735E-01  0.9058E-01  0.9039E-01
    -15.693  0.8208E-02  0.8636E-02  0.9205E-01  0.9194E-01
    -15.514  0.8837E-02  0.8730E-02  0.9363E-01  0.9351E-01
    -15.335  0.1004E-01  0.9597E-02  0.9543E-01  0.9523E-01
    -15.156  0.1642E-01  0.1645E-01  0.9838E-01  0.9818E-01
    -14.976  0.1385E-01  0.1418E-01  0.1009E+00  0.1007E+00
    -14.797  0.1536E-01  0.1534E-01  0.1036E+00  0.1035E+00
    -14.618  0.1606E-01  0.1600E-01  0.1065E+00  0.1063E+00
    -14.439  0.1538E-01  0.1541E-01  0.1092E+00  0.1091E+00
    -14.259  0.1265E-01  0.1248E-01  0.1115E+00  0.1113E+00
    -14.080  0.1965E-01  0.1991E-01  0.1150E+00  0.1149E+00
    -13.901  0.1995E-01  0.1933E-01  0.1186E+00  0.1184E+00
    -13.721  0.1324E-01  0.1420E-01  0.1210E+00  0.1209E+00
    -13.542  0.1029E-01  0.9796E-02  0.1228E+00  0.1227E+00
    -13.363  0.1911E-01  0.1903E-01  0.1263E+00  0.1261E+00
    -13.184  0.8494E-02  0.8683E-02  0.1278E+00  0.1276E+00
    -13.004  0.1284E-01  0.1297E-01  0.1301E+00  0.1300E+00
    -12.825  0.1430E-01  0.1409E-01  0.1326E+00  0.1325E+00
    -12.646  0.2065E-01  0.2056E-01  0.1363E+00  0.1362E+00
    -12.467  0.1180E-01  0.1199E-01  0.1385E+00  0.1383E+00
    -12.287  0.8413E-02  0.8860E-02  0.1400E+00  0.1399E+00
    -12.108  0.1087E-01  0.1044E-01  0.1419E+00  0.1418E+00
    -11.929  0.1959E-01  0.1964E-01  0.1454E+00  0.1453E+00
    -11.750  0.2126E-01  0.2073E-01  0.1492E+00  0.1490E+00
    -11.570  0.2940E-01  0.2945E-01  0.1545E+00  0.1543E+00
    -11.391  0.1373E-01  0.1458E-01  0.1570E+00  0.1569E+00
    -11.212  0.8270E-02  0.8102E-02  0.1585E+00  0.1584E+00
    -11.033  0.1614E-01  0.1586E-01  0.1613E+00  0.1612E+00
    -10.853  0.1524E-01  0.1550E-01  0.1641E+00  0.1640E+00
    -10.674  0.1585E-01  0.1559E-01  0.1669E+00  0.1668E+00
    -10.495  0.2045E-01  0.2006E-01  0.1706E+00  0.1704E+00
    -10.315  0.2892E-01  0.2873E-01  0.1758E+00  0.1755E+00
    -10.136  0.2318E-01  0.2374E-01  0.1799E+00  0.1798E+00
     -9.957  0.2618E-01  0.2602E-01  0.1846E+00  0.1844E+00
     -9.778  0.2000E-01  0.2034E-01  0.1882E+00  0.1881E+00
     -9.598  0.2228E-01  0.2189E-01  0.1922E+00  0.1920E+00
     -9.419  0.2928E-01  0.2910E-01  0.1974E+00  0.1972E+00
     -9.240  0.3480E-01  0.3504E-01  0.2037E+00  0.2035E+00
     -9.061  0.2826E-01  0.2791E-01  0.2088E+00  0.2085E+00
     -8.881  0.3516E-01  0.3552E-01  0.2151E+00  0.2149E+00
     -8.702  0.3704E-01  0.3678E-01  0.2217E+00  0.2215E+00
     -8.523  0.4811E-01  0.4684E-01  0.2303E+00  0.2299E+00
     -8.344  0.4588E-01  0.4690E-01  0.2385E+00  0.2383E+00
     -8.164  0.3459E-01  0.3505E-01  0.2447E+00  0.2446E+00
     -7.985  0.3392E-01  0.3305E-01  0.2508E+00  0.2505E+00
     -7.806  0.2846E-01  0.2945E-01  0.2559E+00  0.2558E+00
     -7.627  0.1736E-01  0.1738E-01  0.2590E+00  0.2589E+00
     -7.447  0.3781E-01  0.3668E-01  0.2658E+00  0.2655E+00
     -7.268  0.3545E-01  0.3617E-01  0.2722E+00  0.2719E+00
     -7.089  0.3767E-01  0.3792E-01  0.2789E+00  0.2787E+00
     -6.910  0.3500E-01  0.3527E-01  0.2852E+00  0.2851E+00
     -6.730  0.1664E-01  0.1649E-01  0.2882E+00  0.2880E+00
     -6.551  0.1414E-01  0.1409E-01  0.2907E+00  0.2905E+00
     -6.372  0.2087E-01  0.2305E-01  0.2945E+00  0.2947E+00
     -6.192  0.3911E-01  0.3720E-01  0.3015E+00  0.3013E+00
     -6.013  0.3101E-01  0.3081E-01  0.3070E+00  0.3069E+00
     -5.834  0.2989E-01  0.3003E-01  0.3124E+00  0.3123E+00
     -5.655  0.2205E-01  0.2433E-01  0.3163E+00  0.3166E+00
     -5.475  0.1610E-01  0.1469E-01  0.3192E+00  0.3193E+00
     -5.296  0.1842E-01  0.1903E-01  0.3225E+00  0.3227E+00
     -5.117  0.1519E-01  0.1773E-01  0.3252E+00  0.3258E+00
     -4.938  0.2474E-01  0.3063E-01  0.3297E+00  0.3313E+00
     -4.758  0.3636E-01  0.2956E-01  0.3362E+00  0.3366E+00
     -4.579  0.3256E-01  0.3303E-01  0.3420E+00  0.3426E+00
     -4.400  0.1553E-01  0.1279E-01  0.3448E+00  0.3448E+00
     -4.221  0.3570E-02  0.5267E-02  0.3455E+00  0.3458E+00
     -4.041  0.1138E-01  0.1950E-01  0.3475E+00  0.3493E+00
     -3.862  0.1540E-01  0.2093E-01  0.3503E+00  0.3530E+00
     -3.683  0.1771E-01  0.1254E-01  0.3534E+00  0.3553E+00
     -3.504  0.1882E-01  0.9413E-02  0.3568E+00  0.3570E+00
     -3.324  0.1062E-01  0.1424E-01  0.3587E+00  0.3595E+00
     -3.145  0.7218E-02  0.1625E-01  0.3600E+00  0.3624E+00
     -2.966  0.7369E-02  0.7653E-02  0.3613E+00  0.3638E+00
     -2.786  0.2907E-02  0.1024E-01  0.3618E+00  0.3656E+00
     -2.607  0.1439E-03  0.4442E-02  0.3619E+00  0.3664E+00
     -2.428  0.1442E-04  0.2353E-02  0.3619E+00  0.3669E+00
     -2.249  0.2989E-02  0.1721E-02  0.3624E+00  0.3672E+00
     -2.069  0.1293E-01  0.6130E-02  0.3647E+00  0.3683E+00
     -1.890  0.4929E-02  0.3701E-02  0.3656E+00  0.3689E+00
     -1.711  0.1132E-02  0.8869E-02  0.3658E+00  0.3705E+00
     -1.532  0.2476E-02  0.1302E-01  0.3663E+00  0.3729E+00
     -1.352  0.5141E-02  0.1421E-01  0.3672E+00  0.3754E+00
     -1.173  0.5251E-02  0.9109E-02  0.3681E+00  0.3770E+00
     -0.994  0.9187E-02  0.6152E-02  0.3698E+00  0.3781E+00
     -0.815  0.2899E-01  0.1461E-01  0.3750E+00  0.3808E+00
     -0.635  0.2664E-01  0.2057E-01  0.3797E+00  0.3844E+00
     -0.456  0.2396E-01  0.1273E-01  0.3840E+00  0.3867E+00
     -0.277  0.2155E-01  0.1613E-01  0.3879E+00  0.3896E+00
     -0.098  0.2029E-01  0.1750E-01  0.3915E+00  0.3928E+00
      0.082  0.1161E-01  0.1097E-01  0.3936E+00  0.3947E+00
      0.261  0.1937E-01  0.1911E-01  0.3971E+00  0.3981E+00
      0.440  0.2587E-01  0.1963E-01  0.4017E+00  0.4017E+00
      0.619  0.1496E-01  0.1500E-01  0.4044E+00  0.4044E+00
      0.799  0.8283E-02  0.1337E-01  0.4059E+00  0.4068E+00
      0.978  0.1437E-01  0.1857E-01  0.4085E+00  0.4101E+00
      1.157  0.1728E-01  0.9566E-02  0.4116E+00  0.4118E+00
      1.337  0.1425E-01  0.1784E-01  0.4141E+00  0.4150E+00
      1.516  0.1869E-01  0.1689E-01  0.4175E+00  0.4180E+00
      1.695  0.2358E-01  0.2372E-01  0.4217E+00  0.4223E+00
      1.874  0.2428E-01  0.2458E-01  0.4261E+00  0.4267E+00
      2.054  0.3339E-01  0.3604E-01  0.4320E+00  0.4331E+00
      2.233  0.2834E-01  0.3013E-01  0.4371E+00  0.4385E+00
      2.412  0.1894E-01  0.1973E-01  0.4405E+00  0.4421E+00
      2.591  0.4335E-01  0.3704E-01  0.4483E+00  0.4487E+00
      2.771  0.5180E-01  0.4839E-01  0.4576E+00  0.4574E+00
      2.950  0.1319E-01  0.1426E-01  0.4599E+00  0.4600E+00
      3.129  0.3259E-03  0.2687E-03  0.4600E+00  0.4600E+00
      3.308  0.6853E-07  0.3622E-07  0.4600E+00  0.4600E+00
      3.488  0.4229E-13  0.1310E-13  0.4600E+00  0.4600E+00
      3.667  0.0000E+00  0.0000E+00  0.4600E+00  0.4600E+00
      3.846  0.0000E+00  0.0000E+00  0.4600E+00  0.4600E+00
      4.025  0.0000E+00  0.0000E+00  0.4600E+00  0.4600E+00
      4.205  0.0000E+00  0.0000E+00  0.4600E+00  0.4600E+00
      4.384  0.0000E+00  0.0000E+00  0.4600E+00  0.4600E+00
      4.563  0.0000E+00  0.0000E+00  0.4600E+00  0.4600E+00
      4.742  0.0000E+00  0.0000E+00  0.4600E+00  0.4600E+00
      4.922  0.0000E+00  0.0000E+00  0.4600E+00  0.4600E+00
      5.101  0.0000E+00  0.0000E+00  0.4600E+00  0.4600E+00
      5.280  0.0000E+00  0.0000E+00  0.4600E+00  0.4600E+00
