       N       E                     dE             d eps       ncg     rms          rms(c)
DAV:   1     0.258535932561E+04    0.25854E+04   -0.11466E+05  3616   0.133E+03
DAV:   2    -0.117247709991E+03   -0.27026E+04   -0.26099E+04  4464   0.342E+02
DAV:   3    -0.499200007433E+03   -0.38195E+03   -0.37697E+03  3912   0.153E+02
DAV:   4    -0.515480081925E+03   -0.16280E+02   -0.15959E+02  4408   0.417E+01
DAV:   5    -0.516077880785E+03   -0.59780E+00   -0.59329E+00  4704   0.602E+00    0.421E+01
DAV:   6    -0.490606837125E+03    0.25471E+02   -0.65349E+01  4248   0.246E+01    0.263E+01
DAV:   7    -0.486132358394E+03    0.44745E+01   -0.37095E+01  4144   0.193E+01    0.183E+01
DAV:   8    -0.482677529223E+03    0.34548E+01   -0.21291E+01  4176   0.139E+01    0.126E+01
DAV:   9    -0.482791610594E+03   -0.11408E+00   -0.13957E+01  4128   0.938E+00    0.805E+00
DAV:  10    -0.482348504912E+03    0.44311E+00   -0.12451E+01  4176   0.780E+00    0.489E+00
DAV:  11    -0.482146587971E+03    0.20192E+00   -0.28763E+00  4000   0.391E+00    0.343E+00
DAV:  12    -0.482220062196E+03   -0.73474E-01   -0.49886E+00  4392   0.337E+00    0.348E+00
DAV:  13    -0.481996660127E+03    0.22340E+00   -0.12694E+00  4024   0.229E+00    0.146E+00
DAV:  14    -0.482004364111E+03   -0.77040E-02   -0.61434E-01  3968   0.119E+00    0.144E+00
DAV:  15    -0.481980386794E+03    0.23977E-01   -0.13788E-01  4040   0.909E-01    0.657E-01
DAV:  16    -0.481992840803E+03   -0.12454E-01   -0.18789E-01  4088   0.463E-01    0.137E+00
DAV:  17    -0.481991135817E+03    0.17050E-02   -0.17396E-02  3688   0.202E-01    0.127E+00
DAV:  18    -0.481978877329E+03    0.12258E-01   -0.12768E-01  4072   0.345E-01    0.560E-01
DAV:  19    -0.481979095719E+03   -0.21839E-03   -0.85711E-03  3608   0.154E-01    0.284E-01
DAV:  20    -0.481979253762E+03   -0.15804E-03   -0.11350E-03  3824   0.790E-02    0.275E-01
DAV:  21    -0.481980757943E+03   -0.15042E-02   -0.10612E-02  2720   0.923E-02    0.224E-01
DAV:  22    -0.481979722087E+03    0.10359E-02   -0.23950E-03  2024   0.508E-02    0.336E-02
DAV:  23    -0.481979922584E+03   -0.20050E-03   -0.19104E-04  1968   0.254E-02    0.472E-02
DAV:  24    -0.481979978029E+03   -0.55446E-04   -0.53668E-05  1920   0.163E-02
   1 F= -.48688561E+03 E0= -.48688561E+03  d E =0.000000E+00  mag=    -0.0025
