       N       E                     dE             d eps       ncg     rms          rms(c)
DAV:   1     0.234894507587E+04    0.23489E+04   -0.89108E+04  3872   0.106E+03
DAV:   2     0.161005187960E+03   -0.21879E+04   -0.20859E+04  4880   0.249E+02
DAV:   3    -0.418559825443E+03   -0.57957E+03   -0.57397E+03  4224   0.139E+02
DAV:   4    -0.448695562778E+03   -0.30136E+02   -0.29192E+02  4080   0.421E+01
DAV:   5    -0.450399446524E+03   -0.17039E+01   -0.16828E+01  5048   0.890E+00    0.322E+01
DAV:   6    -0.432983318688E+03    0.17416E+02   -0.68234E+01  4656   0.188E+01    0.183E+01
DAV:   7    -0.432336756501E+03    0.64656E+00   -0.16824E+01  4224   0.138E+01    0.134E+01
DAV:   8    -0.431678358501E+03    0.65840E+00   -0.11927E+01  4256   0.103E+01    0.987E+00
DAV:   9    -0.431976477717E+03   -0.29812E+00   -0.22189E+01  4944   0.801E+00    0.692E+00
DAV:  10    -0.430969818265E+03    0.10067E+01   -0.59156E+00  4672   0.683E+00    0.336E+00
DAV:  11    -0.430837467963E+03    0.13235E+00   -0.17067E+00  4312   0.409E+00    0.270E+00
DAV:  12    -0.430694631580E+03    0.14284E+00   -0.13101E+00  4384   0.240E+00    0.126E+00
DAV:  13    -0.430681425850E+03    0.13206E-01   -0.16873E-01  4080   0.116E+00    0.763E-01
DAV:  14    -0.430676928298E+03    0.44976E-02   -0.58265E-02  4144   0.573E-01    0.518E-01
DAV:  15    -0.430678823869E+03   -0.18956E-02   -0.93578E-02  4472   0.457E-01    0.604E-01
DAV:  16    -0.430675682828E+03    0.31410E-02   -0.90021E-02  4416   0.406E-01    0.335E-01
DAV:  17    -0.430674994644E+03    0.68818E-03   -0.10780E-02  3976   0.181E-01    0.151E-01
DAV:  18    -0.430675340339E+03   -0.34570E-03   -0.11894E-03  3824   0.656E-02    0.179E-01
DAV:  19    -0.430674929955E+03    0.41038E-03   -0.87753E-04  2304   0.344E-02    0.152E-01
DAV:  20    -0.430674530536E+03    0.39942E-03   -0.50529E-03  3864   0.617E-02    0.849E-02
DAV:  21    -0.430674905084E+03   -0.37455E-03   -0.77575E-04  2920   0.546E-02    0.764E-02
DAV:  22    -0.430674850174E+03    0.54910E-04   -0.87381E-04  2160   0.488E-02
   1 F= -.43398486E+03 E0= -.43398486E+03  d E =0.000000E+00  mag=     0.0000
