  71  71   0   0
  0.4004992E+02  0.1485920E-08  0.1476766E-08  0.1500000E-08  0.3000000E-15
  1.000000000000000E-004
  CAR 
 unknown system                          
      5.28097565    -47.98437978  301     -2.07515842      1.00000000
    -47.984  0.0000E+00  0.0000E+00  0.0000E+00  0.0000E+00
    -47.807  0.0000E+00  0.0000E+00  0.0000E+00  0.0000E+00
    -47.629  0.0000E+00  0.0000E+00  0.0000E+00  0.0000E+00
    -47.452  0.0000E+00  0.0000E+00  0.0000E+00  0.0000E+00
    -47.274  0.0000E+00  0.0000E+00  0.0000E+00  0.0000E+00
    -47.097  0.0000E+00  0.0000E+00  0.0000E+00  0.0000E+00
    -46.919  0.0000E+00  0.0000E+00  0.0000E+00  0.0000E+00
    -46.742  0.0000E+00  0.0000E+00  0.0000E+00  0.0000E+00
    -46.564  0.0000E+00  0.0000E+00  0.0000E+00  0.0000E+00
    -46.386  0.0000E+00  0.0000E+00  0.0000E+00  0.0000E+00
    -46.209  0.0000E+00  0.0000E+00  0.0000E+00  0.0000E+00
    -46.031  0.2531E-12  0.0000E+00  0.4494E-13  0.0000E+00
    -45.854  0.2799E-06  0.1118E-10  0.4969E-07  0.1985E-11
    -45.676  0.7745E-03  0.2990E-05  0.1376E-03  0.5310E-06
    -45.499  0.1078E-01  0.2186E-02  0.2051E-02  0.3887E-03
    -45.321  0.6610E-02  0.1096E-01  0.3225E-02  0.2334E-02
    -45.144  0.1018E-01  0.4314E-02  0.5033E-02  0.3100E-02
    -44.966  0.1066E-01  0.1187E-01  0.6926E-02  0.5206E-02
    -44.788  0.3225E-02  0.1162E-01  0.7499E-02  0.7269E-02
    -44.611  0.8092E-05  0.1298E-02  0.7500E-02  0.7500E-02
    -44.433  0.5849E-10  0.8738E-06  0.7500E-02  0.7500E-02
    -44.256  0.0000E+00  0.1528E-11  0.7500E-02  0.7500E-02
    -44.078  0.0000E+00  0.0000E+00  0.7500E-02  0.7500E-02
    -43.901  0.0000E+00  0.0000E+00  0.7500E-02  0.7500E-02
    -43.723  0.0000E+00  0.0000E+00  0.7500E-02  0.7500E-02
    -43.546  0.0000E+00  0.0000E+00  0.7500E-02  0.7500E-02
    -43.368  0.0000E+00  0.0000E+00  0.7500E-02  0.7500E-02
    -43.190  0.0000E+00  0.0000E+00  0.7500E-02  0.7500E-02
    -43.013  0.0000E+00  0.0000E+00  0.7500E-02  0.7500E-02
    -42.835  0.0000E+00  0.0000E+00  0.7500E-02  0.7500E-02
    -42.658  0.0000E+00  0.0000E+00  0.7500E-02  0.7500E-02
    -42.480  0.0000E+00  0.0000E+00  0.7500E-02  0.7500E-02
    -42.303  0.0000E+00  0.0000E+00  0.7500E-02  0.7500E-02
    -42.125  0.0000E+00  0.0000E+00  0.7500E-02  0.7500E-02
    -41.948  0.0000E+00  0.0000E+00  0.7500E-02  0.7500E-02
    -41.770  0.0000E+00  0.0000E+00  0.7500E-02  0.7500E-02
    -41.593  0.0000E+00  0.0000E+00  0.7500E-02  0.7500E-02
    -41.415  0.0000E+00  0.0000E+00  0.7500E-02  0.7500E-02
    -41.237  0.0000E+00  0.0000E+00  0.7500E-02  0.7500E-02
    -41.060  0.0000E+00  0.0000E+00  0.7500E-02  0.7500E-02
    -40.882  0.0000E+00  0.0000E+00  0.7500E-02  0.7500E-02
    -40.705  0.0000E+00  0.0000E+00  0.7500E-02  0.7500E-02
    -40.527  0.0000E+00  0.0000E+00  0.7500E-02  0.7500E-02
    -40.350  0.0000E+00  0.0000E+00  0.7500E-02  0.7500E-02
    -40.172  0.0000E+00  0.0000E+00  0.7500E-02  0.7500E-02
    -39.995  0.0000E+00  0.0000E+00  0.7500E-02  0.7500E-02
    -39.817  0.0000E+00  0.0000E+00  0.7500E-02  0.7500E-02
    -39.639  0.0000E+00  0.0000E+00  0.7500E-02  0.7500E-02
    -39.462  0.0000E+00  0.0000E+00  0.7500E-02  0.7500E-02
    -39.284  0.0000E+00  0.0000E+00  0.7500E-02  0.7500E-02
    -39.107  0.0000E+00  0.0000E+00  0.7500E-02  0.7500E-02
    -38.929  0.0000E+00  0.0000E+00  0.7500E-02  0.7500E-02
    -38.752  0.0000E+00  0.0000E+00  0.7500E-02  0.7500E-02
    -38.574  0.0000E+00  0.0000E+00  0.7500E-02  0.7500E-02
    -38.397  0.0000E+00  0.0000E+00  0.7500E-02  0.7500E-02
    -38.219  0.0000E+00  0.0000E+00  0.7500E-02  0.7500E-02
    -38.042  0.0000E+00  0.0000E+00  0.7500E-02  0.7500E-02
    -37.864  0.0000E+00  0.0000E+00  0.7500E-02  0.7500E-02
    -37.686  0.0000E+00  0.0000E+00  0.7500E-02  0.7500E-02
    -37.509  0.0000E+00  0.0000E+00  0.7500E-02  0.7500E-02
    -37.331  0.0000E+00  0.0000E+00  0.7500E-02  0.7500E-02
    -37.154  0.0000E+00  0.0000E+00  0.7500E-02  0.7500E-02
    -36.976  0.0000E+00  0.0000E+00  0.7500E-02  0.7500E-02
    -36.799  0.0000E+00  0.0000E+00  0.7500E-02  0.7500E-02
    -36.621  0.0000E+00  0.0000E+00  0.7500E-02  0.7500E-02
    -36.444  0.0000E+00  0.0000E+00  0.7500E-02  0.7500E-02
    -36.266  0.0000E+00  0.0000E+00  0.7500E-02  0.7500E-02
    -36.088  0.0000E+00  0.0000E+00  0.7500E-02  0.7500E-02
    -35.911  0.0000E+00  0.0000E+00  0.7500E-02  0.7500E-02
    -35.733  0.0000E+00  0.0000E+00  0.7500E-02  0.7500E-02
    -35.556  0.0000E+00  0.0000E+00  0.7500E-02  0.7500E-02
    -35.378  0.0000E+00  0.0000E+00  0.7500E-02  0.7500E-02
    -35.201  0.0000E+00  0.0000E+00  0.7500E-02  0.7500E-02
    -35.023  0.0000E+00  0.0000E+00  0.7500E-02  0.7500E-02
    -34.846  0.0000E+00  0.0000E+00  0.7500E-02  0.7500E-02
    -34.668  0.0000E+00  0.0000E+00  0.7500E-02  0.7500E-02
    -34.490  0.0000E+00  0.0000E+00  0.7500E-02  0.7500E-02
    -34.313  0.0000E+00  0.0000E+00  0.7500E-02  0.7500E-02
    -34.135  0.0000E+00  0.0000E+00  0.7500E-02  0.7500E-02
    -33.958  0.0000E+00  0.0000E+00  0.7500E-02  0.7500E-02
    -33.780  0.0000E+00  0.0000E+00  0.7500E-02  0.7500E-02
    -33.603  0.0000E+00  0.0000E+00  0.7500E-02  0.7500E-02
    -33.425  0.0000E+00  0.0000E+00  0.7500E-02  0.7500E-02
    -33.248  0.0000E+00  0.0000E+00  0.7500E-02  0.7500E-02
    -33.070  0.0000E+00  0.0000E+00  0.7500E-02  0.7500E-02
    -32.893  0.0000E+00  0.0000E+00  0.7500E-02  0.7500E-02
    -32.715  0.0000E+00  0.0000E+00  0.7500E-02  0.7500E-02
    -32.537  0.0000E+00  0.0000E+00  0.7500E-02  0.7500E-02
    -32.360  0.0000E+00  0.0000E+00  0.7500E-02  0.7500E-02
    -32.182  0.0000E+00  0.0000E+00  0.7500E-02  0.7500E-02
    -32.005  0.0000E+00  0.0000E+00  0.7500E-02  0.7500E-02
    -31.827  0.0000E+00  0.0000E+00  0.7500E-02  0.7500E-02
    -31.650  0.0000E+00  0.0000E+00  0.7500E-02  0.7500E-02
    -31.472  0.0000E+00  0.0000E+00  0.7500E-02  0.7500E-02
    -31.295  0.0000E+00  0.0000E+00  0.7500E-02  0.7500E-02
    -31.117  0.0000E+00  0.0000E+00  0.7500E-02  0.7500E-02
    -30.939  0.0000E+00  0.0000E+00  0.7500E-02  0.7500E-02
    -30.762  0.0000E+00  0.0000E+00  0.7500E-02  0.7500E-02
    -30.584  0.0000E+00  0.0000E+00  0.7500E-02  0.7500E-02
    -30.407  0.0000E+00  0.0000E+00  0.7500E-02  0.7500E-02
    -30.229  0.0000E+00  0.0000E+00  0.7500E-02  0.7500E-02
    -30.052  0.0000E+00  0.0000E+00  0.7500E-02  0.7500E-02
    -29.874  0.0000E+00  0.0000E+00  0.7500E-02  0.7500E-02
    -29.697  0.0000E+00  0.0000E+00  0.7500E-02  0.7500E-02
    -29.519  0.0000E+00  0.0000E+00  0.7500E-02  0.7500E-02
    -29.342  0.0000E+00  0.0000E+00  0.7500E-02  0.7500E-02
    -29.164  0.0000E+00  0.0000E+00  0.7500E-02  0.7500E-02
    -28.986  0.0000E+00  0.0000E+00  0.7500E-02  0.7500E-02
    -28.809  0.0000E+00  0.0000E+00  0.7500E-02  0.7500E-02
    -28.631  0.0000E+00  0.0000E+00  0.7500E-02  0.7500E-02
    -28.454  0.0000E+00  0.0000E+00  0.7500E-02  0.7500E-02
    -28.276  0.0000E+00  0.0000E+00  0.7500E-02  0.7500E-02
    -28.099  0.0000E+00  0.0000E+00  0.7500E-02  0.7500E-02
    -27.921  0.0000E+00  0.0000E+00  0.7500E-02  0.7500E-02
    -27.744  0.0000E+00  0.0000E+00  0.7500E-02  0.7500E-02
    -27.566  0.0000E+00  0.0000E+00  0.7500E-02  0.7500E-02
    -27.388  0.0000E+00  0.0000E+00  0.7500E-02  0.7500E-02
    -27.211  0.0000E+00  0.0000E+00  0.7500E-02  0.7500E-02
    -27.033  0.0000E+00  0.0000E+00  0.7500E-02  0.7500E-02
    -26.856  0.0000E+00  0.0000E+00  0.7500E-02  0.7500E-02
    -26.678  0.0000E+00  0.0000E+00  0.7500E-02  0.7500E-02
    -26.501  0.0000E+00  0.0000E+00  0.7500E-02  0.7500E-02
    -26.323  0.0000E+00  0.0000E+00  0.7500E-02  0.7500E-02
    -26.146  0.0000E+00  0.0000E+00  0.7500E-02  0.7500E-02
    -25.968  0.0000E+00  0.0000E+00  0.7500E-02  0.7500E-02
    -25.790  0.0000E+00  0.0000E+00  0.7500E-02  0.7500E-02
    -25.613  0.0000E+00  0.0000E+00  0.7500E-02  0.7500E-02
    -25.435  0.0000E+00  0.0000E+00  0.7500E-02  0.7500E-02
    -25.258  0.0000E+00  0.0000E+00  0.7500E-02  0.7500E-02
    -25.080  0.0000E+00  0.0000E+00  0.7500E-02  0.7500E-02
    -24.903  0.0000E+00  0.0000E+00  0.7500E-02  0.7500E-02
    -24.725  0.0000E+00  0.0000E+00  0.7500E-02  0.7500E-02
    -24.548  0.0000E+00  0.0000E+00  0.7500E-02  0.7500E-02
    -24.370  0.1684E-12  0.2188E-12  0.7500E-02  0.7500E-02
    -24.193  0.2155E-06  0.2550E-06  0.7500E-02  0.7500E-02
    -24.015  0.6850E-03  0.7415E-03  0.7622E-02  0.7632E-02
    -23.837  0.1062E-01  0.1072E-01  0.9508E-02  0.9534E-02
    -23.660  0.2766E-02  0.2619E-02  0.9999E-02  0.9999E-02
    -23.482  0.5409E-05  0.4701E-05  0.1000E-01  0.1000E-01
    -23.305  0.2978E-10  0.2359E-10  0.1000E-01  0.1000E-01
    -23.127  0.0000E+00  0.0000E+00  0.1000E-01  0.1000E-01
    -22.950  0.0000E+00  0.0000E+00  0.1000E-01  0.1000E-01
    -22.772  0.0000E+00  0.0000E+00  0.1000E-01  0.1000E-01
    -22.595  0.0000E+00  0.0000E+00  0.1000E-01  0.1000E-01
    -22.417  0.0000E+00  0.0000E+00  0.1000E-01  0.1000E-01
    -22.239  0.0000E+00  0.0000E+00  0.1000E-01  0.1000E-01
    -22.062  0.7498E-15  0.8467E-15  0.1000E-01  0.1000E-01
    -21.884  0.4475E-08  0.4855E-08  0.1000E-01  0.1000E-01
    -21.707  0.6914E-04  0.7225E-04  0.1001E-01  0.1001E-01
    -21.529  0.5495E-02  0.5577E-02  0.1099E-01  0.1100E-01
    -21.352  0.1393E-01  0.1391E-01  0.1346E-01  0.1347E-01
    -21.174  0.1021E-01  0.1025E-01  0.1527E-01  0.1529E-01
    -20.997  0.1487E-01  0.1493E-01  0.1791E-01  0.1794E-01
    -20.819  0.1338E-01  0.1328E-01  0.2029E-01  0.2030E-01
    -20.641  0.8699E-02  0.8786E-02  0.2183E-01  0.2186E-01
    -20.464  0.1689E-01  0.1692E-01  0.2483E-01  0.2487E-01
    -20.286  0.1349E-01  0.1348E-01  0.2723E-01  0.2726E-01
    -20.109  0.1463E-01  0.1466E-01  0.2983E-01  0.2986E-01
    -19.931  0.1018E-01  0.1012E-01  0.3163E-01  0.3166E-01
    -19.754  0.1413E-01  0.1415E-01  0.3414E-01  0.3417E-01
    -19.576  0.1464E-01  0.1468E-01  0.3674E-01  0.3678E-01
    -19.399  0.1685E-01  0.1679E-01  0.3973E-01  0.3976E-01
    -19.221  0.1078E-01  0.1090E-01  0.4165E-01  0.4169E-01
    -19.044  0.1631E-01  0.1630E-01  0.4454E-01  0.4459E-01
    -18.866  0.1162E-01  0.1158E-01  0.4661E-01  0.4664E-01
    -18.688  0.1194E-01  0.1181E-01  0.4872E-01  0.4874E-01
    -18.511  0.1518E-01  0.1529E-01  0.5142E-01  0.5145E-01
    -18.333  0.1667E-01  0.1687E-01  0.5438E-01  0.5445E-01
    -18.156  0.2167E-01  0.2152E-01  0.5823E-01  0.5827E-01
    -17.978  0.1177E-01  0.1168E-01  0.6032E-01  0.6035E-01
    -17.801  0.6403E-02  0.6339E-02  0.6146E-01  0.6147E-01
    -17.623  0.9571E-02  0.9753E-02  0.6315E-01  0.6320E-01
    -17.446  0.2051E-01  0.2050E-01  0.6680E-01  0.6684E-01
    -17.268  0.1691E-01  0.1689E-01  0.6980E-01  0.6984E-01
    -17.090  0.2052E-01  0.2053E-01  0.7344E-01  0.7349E-01
    -16.913  0.1537E-01  0.1537E-01  0.7617E-01  0.7621E-01
    -16.735  0.1817E-01  0.1814E-01  0.7940E-01  0.7944E-01
    -16.558  0.1191E-01  0.1186E-01  0.8151E-01  0.8154E-01
    -16.380  0.9645E-02  0.9667E-02  0.8322E-01  0.8326E-01
    -16.203  0.1216E-01  0.1219E-01  0.8538E-01  0.8542E-01
    -16.025  0.1702E-01  0.1703E-01  0.8841E-01  0.8845E-01
    -15.848  0.1726E-01  0.1714E-01  0.9147E-01  0.9149E-01
    -15.670  0.5418E-02  0.5502E-02  0.9243E-01  0.9247E-01
    -15.493  0.8778E-02  0.8759E-02  0.9399E-01  0.9402E-01
    -15.315  0.1073E-01  0.1077E-01  0.9590E-01  0.9594E-01
    -15.137  0.1523E-01  0.1526E-01  0.9860E-01  0.9865E-01
    -14.960  0.1282E-01  0.1274E-01  0.1009E+00  0.1009E+00
    -14.782  0.1832E-01  0.1844E-01  0.1041E+00  0.1042E+00
    -14.605  0.1807E-01  0.1794E-01  0.1073E+00  0.1074E+00
    -14.427  0.1312E-01  0.1309E-01  0.1097E+00  0.1097E+00
    -14.250  0.1315E-01  0.1325E-01  0.1120E+00  0.1120E+00
    -14.072  0.1965E-01  0.1964E-01  0.1155E+00  0.1155E+00
    -13.895  0.1798E-01  0.1807E-01  0.1187E+00  0.1187E+00
    -13.717  0.1438E-01  0.1418E-01  0.1212E+00  0.1213E+00
    -13.539  0.1382E-01  0.1397E-01  0.1237E+00  0.1237E+00
    -13.362  0.1509E-01  0.1504E-01  0.1264E+00  0.1264E+00
    -13.184  0.1005E-01  0.1002E-01  0.1282E+00  0.1282E+00
    -13.007  0.1106E-01  0.1102E-01  0.1301E+00  0.1301E+00
    -12.829  0.1744E-01  0.1758E-01  0.1332E+00  0.1333E+00
    -12.652  0.1981E-01  0.1974E-01  0.1367E+00  0.1368E+00
    -12.474  0.9543E-02  0.9469E-02  0.1384E+00  0.1384E+00
    -12.297  0.1031E-01  0.1031E-01  0.1403E+00  0.1403E+00
    -12.119  0.1443E-01  0.1447E-01  0.1428E+00  0.1428E+00
    -11.941  0.1355E-01  0.1357E-01  0.1452E+00  0.1453E+00
    -11.764  0.2505E-01  0.2518E-01  0.1497E+00  0.1497E+00
    -11.586  0.2957E-01  0.2959E-01  0.1549E+00  0.1550E+00
    -11.409  0.1127E-01  0.1096E-01  0.1569E+00  0.1569E+00
    -11.231  0.1114E-01  0.1128E-01  0.1589E+00  0.1589E+00
    -11.054  0.1582E-01  0.1580E-01  0.1617E+00  0.1617E+00
    -10.876  0.1405E-01  0.1401E-01  0.1642E+00  0.1642E+00
    -10.699  0.1552E-01  0.1559E-01  0.1670E+00  0.1670E+00
    -10.521  0.1879E-01  0.1887E-01  0.1703E+00  0.1703E+00
    -10.344  0.2071E-01  0.2064E-01  0.1740E+00  0.1740E+00
    -10.166  0.2881E-01  0.2906E-01  0.1791E+00  0.1792E+00
     -9.988  0.3027E-01  0.3005E-01  0.1845E+00  0.1845E+00
     -9.811  0.2088E-01  0.2083E-01  0.1882E+00  0.1882E+00
     -9.633  0.2307E-01  0.2323E-01  0.1923E+00  0.1923E+00
     -9.456  0.2901E-01  0.2897E-01  0.1974E+00  0.1975E+00
     -9.278  0.2820E-01  0.2823E-01  0.2024E+00  0.2025E+00
     -9.101  0.2902E-01  0.2908E-01  0.2076E+00  0.2076E+00
     -8.923  0.3847E-01  0.3845E-01  0.2144E+00  0.2145E+00
     -8.746  0.4014E-01  0.4020E-01  0.2215E+00  0.2216E+00
     -8.568  0.4632E-01  0.4654E-01  0.2298E+00  0.2299E+00
     -8.390  0.4529E-01  0.4519E-01  0.2378E+00  0.2379E+00
     -8.213  0.3726E-01  0.3707E-01  0.2444E+00  0.2445E+00
     -8.035  0.3251E-01  0.3276E-01  0.2502E+00  0.2503E+00
     -7.858  0.2882E-01  0.2862E-01  0.2553E+00  0.2554E+00
     -7.680  0.1912E-01  0.1922E-01  0.2587E+00  0.2588E+00
     -7.503  0.3556E-01  0.3560E-01  0.2650E+00  0.2651E+00
     -7.325  0.3368E-01  0.3376E-01  0.2710E+00  0.2711E+00
     -7.148  0.4021E-01  0.4021E-01  0.2781E+00  0.2782E+00
     -6.970  0.3249E-01  0.3272E-01  0.2839E+00  0.2841E+00
     -6.793  0.2025E-01  0.1980E-01  0.2875E+00  0.2876E+00
     -6.615  0.1595E-01  0.1608E-01  0.2903E+00  0.2904E+00
     -6.437  0.1977E-01  0.1992E-01  0.2938E+00  0.2940E+00
     -6.260  0.3223E-01  0.3229E-01  0.2996E+00  0.2997E+00
     -6.082  0.3628E-01  0.3623E-01  0.3060E+00  0.3061E+00
     -5.905  0.2960E-01  0.2974E-01  0.3113E+00  0.3114E+00
     -5.727  0.2537E-01  0.2489E-01  0.3158E+00  0.3158E+00
     -5.550  0.1655E-01  0.1677E-01  0.3187E+00  0.3188E+00
     -5.372  0.1772E-01  0.1747E-01  0.3218E+00  0.3219E+00
     -5.195  0.1649E-01  0.1611E-01  0.3248E+00  0.3248E+00
     -5.017  0.2693E-01  0.2696E-01  0.3296E+00  0.3296E+00
     -4.839  0.2765E-01  0.2814E-01  0.3345E+00  0.3346E+00
     -4.662  0.3515E-01  0.3481E-01  0.3407E+00  0.3407E+00
     -4.484  0.2251E-01  0.2249E-01  0.3447E+00  0.3447E+00
     -4.307  0.5442E-02  0.5394E-02  0.3457E+00  0.3457E+00
     -4.129  0.8344E-02  0.8433E-02  0.3472E+00  0.3472E+00
     -3.952  0.2134E-01  0.2173E-01  0.3509E+00  0.3510E+00
     -3.774  0.2078E-01  0.2026E-01  0.3546E+00  0.3546E+00
     -3.597  0.9701E-02  0.1059E-01  0.3564E+00  0.3565E+00
     -3.419  0.1357E-01  0.1288E-01  0.3588E+00  0.3588E+00
     -3.241  0.6311E-02  0.5946E-02  0.3599E+00  0.3599E+00
     -3.064  0.1027E-01  0.8771E-02  0.3617E+00  0.3614E+00
     -2.886  0.3461E-02  0.2565E-02  0.3623E+00  0.3619E+00
     -2.709  0.7609E-02  0.1340E-02  0.3637E+00  0.3621E+00
     -2.531  0.1430E-02  0.9158E-02  0.3639E+00  0.3637E+00
     -2.354  0.4210E-02  0.4772E-02  0.3647E+00  0.3646E+00
     -2.176  0.5105E-02  0.3700E-02  0.3656E+00  0.3652E+00
     -1.999  0.9895E-02  0.1073E-01  0.3673E+00  0.3671E+00
     -1.821  0.6884E-02  0.6177E-02  0.3686E+00  0.3682E+00
     -1.644  0.3016E-02  0.2733E-02  0.3691E+00  0.3687E+00
     -1.466  0.9316E-02  0.3691E-02  0.3707E+00  0.3694E+00
     -1.288  0.1608E-01  0.1753E-01  0.3736E+00  0.3725E+00
     -1.111  0.1116E-01  0.1483E-01  0.3756E+00  0.3751E+00
     -0.933  0.1328E-01  0.1461E-01  0.3779E+00  0.3777E+00
     -0.756  0.2243E-01  0.2286E-01  0.3819E+00  0.3818E+00
     -0.578  0.1880E-01  0.1845E-01  0.3853E+00  0.3851E+00
     -0.401  0.1378E-01  0.1517E-01  0.3877E+00  0.3877E+00
     -0.223  0.1867E-01  0.1870E-01  0.3910E+00  0.3911E+00
     -0.046  0.1143E-01  0.1122E-01  0.3931E+00  0.3931E+00
      0.132  0.1120E-01  0.1091E-01  0.3950E+00  0.3950E+00
      0.310  0.2601E-01  0.2646E-01  0.3997E+00  0.3997E+00
      0.487  0.1834E-01  0.1858E-01  0.4029E+00  0.4030E+00
      0.665  0.1206E-01  0.1239E-01  0.4051E+00  0.4052E+00
      0.842  0.1391E-01  0.1335E-01  0.4075E+00  0.4076E+00
      1.020  0.1736E-01  0.1667E-01  0.4106E+00  0.4105E+00
      1.197  0.8926E-02  0.8774E-02  0.4122E+00  0.4121E+00
      1.375  0.1971E-01  0.1902E-01  0.4157E+00  0.4155E+00
      1.552  0.1745E-01  0.1812E-01  0.4188E+00  0.4187E+00
      1.730  0.2445E-01  0.2532E-01  0.4231E+00  0.4232E+00
      1.908  0.3075E-01  0.2983E-01  0.4286E+00  0.4285E+00
      2.085  0.3094E-01  0.3016E-01  0.4341E+00  0.4338E+00
      2.263  0.2987E-01  0.3110E-01  0.4394E+00  0.4393E+00
      2.440  0.1963E-01  0.1697E-01  0.4429E+00  0.4424E+00
      2.618  0.4115E-01  0.4079E-01  0.4502E+00  0.4496E+00
      2.795  0.4693E-01  0.4604E-01  0.4585E+00  0.4578E+00
      2.973  0.8261E-02  0.1222E-01  0.4600E+00  0.4599E+00
      3.150  0.8604E-04  0.3194E-03  0.4600E+00  0.4600E+00
      3.328  0.5620E-08  0.8386E-07  0.4600E+00  0.4600E+00
      3.505  0.9805E-15  0.6775E-13  0.4600E+00  0.4600E+00
      3.683  0.0000E+00  0.0000E+00  0.4600E+00  0.4600E+00
      3.861  0.0000E+00  0.0000E+00  0.4600E+00  0.4600E+00
      4.038  0.0000E+00  0.0000E+00  0.4600E+00  0.4600E+00
      4.216  0.0000E+00  0.0000E+00  0.4600E+00  0.4600E+00
      4.393  0.0000E+00  0.0000E+00  0.4600E+00  0.4600E+00
      4.571  0.0000E+00  0.0000E+00  0.4600E+00  0.4600E+00
      4.748  0.0000E+00  0.0000E+00  0.4600E+00  0.4600E+00
      4.926  0.0000E+00  0.0000E+00  0.4600E+00  0.4600E+00
      5.103  0.0000E+00  0.0000E+00  0.4600E+00  0.4600E+00
      5.281  0.0000E+00  0.0000E+00  0.4600E+00  0.4600E+00
