 vasp.5.4.4.18Apr17-6-g9f103f2a35 (build Jan 14 2022 15:04:31) complex          
  
 executed on             LinuxIFC date 2023.01.23  17:52:25
 running on   48 total cores
 distrk:  each k-point on   48 cores,    1 groups
 distr:  one band on NCORES_PER_BAND=  12 cores,    4 groups


--------------------------------------------------------------------------------------------------------


 INCAR:
 POTCAR:    PAW_PBE C 08Apr2002                   
 POTCAR:    PAW_PBE N 08Apr2002                   
 POTCAR:    PAW_PBE C 08Apr2002                   
 POTCAR:    PAW_PBE Cr_pv 02Aug2007               
 POTCAR:    PAW_PBE C 08Apr2002                   
   SHA256 =  253f7b50bb8d59471dbedb8285d89021f4a42ed1a2c5d38a03a736e69125dd95 C/
   COPYR  = (c) Copyright 08Apr2002 Georg Kresse                                
   COPYR  = This file is part of the software VASP. Any use, copying, and all ot
   COPYR  = If you do not have a valid VASP license, you may not use, copy or di
   VRHFIN =C: s2p2                                                              
   LEXCH  = PE                                                                  
   EATOM  =   147.1560 eV,   10.8157 Ry                                         
                                                                                
   TITEL  = PAW_PBE C 08Apr2002                                                 
   LULTRA =        F    use ultrasoft PP ?                                      
   IUNSCR =        1    unscreen: 0-lin 1-nonlin 2-no                           
   RPACOR =    1.200    partial core radius                                     
   POMASS =   12.011; ZVAL   =    4.000    mass and valenz                      
   RCORE  =    1.500    outmost cutoff radius                                   
   RWIGS  =    1.630; RWIGS  =    0.863    wigner-seitz radius (au A)           
   ENMAX  =  400.000; ENMIN  =  300.000 eV                                      
   ICORE  =        2    local potential                                         
   LCOR   =        T    correct aug charges                                     
   LPAW   =        T    paw PP                                                  
   EAUG   =  644.873                                                            
   DEXC   =    0.000                                                            
   RMAX   =    1.529    core radius for proj-oper                               
   RAUG   =    1.300    factor for augmentation sphere                          
   RDEP   =    1.501    radius for radial grids                                 
   RDEPT  =    1.300    core radius for aug-charge                              
                                                                                
   Atomic configuration                                                         
    4 entries                                                                   
     n  l   j            E        occ.                                          
     1  0  0.50      -273.3789   2.0000                                         
     2  0  0.50       -13.7508   2.0000                                         
     2  1  0.50        -5.2854   2.0000                                         
     3  2  1.50        -5.4423   0.0000                                         
   Description                                                                  
     l       E           TYP  RCUT    TYP  RCUT                                 
     0    -13.7508458     23  1.200                                             
     0     -8.2022199     23  1.200                                             
     1     -5.2854383     23  1.500                                             
     1     34.0145650     23  1.500                                             
     2     -5.4423304      7  1.500                                             
  local pseudopotential read in
  partial core-charges read in
  partial kinetic energy density read in
  atomic valenz-charges read in
  non local Contribution for L=           0  read in
    real space projection operators read in
  non local Contribution for L=           0  read in
    real space projection operators read in
  non local Contribution for L=           1  read in
    real space projection operators read in
  non local Contribution for L=           1  read in
    real space projection operators read in
    PAW grid and wavefunctions read in
 
   number of l-projection  operators is LMAX  =           4
   number of lm-projection operators is LMMAX =           8
 
 POTCAR:    PAW_PBE N 08Apr2002                   
   SHA256 =  e053789ff3a61a86a1b75d8a110fcc91f86041011e7b0817c7c99e4e8a6349d7 N/
   COPYR  = (c) Copyright 08Apr2002 Georg Kresse                                
   COPYR  = This file is part of the software VASP. Any use, copying, and all ot
   COPYR  = If you do not have a valid VASP license, you may not use, copy or di
   VRHFIN =N: s2p3                                                              
   LEXCH  = PE                                                                  
   EATOM  =   264.5486 eV,   19.4438 Ry                                         
                                                                                
   TITEL  = PAW_PBE N 08Apr2002                                                 
   LULTRA =        F    use ultrasoft PP ?                                      
   IUNSCR =        1    unscreen: 0-lin 1-nonlin 2-no                           
   RPACOR =    1.200    partial core radius                                     
   POMASS =   14.001; ZVAL   =    5.000    mass and valenz                      
   RCORE  =    1.500    outmost cutoff radius                                   
   RWIGS  =    1.400; RWIGS  =    0.741    wigner-seitz radius (au A)           
   ENMAX  =  400.000; ENMIN  =  300.000 eV                                      
   ICORE  =        2    local potential                                         
   LCOR   =        T    correct aug charges                                     
   LPAW   =        T    paw PP                                                  
   EAUG   =  627.112                                                            
   DEXC   =    0.000                                                            
   RMAX   =    1.529    core radius for proj-oper                               
   RAUG   =    1.300    factor for augmentation sphere                          
   RDEP   =    1.514    radius for radial grids                                 
   RDEPT  =    1.338    core radius for aug-charge                              
                                                                                
   Atomic configuration                                                         
    4 entries                                                                   
     n  l   j            E        occ.                                          
     1  0  0.50      -384.7179   2.0000                                         
     2  0  0.50       -18.5828   2.0000                                         
     2  1  0.50        -7.0898   3.0000                                         
     3  2  1.50        -6.8029   0.0000                                         
   Description                                                                  
     l       E           TYP  RCUT    TYP  RCUT                                 
     0    -18.5828119     23  1.200                                             
     0    -13.5018863     23  1.200                                             
     1     -7.0897853     23  1.500                                             
     1      9.5240782     23  1.500                                             
     2     -6.8029130      7  1.500                                             
  local pseudopotential read in
  partial core-charges read in
  partial kinetic energy density read in
  atomic valenz-charges read in
  non local Contribution for L=           0  read in
    real space projection operators read in
  non local Contribution for L=           0  read in
    real space projection operators read in
  non local Contribution for L=           1  read in
    real space projection operators read in
  non local Contribution for L=           1  read in
    real space projection operators read in
    PAW grid and wavefunctions read in
 
   number of l-projection  operators is LMAX  =           4
   number of lm-projection operators is LMMAX =           8
 
 POTCAR:    PAW_PBE C 08Apr2002                   
   SHA256 =  253f7b50bb8d59471dbedb8285d89021f4a42ed1a2c5d38a03a736e69125dd95 C/
   COPYR  = (c) Copyright 08Apr2002 Georg Kresse                                
   COPYR  = This file is part of the software VASP. Any use, copying, and all ot
   COPYR  = If you do not have a valid VASP license, you may not use, copy or di
   VRHFIN =C: s2p2                                                              
   LEXCH  = PE                                                                  
   EATOM  =   147.1560 eV,   10.8157 Ry                                         
                                                                                
   TITEL  = PAW_PBE C 08Apr2002                                                 
   LULTRA =        F    use ultrasoft PP ?                                      
   IUNSCR =        1    unscreen: 0-lin 1-nonlin 2-no                           
   RPACOR =    1.200    partial core radius                                     
   POMASS =   12.011; ZVAL   =    4.000    mass and valenz                      
   RCORE  =    1.500    outmost cutoff radius                                   
   RWIGS  =    1.630; RWIGS  =    0.863    wigner-seitz radius (au A)           
   ENMAX  =  400.000; ENMIN  =  300.000 eV                                      
   ICORE  =        2    local potential                                         
   LCOR   =        T    correct aug charges                                     
   LPAW   =        T    paw PP                                                  
   EAUG   =  644.873                                                            
   DEXC   =    0.000                                                            
   RMAX   =    1.529    core radius for proj-oper                               
   RAUG   =    1.300    factor for augmentation sphere                          
   RDEP   =    1.501    radius for radial grids                                 
   RDEPT  =    1.300    core radius for aug-charge                              
                                                                                
   Atomic configuration                                                         
    4 entries                                                                   
     n  l   j            E        occ.                                          
     1  0  0.50      -273.3789   2.0000                                         
     2  0  0.50       -13.7508   2.0000                                         
     2  1  0.50        -5.2854   2.0000                                         
     3  2  1.50        -5.4423   0.0000                                         
   Description                                                                  
     l       E           TYP  RCUT    TYP  RCUT                                 
     0    -13.7508458     23  1.200                                             
     0     -8.2022199     23  1.200                                             
     1     -5.2854383     23  1.500                                             
     1     34.0145650     23  1.500                                             
     2     -5.4423304      7  1.500                                             
  local pseudopotential read in
  partial core-charges read in
  partial kinetic energy density read in
  atomic valenz-charges read in
  non local Contribution for L=           0  read in
    real space projection operators read in
  non local Contribution for L=           0  read in
    real space projection operators read in
  non local Contribution for L=           1  read in
    real space projection operators read in
  non local Contribution for L=           1  read in
    real space projection operators read in
    PAW grid and wavefunctions read in
 
   number of l-projection  operators is LMAX  =           4
   number of lm-projection operators is LMMAX =           8
 
 POTCAR:    PAW_PBE Cr_pv 02Aug2007               
   SHA256 =  c9a7df34d3cdbacf1090e328ef39c0b420964e11c23f63548d1ac9dd218cdba0 Cr
   COPYR  = (c) Copyright 02Aug2007 Georg Kresse                                
   COPYR  = This file is part of the software VASP. Any use, copying, and all ot
   COPYR  = If you do not have a valid VASP license, you may not use, copy or di
   VRHFIN =Cr : p6d5s1                                                          
   LEXCH  = PE                                                                  
   EATOM  =  1647.9177 eV,  121.1185 Ry                                         
                                                                                
   TITEL  = PAW_PBE Cr_pv 02Aug2007                                             
   LULTRA =        F    use ultrasoft PP ?                                      
   IUNSCR =        1    unscreen: 0-lin 1-nonlin 2-no                           
   RPACOR =    2.080    partial core radius                                     
   POMASS =   51.996; ZVAL   =   12.000    mass and valenz                      
   RCORE  =    2.300    outmost cutoff radius                                   
   RWIGS  =    2.500; RWIGS  =    1.323    wigner-seitz radius (au A)           
   ENMAX  =  265.681; ENMIN  =  199.261 eV                                      
   ICORE  =        3    local potential                                         
   LCOR   =        T    correct aug charges                                     
   LPAW   =        T    paw PP                                                  
   EAUG   =  519.424                                                            
   DEXC   =    0.000                                                            
   RMAX   =    2.356    core radius for proj-oper                               
   RAUG   =    1.300    factor for augmentation sphere                          
   RDEP   =    2.447    radius for radial grids                                 
   RDEPT  =    1.882    core radius for aug-charge                              
                                                                                
   Atomic configuration                                                         
    8 entries                                                                   
     n  l   j            E        occ.                                          
     1  0  0.50     -5880.4963   2.0000                                         
     2  0  0.50      -667.0865   2.0000                                         
     2  1  1.50      -560.6250   6.0000                                         
     3  0  0.50       -73.9860   2.0000                                         
     3  1  1.50       -45.4378   6.0000                                         
     3  2  2.50        -2.9137   5.0000                                         
     4  0  0.50        -4.0071   1.0000                                         
     4  3  2.50        -1.3606   0.0000                                         
   Description                                                                  
     l       E           TYP  RCUT    TYP  RCUT                                 
     1    -45.4377911     23  2.000                                             
     1      1.3605826     23  2.000                                             
     2     -2.9136672     23  2.300                                             
     2     -4.2742498     23  2.300                                             
     0     -4.0071320     23  2.300                                             
     0      9.4498803     23  2.300                                             
     3      2.7211652     23  2.300                                             
  local pseudopotential read in
  partial core-charges read in
  partial kinetic energy density read in
  atomic valenz-charges read in
  non local Contribution for L=           1  read in
    real space projection operators read in
  non local Contribution for L=           1  read in
    real space projection operators read in
  non local Contribution for L=           2  read in
    real space projection operators read in
  non local Contribution for L=           2  read in
    real space projection operators read in
  non local Contribution for L=           0  read in
    real space projection operators read in
  non local Contribution for L=           0  read in
    real space projection operators read in
    PAW grid and wavefunctions read in
 
   number of l-projection  operators is LMAX  =           6
   number of lm-projection operators is LMMAX =          18
 
 Optimization of the real space projectors (new method)

 maximal supplied QI-value         = 25.13
 optimisation between [QCUT,QGAM] = [ 10.56, 21.36] = [ 31.20,127.80] Ry 
 Optimized for a Real-space Cutoff    1.32 Angstroem

   l    n(q)    QCUT    max X(q) W(low)/X(q) W(high)/X(q)  e(spline) 
   0      8    10.556   115.676    0.17E-03    0.39E-03    0.26E-06
   0      8    10.556    87.132    0.17E-03    0.39E-03    0.26E-06
   1      8    10.556     4.429    0.24E-03    0.31E-03    0.16E-06
   1      8    10.556     2.733    0.17E-03    0.22E-03    0.19E-06
 Optimization of the real space projectors (new method)

 maximal supplied QI-value         = 25.13
 optimisation between [QCUT,QGAM] = [ 10.56, 21.36] = [ 31.20,127.80] Ry 
 Optimized for a Real-space Cutoff    1.40 Angstroem

   l    n(q)    QCUT    max X(q) W(low)/X(q) W(high)/X(q)  e(spline) 
   0      9    10.556    79.467    0.20E-03    0.22E-03    0.30E-06
   0      9    10.556    66.151    0.20E-03    0.22E-03    0.30E-06
   1      8    10.556    12.181    0.10E-03    0.78E-03    0.19E-05
   1      8    10.556     8.434    0.11E-03    0.81E-03    0.19E-05
 Optimization of the real space projectors (new method)

 maximal supplied QI-value         = 25.13
 optimisation between [QCUT,QGAM] = [ 10.56, 21.36] = [ 31.20,127.80] Ry 
 Optimized for a Real-space Cutoff    1.32 Angstroem

   l    n(q)    QCUT    max X(q) W(low)/X(q) W(high)/X(q)  e(spline) 
   0      8    10.556   115.676    0.17E-03    0.39E-03    0.26E-06
   0      8    10.556    87.132    0.17E-03    0.39E-03    0.26E-06
   1      8    10.556     4.429    0.24E-03    0.31E-03    0.16E-06
   1      8    10.556     2.733    0.17E-03    0.22E-03    0.19E-06
 Optimization of the real space projectors (new method)

 maximal supplied QI-value         = 16.25
 optimisation between [QCUT,QGAM] = [ 10.73, 21.45] = [ 32.22,128.87] Ry 
 Optimized for a Real-space Cutoff    1.53 Angstroem

   l    n(q)    QCUT    max X(q) W(low)/X(q) W(high)/X(q)  e(spline) 
   1      9    10.726     3.262    0.64E-04    0.35E-04    0.11E-06
   1      9    10.726     5.741    0.13E-03    0.48E-04    0.19E-06
   2      9    10.726    60.438    0.12E-03    0.29E-04    0.13E-06
   2      9    10.726    55.380    0.12E-03    0.29E-04    0.13E-06
   0     10    10.726    80.273    0.43E-04    0.74E-05    0.81E-07
   0     10    10.726    36.654    0.34E-04    0.61E-05    0.73E-07
  PAW_PBE C 08Apr2002                   :
 energy of atom  1       EATOM= -147.1560
 kinetic energy error for atom=    0.0132 (will be added to EATOM!!)
  PAW_PBE N 08Apr2002                   :
 energy of atom  2       EATOM= -264.5486
 kinetic energy error for atom=    0.0298 (will be added to EATOM!!)
  PAW_PBE C 08Apr2002                   :
 energy of atom  3       EATOM= -147.1560
 kinetic energy error for atom=    0.0132 (will be added to EATOM!!)
  PAW_PBE Cr_pv 02Aug2007               :
 energy of atom  4       EATOM=-1647.9177
 kinetic energy error for atom=    0.0134 (will be added to EATOM!!)
 
 
 POSCAR: POSCAR-clean                            
  positions in direct lattice
  velocities in cartesian coordinates
 exchange correlation table for  LEXCH =        8
   RHO(1)=    0.500       N(1)  =     2000
   RHO(2)=  100.500       N(2)  =     4000

 VTST: version 3.2, (02/03/18)

 CHAIN: initializing optimizer
 
 OPT: Using VASP Conjugate-Gradient optimizer
 CHAIN: Read ICHAIN            0
 
 POSCAR: POSCAR-clean                            
  positions in direct lattice
  velocities in cartesian coordinates
 


--------------------------------------------------------------------------------------------------------


 ion  position               nearest neighbor table
   1  1.000  1.000  0.498-   2 1.42  60 1.42  70 1.44
   2  0.056  0.111  0.498-   1 1.42  13 1.43  15 1.44
   3  0.168  0.002  0.498-   4 1.42  62 1.43  60 1.43
   4  0.224  0.113  0.498-   3 1.42  15 1.43  17 1.43
   5  0.334  0.002  0.498-   6 1.42  64 1.42  62 1.43
   6  0.390  0.113  0.498-  19 1.42   5 1.42  17 1.43
   7  0.500  0.999  0.498-  64 1.42   8 1.43  66 1.43
   8  0.556  0.111  0.498-  21 1.42   7 1.43  19 1.44
   9  0.665  0.997  0.498-  66 1.42  10 1.43  68 1.43
  10  0.721  0.109  0.498-  21 1.42   9 1.43  23 1.43
  11  0.832  0.998  0.498-  12 1.42  70 1.42  68 1.43
  12  0.888  0.109  0.498-  11 1.42  23 1.42  13 1.43
  13  0.999  0.166  0.498-  14 1.42   2 1.43  12 1.43
  14  0.054  0.277  0.498-  13 1.42  25 1.42  27 1.43
  15  0.167  0.168  0.498-   4 1.43  16 1.43   2 1.44
  16  0.223  0.280  0.500-  27 1.43  15 1.43  29 1.44
  17  0.335  0.170  0.499-  18 1.42   6 1.43   4 1.43
  18  0.391  0.281  0.502-  17 1.42  31 1.43  29 1.44
  19  0.501  0.168  0.498-   6 1.42  20 1.42   8 1.44
  20  0.557  0.279  0.500-  33 1.42  19 1.42  31 1.44
  21  0.666  0.165  0.498-   8 1.42  22 1.42  10 1.42
  22  0.722  0.277  0.498-  21 1.42  35 1.42  33 1.42
  23  0.832  0.165  0.498-  24 1.42  12 1.42  10 1.43
  24  0.888  0.276  0.498-  35 1.42  23 1.42  25 1.43
  25  0.999  0.332  0.498-  14 1.42  24 1.43  26 1.43
  26  0.055  0.444  0.499-  39 1.42  37 1.42  25 1.43
  27  0.166  0.333  0.500-  28 1.42  16 1.43  14 1.43
  28  0.220  0.444  0.502-  41 1.41  27 1.42  39 1.42
  29  0.336  0.338  0.503-  30 1.42  18 1.44  16 1.44
  30  0.388  0.449  0.509-  41 1.41  29 1.42  71 2.00
  31  0.503  0.337  0.503-  32 1.42  18 1.43  20 1.44
  32  0.561  0.448  0.510-  43 1.41  31 1.42  71 1.99
  33  0.668  0.333  0.500-  34 1.42  20 1.42  22 1.42
  34  0.725  0.444  0.502-  43 1.41  33 1.42  45 1.42
  35  0.833  0.332  0.498-  22 1.42  24 1.42  36 1.42
  36  0.890  0.444  0.498-  45 1.41  37 1.42  35 1.42
  37  0.000  0.500  0.498-  26 1.42  36 1.42  38 1.42
  38  0.056  0.611  0.498-  47 1.42  49 1.42  37 1.42
  39  0.165  0.500  0.500-  26 1.42  28 1.42  40 1.42
  40  0.221  0.612  0.500-  49 1.41  39 1.42  51 1.43
  41  0.330  0.500  0.505-  30 1.41  28 1.41  42 1.43
  42  0.385  0.612  0.505-  51 1.41  53 1.41  41 1.43
  43  0.670  0.499  0.505-  32 1.41  34 1.41  44 1.44
  44  0.727  0.612  0.505-  55 1.41  57 1.41  43 1.44
  45  0.835  0.500  0.500-  36 1.41  34 1.42  46 1.42
  46  0.891  0.611  0.500-  47 1.41  57 1.42  45 1.42
  47  0.001  0.667  0.498-  46 1.41  38 1.42  48 1.42
  48  0.057  0.779  0.498-  47 1.42  59 1.43  61 1.43
  49  0.167  0.667  0.499-  40 1.41  38 1.42  50 1.42
  50  0.223  0.779  0.498-  49 1.42  61 1.43  63 1.43
  51  0.332  0.668  0.501-  42 1.41  52 1.42  40 1.43
  52  0.389  0.779  0.500-  65 1.41  51 1.42  63 1.42
  53  0.495  0.664  0.511-  54 1.40  42 1.41  71 2.02
  54  0.552  0.774  0.504-  53 1.40  65 1.43  67 1.44
  55  0.668  0.663  0.509-  44 1.41  56 1.41  71 1.98
  56  0.719  0.773  0.503-  55 1.41  67 1.44  69 1.45
  57  0.836  0.667  0.501-  44 1.41  58 1.42  46 1.42
  58  0.890  0.778  0.500-  57 1.42  69 1.43  59 1.43
  59  0.001  0.834  0.498-  60 1.42  48 1.43  58 1.43
  60  0.057  0.945  0.498-  59 1.42   1 1.42   3 1.43
  61  0.168  0.835  0.498-  62 1.42  48 1.43  50 1.43
  62  0.223  0.946  0.498-  61 1.42   3 1.43   5 1.43
  63  0.334  0.835  0.498-  64 1.42  52 1.42  50 1.43
  64  0.389  0.946  0.498-  63 1.42   7 1.42   5 1.42
  65  0.499  0.832  0.500-  52 1.41  66 1.41  54 1.43
  66  0.554  0.942  0.498-  65 1.41   9 1.42   7 1.43
  67  0.664  0.830  0.503-  68 1.41  54 1.44  56 1.44
  68  0.721  0.941  0.499-  67 1.41  11 1.43   9 1.43
  69  0.832  0.831  0.500-  70 1.42  58 1.43  56 1.45
  70  0.888  0.943  0.498-  69 1.42  11 1.42   1 1.44
  71  0.529  0.556  0.554-  55 1.98  32 1.99  30 2.00  53 2.02
 

IMPORTANT INFORMATION: All symmetrisations will be switched off!
NOSYMM: (Re-)initialisation of all symmetry stuff for point group C_1.

 
 
 KPOINTS: K-Points                                

Automatic generation of k-mesh.
Space group operators:
 irot       det(A)        alpha          n_x          n_y          n_z        tau_x        tau_y        tau_z
    1     1.000000     0.000000     1.000000     0.000000     0.000000     0.000000     0.000000     0.000000
 
 Subroutine IBZKPT returns following result:
 ===========================================
 
 Found      4 irreducible k-points:
 
 Following reciprocal coordinates:
            Coordinates               Weight
  0.000000  0.000000  0.000000      1.000000
  0.500000  0.000000  0.000000      1.000000
 -0.000000  0.500000  0.000000      1.000000
  0.500000  0.500000  0.000000      1.000000
 
 Following cartesian coordinates:
            Coordinates               Weight
  0.000000  0.000000  0.000000      1.000000
  0.033662  0.019596  0.000000      1.000000
  0.000026  0.039192  0.000000      1.000000
  0.033688  0.058788  0.000000      1.000000
 


--------------------------------------------------------------------------------------------------------




 Dimension of arrays:
   k-points           NKPTS =      4   k-points in BZ     NKDIM =      4   number of bands    NBANDS=    184
   number of dos      NEDOS =    301   number of ions     NIONS =     71
   non local maximal  LDIM  =      6   non local SUM 2l+1 LMDIM =     18
   total plane-waves  NPLWV = ******
   max r-space proj   IRMAX =   6643   max aug-charges    IRDMAX=  15613
   dimension x,y,z NGX =   108 NGY =  108 NGZ =  108
   dimension x,y,z NGXF=   216 NGYF=  216 NGZF=  216
   support grid    NGXF=   216 NGYF=  216 NGZF=  216
   ions per type =              64   1   5   1
   NGX,Y,Z   is equivalent  to a cutoff of  12.08, 12.16, 11.97 a.u.
   NGXF,Y,Z  is equivalent  to a cutoff of  24.17, 24.32, 23.94 a.u.

 SYSTEM =  unknown system                          
 POSCAR =  POSCAR-clean                            

 Startparameter for this run:
   NWRITE =      2    write-flag & timer
   PREC   = accura    normal or accurate (medium, high low for compatibility)
   ISTART =      0    job   : 0-new  1-cont  2-samecut
   ICHARG =      2    charge: 1-file 2-atom 10-const
   ISPIN  =      2    spin polarized calculation?
   LNONCOLLINEAR =      F non collinear calculations
   LSORBIT =      F    spin-orbit coupling
   INIWAV =      1    electr: 0-lowe 1-rand  2-diag
   LASPH  =      F    aspherical Exc in radial PAW
   METAGGA=      F    non-selfconsistent MetaGGA calc.

 Electronic Relaxation 1
   ENCUT  =  440.0 eV  32.34 Ry    5.69 a.u.  25.41 25.26 25.66*2*pi/ulx,y,z
   ENINI  =  440.0     initial cutoff
   ENAUG  =  644.9 eV  augmentation charge cutoff
   NELM   =     50;   NELMIN=  2; NELMDL= -5     # of ELM steps 
   EDIFF  = 0.1E-04   stopping-criterion for ELM
   LREAL  =      T    real-space projection
   NLSPLINE    = F    spline interpolate recip. space projectors
   LCOMPAT=      F    compatible to vasp.4.4
   GGA_COMPAT  = T    GGA compatible to vasp.4.4-vasp.4.6
   LMAXPAW     = -100 max onsite density
   LMAXMIX     =    2 max onsite mixed and CHGCAR
   VOSKOWN=      0    Vosko Wilk Nusair interpolation
   ROPT   =   -0.00025  -0.00025  -0.00025  -0.00025
 Ionic relaxation
   EDIFFG = -.5E-01   stopping-criterion for IOM
   NSW    =    400    number of steps for IOM
   NBLOCK =      1;   KBLOCK =    400    inner block; outer block 
   IBRION =      2    ionic relax: 0-MD 1-quasi-New 2-CG
   NFREE  =      1    steps in history (QN), initial steepest desc. (CG)
   ISIF   =      2    stress and relaxation
   IWAVPR =     11    prediction:  0-non 1-charg 2-wave 3-comb
   ISYM   =      0    0-nonsym 1-usesym 2-fastsym
   LCORR  =      T    Harris-Foulkes like correction to forces

   POTIM  = 0.3000    time-step for ionic-motion
   TEIN   =    0.0    initial temperature
   TEBEG  =    0.0;   TEEND  =   0.0 temperature during run
   SMASS  =  -3.00    Nose mass-parameter (am)
   estimated Nose-frequenzy (Omega)   =  0.10E-29 period in steps =****** mass=  -0.505E-26a.u.
   SCALEE = 1.0000    scale energy and forces
   NPACO  =    256;   APACO  = 16.0  distance and # of slots for P.C.
   PSTRESS=    0.0 pullay stress

  Mass of Ions in am
   POMASS =  12.01 14.00 12.01 52.00
  Ionic Valenz
   ZVAL   =   4.00  5.00  4.00 12.00
  Atomic Wigner-Seitz radii
   RWIGS  =  -1.00 -1.00 -1.00 -1.00
  virtual crystal weights 
   VCA    =   1.00  1.00  1.00  1.00
   NELECT =     293.0000    total number of electrons
   NUPDOWN=      -1.0000    fix difference up-down

 DOS related values:
   EMIN   =  10.00;   EMAX   =-10.00  energy-range for DOS
   EFERMI =   0.00
   ISMEAR =     0;   SIGMA  =   0.10  broadening in eV -4-tet -1-fermi 0-gaus

 Electronic relaxation 2 (details)
   IALGO  =     68    algorithm
   LDIAG  =      T    sub-space diagonalisation (order eigenvalues)
   LSUBROT=      F    optimize rotation matrix (better conditioning)
   TURBO    =      0    0=normal 1=particle mesh
   IRESTART =      0    0=no restart 2=restart with 2 vectors
   NREBOOT  =      0    no. of reboots
   NMIN     =      0    reboot dimension
   EREF     =   0.00    reference energy to select bands
   IMIX   =      4    mixing-type and parameters
     AMIX     =   0.40;   BMIX     =  1.00
     AMIX_MAG =   1.60;   BMIX_MAG =  1.00
     AMIN     =   0.10
     WC   =   100.;   INIMIX=   1;  MIXPRE=   1;  MAXMIX= -45

 Intra band minimization:
   WEIMIN = 0.0010     energy-eigenvalue tresh-hold
   EBREAK =  0.14E-07  absolut break condition
   DEPER  =   0.30     relativ break condition  

   TIME   =   0.40     timestep for ELM

  volume/ion in A,a.u.               =      40.05       270.27
  Fermi-wavevector in a.u.,A,eV,Ry     =   0.767498  1.450361  8.014559  0.589053
  Thomas-Fermi vector in A             =   1.868068
 
 Write flags
   LWAVE        =      F    write WAVECAR
   LDOWNSAMPLE  =      F    k-point downsampling of WAVECAR
   LCHARG       =      F    write CHGCAR
   LVTOT        =      F    write LOCPOT, total local potential
   LVHAR        =      F    write LOCPOT, Hartree potential only
   LELF         =      F    write electronic localiz. function (ELF)
   LORBIT       =      0    0 simple, 1 ext, 2 COOP (PROOUT), +10 PAW based schemes


 Dipole corrections
   LMONO  =      F    monopole corrections only (constant potential shift)
   LDIPOL =      F    correct potential (dipole corrections)
   IDIPOL =      0    1-x, 2-y, 3-z, 4-all directions 
   EPSILON=  1.0000000 bulk dielectric constant

 Exchange correlation treatment:
   GGA     =    --    GGA type
   LEXCH   =     8    internal setting for exchange type
   VOSKOWN=      0    Vosko Wilk Nusair interpolation
   LHFCALC =     F    Hartree Fock is set to
   LHFONE  =     F    Hartree Fock one center treatment
   AEXX    =    0.0000 exact exchange contribution

 Linear response parameters
   LEPSILON=     F    determine dielectric tensor
   LRPA    =     F    only Hartree local field effects (RPA)
   LNABLA  =     F    use nabla operator in PAW spheres
   LVEL    =     F    velocity operator in full k-point grid
   LINTERFAST=   F  fast interpolation
   KINTER  =     0    interpolate to denser k-point grid
   CSHIFT  =0.1000    complex shift for real part using Kramers Kronig
   OMEGAMAX=  -1.0    maximum frequency
   DEG_THRESHOLD= 0.2000000E-02 threshold for treating states as degnerate
   RTIME   =   -0.100 relaxation time in fs
  (WPLASMAI=    0.000 imaginary part of plasma frequency in eV, 0.658/RTIME)
   DFIELD  = 0.0000000 0.0000000 0.0000000 field for delta impulse in time
 
 Orbital magnetization related:
   ORBITALMAG=     F  switch on orbital magnetization
   LCHIMAG   =     F  perturbation theory with respect to B field
   DQ        =  0.001000  dq finite difference perturbation B field
   LLRAUG    =     F  two centre corrections for induced B field



--------------------------------------------------------------------------------------------------------


 conjugate gradient relaxation of ions
 charge density and potential will be updated during run
 spin polarized calculation
 RMM-DIIS sequential band-by-band and
  variant of blocked Davidson during initial phase
 perform sub-space diagonalisation
    before iterative eigenvector-optimisation
 modified Broyden-mixing scheme, WC =      100.0
 initial mixing is a Kerker type mixing with AMIX =  0.4000 and BMIX =      1.0000
 Hartree-type preconditioning will be used
 using additional bands           37
 real space projection scheme for non local part
 use partial core corrections
 calculate Harris-corrections to forces 
   (improved forces if not selfconsistent)
 use gradient corrections 
 use of overlap-Matrix (Vanderbilt PP)
 Gauss-broadening in eV      SIGMA  =   0.10


--------------------------------------------------------------------------------------------------------


  energy-cutoff  :      440.00
  volume of cell :     2843.54
      direct lattice vectors                 reciprocal lattice vectors
    14.859192570 -0.009793846  0.000000000     0.067324240  0.039191913  0.000000000
    -7.429596285 12.762630739  0.000000000     0.000051664  0.078383827  0.000000000
     0.000000000  0.000000000 15.000000000     0.000000000  0.000000000  0.066666667

  length of vectors
    14.859195797 14.767655343 15.000000000     0.077900958  0.078383844  0.066666667


 
 k-points in units of 2pi/SCALE and weight: K-Points                                
   0.00000000  0.00000000  0.00000000       0.250
   0.03366212  0.01959596  0.00000000       0.250
   0.00002583  0.03919191  0.00000000       0.250
   0.03368795  0.05878787  0.00000000       0.250
 
 k-points in reciprocal lattice and weights: K-Points                                
   0.00000000  0.00000000  0.00000000       0.250
   0.50000000  0.00000000  0.00000000       0.250
  -0.00000000  0.50000000  0.00000000       0.250
   0.50000000  0.50000000  0.00000000       0.250
 
 position of ions in fractional coordinates (direct lattice) 
   0.99991119  0.99969528  0.49767607
   0.05566468  0.11126128  0.49773470
   0.16795766  0.00178194  0.49753041
   0.22354965  0.11323535  0.49827087
   0.33440509  0.00178683  0.49772628
   0.39020846  0.11326833  0.49837276
   0.49973936  0.99898328  0.49772560
   0.55586764  0.11072940  0.49768019
   0.66483395  0.99680344  0.49829744
   0.72082507  0.10863380  0.49757838
   0.83196670  0.99767651  0.49826467
   0.88768832  0.10918811  0.49767677
   0.99898184  0.16554169  0.49780034
   0.05441853  0.27690249  0.49849335
   0.16746741  0.16810825  0.49841798
   0.22331665  0.27999150  0.50016373
   0.33530302  0.17004615  0.49935473
   0.39096124  0.28133854  0.50235329
   0.50087597  0.16753523  0.49843485
   0.55681498  0.27921508  0.50003930
   0.66647929  0.16519136  0.49754232
   0.72249306  0.27658683  0.49806668
   0.83217401  0.16456505  0.49759732
   0.88810775  0.27617863  0.49768919
   0.99916746  0.33233305  0.49823896
   0.05478078  0.44410544  0.49871139
   0.16563719  0.33323580  0.50010673
   0.21960976  0.44431479  0.50172488
   0.33580804  0.33835270  0.50333797
   0.38842465  0.44927239  0.50920111
   0.50266026  0.33731652  0.50340260
   0.56102849  0.44809267  0.50988157
   0.66768915  0.33270884  0.49979015
   0.72485867  0.44381746  0.50151342
   0.83328674  0.33218952  0.49789102
   0.88958434  0.44385545  0.49825143
   0.00023016  0.49998363  0.49819290
   0.05593013  0.61138390  0.49822249
   0.16512139  0.50035306  0.50032814
   0.22095297  0.61204442  0.50020953
   0.32956332  0.49994598  0.50512816
   0.38537048  0.61212270  0.50527624
   0.67037156  0.49919300  0.50535998
   0.72655548  0.61181892  0.50508695
   0.83548489  0.49984805  0.49972540
   0.89119407  0.61137297  0.49970650
   0.00137909  0.66735700  0.49827951
   0.05679658  0.77889074  0.49790615
   0.16658748  0.66748728  0.49873307
   0.22302876  0.77883270  0.49827990
   0.33202997  0.66813440  0.50132394
   0.38920296  0.77901917  0.49980883
   0.49463083  0.66404954  0.51084925
   0.55208402  0.77381243  0.50421097
   0.66777632  0.66253066  0.50895241
   0.71935563  0.77312412  0.50327403
   0.83642808  0.66723968  0.50136284
   0.89003776  0.77824060  0.49970364
   0.00129564  0.83433478  0.49805896
   0.05657402  0.94549215  0.49753901
   0.16788938  0.83475642  0.49769911
   0.22326731  0.94606055  0.49757755
   0.33423434  0.83468732  0.49845848
   0.38918759  0.94578278  0.49783355
   0.49871869  0.83200155  0.49996574
   0.55433248  0.94227228  0.49836783
   0.66411823  0.83014547  0.50255180
   0.72052826  0.94096480  0.49929820
   0.83217175  0.83141381  0.50001404
   0.88809251  0.94287527  0.49844245
   0.52915093  0.55580877  0.55439403
 
 position of ions in cartesian coordinates  (Angst):
   7.43054050 12.74894877  7.46514099
   0.00050581  1.41944151  7.46602044
   2.48247615  0.02109735  7.46295614
   2.48047437  1.44299149  7.47406300
   4.95571415  0.01952959  7.46589426
   4.95664462  1.44178028  7.47559135
   0.00368083 12.74476038  7.46588397
   7.43706949  1.40775438  7.46520281
   2.47304854 12.71532297  7.47446163
   9.90377330  1.37939340  7.46367577
   4.95001964 12.72482876  7.47396998
  12.37910815  1.38483367  7.46515153
  13.61415566  2.10296362  7.46700517
  -1.24865832  3.53347130  7.47740018
   1.23945411  2.14386335  7.47626975
   1.23808134  3.57124100  7.50245598
   3.71895787  2.16695229  7.49032098
   3.71913659  3.58679094  7.53529934
   6.19789328  2.13328482  7.47652269
   6.19936563  3.55806561  7.50058945
   8.67603900  2.10174888  7.46313482
   8.68073496  3.52289962  7.47100022
  11.14278196  2.09213279  7.46395981
  11.14466843  3.51606786  7.46533779
  12.37772137  4.23165832  7.47358437
  -2.48552593  5.66741728  7.48067091
  -0.01457251  4.25134328  7.50160095
  -0.03785579  5.66847481  7.52587326
   2.47601241  4.31498169  7.55006951
   2.43376417  5.73009344  7.63801662
   4.96300002  4.30012315  7.55103899
   5.00728277  5.71334666  7.64822351
   7.44942932  4.23970079  7.49685228
   7.47343009  5.65717914  7.52270128
   9.91393409  4.23145110  7.46836531
   9.92083825  5.65605080  7.47377151
  -3.71125655  6.38110419  7.47289354
  -3.71125894  7.80231918  7.47333733
  -1.26385067  6.38420423  7.50492203
  -1.26406013  7.80913290  7.50314293
   1.18264798  6.37739826  7.57692245
   1.17846968  7.80852172  7.57914361
   6.25237768  6.36445036  7.58039965
   6.25046029  7.80130314  7.57630423
   8.70096171  6.37119349  7.49588101
   8.70016993  7.79399920  7.49559743
  -4.93770092  8.51721744  7.47419270
  -4.94289243  9.94013862  7.46859221
  -2.48380556  8.51726217  7.48099598
  -2.47238527  9.93776980  7.47419852
  -0.03027158  8.52390082  7.51985903
  -0.00455615  9.93852220  7.49713238
   2.41619483  8.47017473  7.66273870
   2.45440873  9.87047529  7.56316456
   5.00028165  8.44909409  7.63428611
   4.94504382  9.86005236  7.54911045
   7.47132452  8.50754181  7.52044260
   7.44322892  9.92368054  7.49555459
  -6.17951832 10.64829397  7.47088441
  -6.18398071 12.06641305  7.46308515
  -3.70720256 10.65204368  7.46548662
  -3.71127605 12.07203485  7.46366319
  -1.23493737 10.64953260  7.47687727
  -1.24377085 12.06686477  7.46750325
   1.22912148 10.61364421  7.49948608
   1.23623045 12.02044409  7.47551750
   3.70061498 10.58833580  7.53827697
   3.71547964 12.00212956  7.48947298
   6.18833137 10.60287730  7.50021059
   6.19115501 12.02487102  7.47663668
   3.73332081  7.08839970  8.31591040
 


--------------------------------------------------------------------------------------------------------


 k-point  1 :   0.0000 0.0000 0.0000  plane waves:   59587
 k-point  2 :   0.5000 0.0000 0.0000  plane waves:   59562
 k-point  3 :  -0.0000 0.5000 0.0000  plane waves:   59630
 k-point  4 :   0.5000 0.5000 0.0000  plane waves:   59566

 maximum and minimum number of plane-waves per node :      5002     4934

 maximum number of plane-waves:     59630
 maximum index in each direction: 
   IXMAX=   25   IYMAX=   25   IZMAX=   25
   IXMIN=  -25   IYMIN=  -25   IZMIN=  -25


 real space projection operators:
  total allocation   :      18888.48 KBytes
  max/ min on nodes  :       1623.05       1538.55


 parallel 3D FFT for wavefunctions:
    minimum data exchange during FFTs selected (reduces bandwidth)
 parallel 3D FFT for charge:
    minimum data exchange during FFTs selected (reduces bandwidth)


 total amount of memory used by VASP MPI-rank0   111528. kBytes
=======================================================================

   base      :      30000. kBytes
   nonlr-proj:       9890. kBytes
   fftplans  :      10852. kBytes
   grid      :      30996. kBytes
   one-center:        186. kBytes
   wavefun   :      29604. kBytes
 
     INWAV:  cpu time    0.0000: real time    0.0001
 Broyden mixing: mesh for mixing (old mesh)
   NGX = 51   NGY = 51   NGZ = 51
  (NGX  =216   NGY  =216   NGZ  =216)
  gives a total of 132651 points

 initial charge density was supplied:
 charge density of overlapping atoms calculated
 number of electron     293.0000000 magnetization       1.0000000
 keeping initial charge density in first step


--------------------------------------------------------------------------------------------------------


 Maximum index for non-local projection operator          545
 Maximum index for augmentation-charges          326 (set IRDMAX)


--------------------------------------------------------------------------------------------------------


 First call to EWALD:  gamma=   0.125
 Maximum number of real-space cells 3x 3x 3
 Maximum number of reciprocal cells 3x 3x 3

    FEWALD:  cpu time    0.0039: real time    0.0042


--------------------------------------- Iteration      1(   1)  ---------------------------------------


    POTLOK:  cpu time    0.3913: real time    0.5000
    SETDIJ:  cpu time    0.0129: real time    0.0132
     EDDAV:  cpu time   11.5997: real time   11.7349
       DOS:  cpu time    0.0013: real time    0.0013
    --------------------------------------------
      LOOP:  cpu time   12.0052: real time   12.2494

 eigenvalue-minimisations  :  3384
 total energy-change (2. order) : 0.2448695E+04  (-0.1081575E+05)
 number of electron     293.0000000 magnetization       1.0000000
 augmentation part      293.0000000 magnetization       1.0000000

 Free energy of the ion-electron system (eV)
  ---------------------------------------------------
  alpha Z        PSCENC =       157.20791594
  Ewald energy   TEWEN  =     30443.55037424
  -Hartree energ DENC   =    -39606.12883681
  -exchange      EXHF   =         0.00000000
  -V(xc)+E(xc)   XCENC  =       982.88708783
  PAW double counting   =      9000.30529238    -9089.18527416
  entropy T*S    EENTRO =        -0.11020436
  eigenvalues    EBANDS =     -1505.10877365
  atomic energy  EATOM  =     12065.27733323
  Solvation  Ediel_sol  =         0.00000000
  ---------------------------------------------------
  free energy    TOTEN  =      2448.69491463 eV

  energy without entropy =     2448.80511900  energy(sigma->0) =     2448.75001682


--------------------------------------------------------------------------------------------------------




--------------------------------------- Iteration      1(   2)  ---------------------------------------


     EDDAV:  cpu time   14.9912: real time   15.1678
       DOS:  cpu time    0.0009: real time    0.0009
    --------------------------------------------
      LOOP:  cpu time   14.9921: real time   15.1687

 eigenvalue-minimisations  :  4232
 total energy-change (2. order) :-0.2682731E+04  (-0.2561800E+04)
 number of electron     293.0000000 magnetization       1.0000000
 augmentation part      293.0000000 magnetization       1.0000000

 Free energy of the ion-electron system (eV)
  ---------------------------------------------------
  alpha Z        PSCENC =       157.20791594
  Ewald energy   TEWEN  =     30443.55037424
  -Hartree energ DENC   =    -39606.12883681
  -exchange      EXHF   =         0.00000000
  -V(xc)+E(xc)   XCENC  =       982.88708783
  PAW double counting   =      9000.30529238    -9089.18527416
  entropy T*S    EENTRO =        -0.02224943
  eigenvalues    EBANDS =     -4187.92758846
  atomic energy  EATOM  =     12065.27733323
  Solvation  Ediel_sol  =         0.00000000
  ---------------------------------------------------
  free energy    TOTEN  =      -234.03594524 eV

  energy without entropy =     -234.01369581  energy(sigma->0) =     -234.02482052


--------------------------------------------------------------------------------------------------------




--------------------------------------- Iteration      1(   3)  ---------------------------------------


     EDDAV:  cpu time   12.7117: real time   12.8438
       DOS:  cpu time    0.0010: real time    0.0010
    --------------------------------------------
      LOOP:  cpu time   12.7126: real time   12.8448

 eigenvalue-minimisations  :  3560
 total energy-change (2. order) :-0.4535077E+03  (-0.4507004E+03)
 number of electron     293.0000000 magnetization       1.0000000
 augmentation part      293.0000000 magnetization       1.0000000

 Free energy of the ion-electron system (eV)
  ---------------------------------------------------
  alpha Z        PSCENC =       157.20791594
  Ewald energy   TEWEN  =     30443.55037424
  -Hartree energ DENC   =    -39606.12883681
  -exchange      EXHF   =         0.00000000
  -V(xc)+E(xc)   XCENC  =       982.88708783
  PAW double counting   =      9000.30529238    -9089.18527416
  entropy T*S    EENTRO =        -0.03829205
  eigenvalues    EBANDS =     -4641.41924204
  atomic energy  EATOM  =     12065.27733323
  Solvation  Ediel_sol  =         0.00000000
  ---------------------------------------------------
  free energy    TOTEN  =      -687.54364145 eV

  energy without entropy =     -687.50534939  energy(sigma->0) =     -687.52449542


--------------------------------------------------------------------------------------------------------




--------------------------------------- Iteration      1(   4)  ---------------------------------------


     EDDAV:  cpu time   13.2192: real time   13.4216
       DOS:  cpu time    0.0010: real time    0.0010
    --------------------------------------------
      LOOP:  cpu time   13.2202: real time   13.4226

 eigenvalue-minimisations  :  3608
 total energy-change (2. order) :-0.1647040E+02  (-0.1633478E+02)
 number of electron     293.0000000 magnetization       1.0000000
 augmentation part      293.0000000 magnetization       1.0000000

 Free energy of the ion-electron system (eV)
  ---------------------------------------------------
  alpha Z        PSCENC =       157.20791594
  Ewald energy   TEWEN  =     30443.55037424
  -Hartree energ DENC   =    -39606.12883681
  -exchange      EXHF   =         0.00000000
  -V(xc)+E(xc)   XCENC  =       982.88708783
  PAW double counting   =      9000.30529238    -9089.18527416
  entropy T*S    EENTRO =        -0.03786787
  eigenvalues    EBANDS =     -4657.89006967
  atomic energy  EATOM  =     12065.27733323
  Solvation  Ediel_sol  =         0.00000000
  ---------------------------------------------------
  free energy    TOTEN  =      -704.01404490 eV

  energy without entropy =     -703.97617703  energy(sigma->0) =     -703.99511096


--------------------------------------------------------------------------------------------------------




--------------------------------------- Iteration      1(   5)  ---------------------------------------


     EDDAV:  cpu time   13.9557: real time   14.0947
       DOS:  cpu time    0.0011: real time    0.0011
    CHARGE:  cpu time    0.4948: real time    0.5039
    MIXING:  cpu time    0.0079: real time    0.0094
    --------------------------------------------
      LOOP:  cpu time   14.4595: real time   14.6091

 eigenvalue-minimisations  :  4064
 total energy-change (2. order) :-0.5247392E+00  (-0.5230415E+00)
 number of electron     292.9999986 magnetization       0.7753737
 augmentation part       11.6607180 magnetization       0.7580467

 Broyden mixing:
  rms(total) = 0.46879E+01    rms(broyden)= 0.46874E+01
  rms(prec ) = 0.54453E+01
  weight for this iteration     100.00

 Free energy of the ion-electron system (eV)
  ---------------------------------------------------
  alpha Z        PSCENC =       157.20791594
  Ewald energy   TEWEN  =     30443.55037424
  -Hartree energ DENC   =    -39606.12883681
  -exchange      EXHF   =         0.00000000
  -V(xc)+E(xc)   XCENC  =       982.88708783
  PAW double counting   =      9000.30529238    -9089.18527416
  entropy T*S    EENTRO =        -0.03795518
  eigenvalues    EBANDS =     -4658.41472155
  atomic energy  EATOM  =     12065.27733323
  Solvation  Ediel_sol  =         0.00000000
  ---------------------------------------------------
  free energy    TOTEN  =      -704.53878408 eV

  energy without entropy =     -704.50082890  energy(sigma->0) =     -704.51980649


--------------------------------------------------------------------------------------------------------




--------------------------------------- Iteration      1(   6)  ---------------------------------------


    POTLOK:  cpu time    0.4048: real time    0.4139
    SETDIJ:  cpu time    0.0114: real time    0.0130
    EDDIAG:  cpu time    2.0765: real time    2.1099
  RMM-DIIS:  cpu time   11.8502: real time   11.9493
    ORTHCH:  cpu time    0.2434: real time    0.2443
       DOS:  cpu time    0.0011: real time    0.0011
    CHARGE:  cpu time    0.4654: real time    0.4794
    MIXING:  cpu time    0.0080: real time    0.0089
    --------------------------------------------
      LOOP:  cpu time   15.0608: real time   15.2198

 eigenvalue-minimisations  :  4113
 total energy-change (2. order) :-0.2717084E+02  (-0.5275246E+02)
 number of electron     292.9999987 magnetization       0.7176124
 augmentation part       17.3152178 magnetization       1.0018353

 Broyden mixing:
  rms(total) = 0.83912E+01    rms(broyden)= 0.83909E+01
  rms(prec ) = 0.92644E+01
  weight for this iteration     100.00

 eigenvalues of (default mixing * dielectric matrix)
  average eigenvalue GAMMA=   0.2159
  0.2159

 Free energy of the ion-electron system (eV)
  ---------------------------------------------------
  alpha Z        PSCENC =       157.20791594
  Ewald energy   TEWEN  =     30443.55037424
  -Hartree energ DENC   =    -39899.16241761
  -exchange      EXHF   =         0.00000000
  -V(xc)+E(xc)   XCENC  =       996.70179042
  PAW double counting   =     15330.10630145   -15418.74314412
  entropy T*S    EENTRO =        -0.05555613
  eigenvalues    EBANDS =     -4406.59222604
  atomic energy  EATOM  =     12065.27733323
  Solvation  Ediel_sol  =         0.00000000
  ---------------------------------------------------
  free energy    TOTEN  =      -731.70962863 eV

  energy without entropy =     -731.65407250  energy(sigma->0) =     -731.68185056


--------------------------------------------------------------------------------------------------------




--------------------------------------- Iteration      1(   7)  ---------------------------------------


    POTLOK:  cpu time    0.4336: real time    0.4384
    SETDIJ:  cpu time    0.0162: real time    0.0164
    EDDIAG:  cpu time    2.0459: real time    2.0632
  RMM-DIIS:  cpu time    8.7434: real time    8.8094
    ORTHCH:  cpu time    0.3919: real time    0.4084
       DOS:  cpu time    0.0009: real time    0.0009
    CHARGE:  cpu time    0.4537: real time    0.4619
    MIXING:  cpu time    0.0086: real time    0.0086
    --------------------------------------------
      LOOP:  cpu time   12.0941: real time   12.2071

 eigenvalue-minimisations  :  3053
 total energy-change (2. order) : 0.6913387E+02  (-0.5779497E+01)
 number of electron     292.9999987 magnetization       0.6166582
 augmentation part       15.2566065 magnetization       0.6312558

 Broyden mixing:
  rms(total) = 0.32197E+01    rms(broyden)= 0.32193E+01
  rms(prec ) = 0.38583E+01
  weight for this iteration     100.00

 eigenvalues of (default mixing * dielectric matrix)
  average eigenvalue GAMMA=   0.4656
  0.4976  0.4336

 Free energy of the ion-electron system (eV)
  ---------------------------------------------------
  alpha Z        PSCENC =       157.20791594
  Ewald energy   TEWEN  =     30443.55037424
  -Hartree energ DENC   =    -40021.21733819
  -exchange      EXHF   =         0.00000000
  -V(xc)+E(xc)   XCENC  =      1001.30284400
  PAW double counting   =     16957.23887951   -17052.65907340
  entropy T*S    EENTRO =        -0.00012193
  eigenvalues    EBANDS =     -4213.27657002
  atomic energy  EATOM  =     12065.27733323
  Solvation  Ediel_sol  =         0.00000000
  ---------------------------------------------------
  free energy    TOTEN  =      -662.57575663 eV

  energy without entropy =     -662.57563469  energy(sigma->0) =     -662.57569566


--------------------------------------------------------------------------------------------------------




--------------------------------------- Iteration      1(   8)  ---------------------------------------


    POTLOK:  cpu time    0.4303: real time    0.4350
    SETDIJ:  cpu time    0.0117: real time    0.0118
    EDDIAG:  cpu time    2.0654: real time    2.0798
  RMM-DIIS:  cpu time    8.9702: real time    9.0345
    ORTHCH:  cpu time    0.2375: real time    0.2384
       DOS:  cpu time    0.0010: real time    0.0010
    CHARGE:  cpu time    0.4842: real time    0.4925
    MIXING:  cpu time    0.0084: real time    0.0086
    --------------------------------------------
      LOOP:  cpu time   12.2087: real time   12.3015

 eigenvalue-minimisations  :  3141
 total energy-change (2. order) : 0.3198889E-01  (-0.2244248E+01)
 number of electron     292.9999987 magnetization       0.3466888
 augmentation part       11.2213857 magnetization       0.2916968

 Broyden mixing:
  rms(total) = 0.28538E+01    rms(broyden)= 0.28530E+01
  rms(prec ) = 0.34905E+01
  weight for this iteration     100.00

 eigenvalues of (default mixing * dielectric matrix)
  average eigenvalue GAMMA=   0.8537
  1.8826  0.3392  0.3392

 Free energy of the ion-electron system (eV)
  ---------------------------------------------------
  alpha Z        PSCENC =       157.20791594
  Ewald energy   TEWEN  =     30443.55037424
  -Hartree energ DENC   =    -40202.79962446
  -exchange      EXHF   =         0.00000000
  -V(xc)+E(xc)   XCENC  =      1008.03905331
  PAW double counting   =     19959.84271986   -20059.29302980
  entropy T*S    EENTRO =        -0.03904592
  eigenvalues    EBANDS =     -4034.32946413
  atomic energy  EATOM  =     12065.27733323
  Solvation  Ediel_sol  =         0.00000000
  ---------------------------------------------------
  free energy    TOTEN  =      -662.54376774 eV

  energy without entropy =     -662.50472182  energy(sigma->0) =     -662.52424478


--------------------------------------------------------------------------------------------------------




--------------------------------------- Iteration      1(   9)  ---------------------------------------


    POTLOK:  cpu time    0.4094: real time    0.4125
    SETDIJ:  cpu time    0.0120: real time    0.0121
    EDDIAG:  cpu time    2.0532: real time    2.0742
  RMM-DIIS:  cpu time    8.3476: real time    8.4071
    ORTHCH:  cpu time    0.2505: real time    0.2711
       DOS:  cpu time    0.0010: real time    0.0010
    CHARGE:  cpu time    0.4906: real time    0.4987
    MIXING:  cpu time    0.0073: real time    0.0074
    --------------------------------------------
      LOOP:  cpu time   11.5717: real time   11.6840

 eigenvalue-minimisations  :  2967
 total energy-change (2. order) : 0.1516416E+02  (-0.2065617E+01)
 number of electron     292.9999988 magnetization       0.2610790
 augmentation part       12.1788073 magnetization       0.2701339

 Broyden mixing:
  rms(total) = 0.11663E+01    rms(broyden)= 0.11658E+01
  rms(prec ) = 0.13157E+01
  weight for this iteration     100.00

 eigenvalues of (default mixing * dielectric matrix)
  average eigenvalue GAMMA=   0.9122
  2.2273  0.7192  0.3511  0.3511

 Free energy of the ion-electron system (eV)
  ---------------------------------------------------
  alpha Z        PSCENC =       157.20791594
  Ewald energy   TEWEN  =     30443.55037424
  -Hartree energ DENC   =    -40512.05743700
  -exchange      EXHF   =         0.00000000
  -V(xc)+E(xc)   XCENC  =      1021.00652735
  PAW double counting   =     28512.27675486   -28614.47318984
  entropy T*S    EENTRO =        -0.00848549
  eigenvalues    EBANDS =     -3720.15939780
  atomic energy  EATOM  =     12065.27733323
  Solvation  Ediel_sol  =         0.00000000
  ---------------------------------------------------
  free energy    TOTEN  =      -647.37960451 eV

  energy without entropy =     -647.37111903  energy(sigma->0) =     -647.37536177


--------------------------------------------------------------------------------------------------------




--------------------------------------- Iteration      1(  10)  ---------------------------------------


    POTLOK:  cpu time    0.4012: real time    0.4050
    SETDIJ:  cpu time    0.0121: real time    0.0122
    EDDIAG:  cpu time    2.0468: real time    2.0625
  RMM-DIIS:  cpu time    8.4919: real time    8.5555
    ORTHCH:  cpu time    0.3243: real time    0.3258
       DOS:  cpu time    0.0010: real time    0.0010
    CHARGE:  cpu time    0.4854: real time    0.4925
    MIXING:  cpu time    0.0090: real time    0.0090
    --------------------------------------------
      LOOP:  cpu time   11.7718: real time   11.8637

 eigenvalue-minimisations  :  2987
 total energy-change (2. order) :-0.5080996E+00  (-0.3121866E+00)
 number of electron     292.9999988 magnetization       0.2057710
 augmentation part       13.7668673 magnetization       0.2381943

 Broyden mixing:
  rms(total) = 0.14514E+01    rms(broyden)= 0.14495E+01
  rms(prec ) = 0.18011E+01
  weight for this iteration     100.00

 eigenvalues of (default mixing * dielectric matrix)
  average eigenvalue GAMMA=   0.9237
  2.3511  1.0947  0.3474  0.3474  0.4779

 Free energy of the ion-electron system (eV)
  ---------------------------------------------------
  alpha Z        PSCENC =       157.20791594
  Ewald energy   TEWEN  =     30443.55037424
  -Hartree energ DENC   =    -40554.19009223
  -exchange      EXHF   =         0.00000000
  -V(xc)+E(xc)   XCENC  =      1021.88204837
  PAW double counting   =     30029.83482368   -30130.87089798
  entropy T*S    EENTRO =        -0.00069787
  eigenvalues    EBANDS =     -3680.57851151
  atomic energy  EATOM  =     12065.27733323
  Solvation  Ediel_sol  =         0.00000000
  ---------------------------------------------------
  free energy    TOTEN  =      -647.88770413 eV

  energy without entropy =     -647.88700626  energy(sigma->0) =     -647.88735519


--------------------------------------------------------------------------------------------------------




--------------------------------------- Iteration      1(  11)  ---------------------------------------


    POTLOK:  cpu time    0.4058: real time    0.4104
    SETDIJ:  cpu time    0.0123: real time    0.0126
    EDDIAG:  cpu time    2.0810: real time    2.0993
  RMM-DIIS:  cpu time    8.7072: real time    8.7764
    ORTHCH:  cpu time    0.1414: real time    0.1433
       DOS:  cpu time    0.0010: real time    0.0010
    CHARGE:  cpu time    0.4540: real time    0.4601
    MIXING:  cpu time    0.0086: real time    0.0086
    --------------------------------------------
      LOOP:  cpu time   11.8114: real time   11.9117

 eigenvalue-minimisations  :  3095
 total energy-change (2. order) : 0.1141892E+01  (-0.3978070E-01)
 number of electron     292.9999988 magnetization       0.1586730
 augmentation part       12.6018160 magnetization       0.1065023

 Broyden mixing:
  rms(total) = 0.73657E+00    rms(broyden)= 0.73427E+00
  rms(prec ) = 0.77017E+00
  weight for this iteration     100.00

 eigenvalues of (default mixing * dielectric matrix)
  average eigenvalue GAMMA=   0.9680
  2.0699  2.0699  0.3461  0.3461  0.5966  0.3796

 Free energy of the ion-electron system (eV)
  ---------------------------------------------------
  alpha Z        PSCENC =       157.20791594
  Ewald energy   TEWEN  =     30443.55037424
  -Hartree energ DENC   =    -40586.71407874
  -exchange      EXHF   =         0.00000000
  -V(xc)+E(xc)   XCENC  =      1022.27927172
  PAW double counting   =     30693.25121969   -30793.59497443
  entropy T*S    EENTRO =        -0.04687981
  eigenvalues    EBANDS =     -3647.95599442
  atomic energy  EATOM  =     12065.27733323
  Solvation  Ediel_sol  =         0.00000000
  ---------------------------------------------------
  free energy    TOTEN  =      -646.74581259 eV

  energy without entropy =     -646.69893277  energy(sigma->0) =     -646.72237268


--------------------------------------------------------------------------------------------------------




--------------------------------------- Iteration      1(  12)  ---------------------------------------


    POTLOK:  cpu time    0.4402: real time    0.4446
    SETDIJ:  cpu time    0.0117: real time    0.0119
    EDDIAG:  cpu time    2.0434: real time    2.0583
  RMM-DIIS:  cpu time    8.3246: real time    8.3827
    ORTHCH:  cpu time    0.2462: real time    0.2546
       DOS:  cpu time    0.0010: real time    0.0010
    CHARGE:  cpu time    0.4518: real time    0.4590
    MIXING:  cpu time    0.0088: real time    0.0089
    --------------------------------------------
      LOOP:  cpu time   11.5277: real time   11.6208

 eigenvalue-minimisations  :  2944
 total energy-change (2. order) : 0.6594327E-02  (-0.1714904E-01)
 number of electron     292.9999988 magnetization       0.1724259
 augmentation part       12.9727703 magnetization      -0.2440879

 Broyden mixing:
  rms(total) = 0.71757E+00    rms(broyden)= 0.71632E+00
  rms(prec ) = 0.75382E+00
  weight for this iteration     100.00

 eigenvalues of (default mixing * dielectric matrix)
  average eigenvalue GAMMA=   0.8423
  2.0899  2.0899  0.3467  0.3467  0.5399  0.3813  0.1019

 Free energy of the ion-electron system (eV)
  ---------------------------------------------------
  alpha Z        PSCENC =       157.20791594
  Ewald energy   TEWEN  =     30443.55037424
  -Hartree energ DENC   =    -40611.01796897
  -exchange      EXHF   =         0.00000000
  -V(xc)+E(xc)   XCENC  =      1021.83616070
  PAW double counting   =     31106.02634138   -31204.88480034
  entropy T*S    EENTRO =        -0.03737216
  eigenvalues    EBANDS =     -3624.69720229
  atomic energy  EATOM  =     12065.27733323
  Solvation  Ediel_sol  =         0.00000000
  ---------------------------------------------------
  free energy    TOTEN  =      -646.73921826 eV

  energy without entropy =     -646.70184610  energy(sigma->0) =     -646.72053218


--------------------------------------------------------------------------------------------------------




--------------------------------------- Iteration      1(  13)  ---------------------------------------


    POTLOK:  cpu time    0.4346: real time    0.4405
    SETDIJ:  cpu time    0.0119: real time    0.0120
    EDDIAG:  cpu time    2.0477: real time    2.0627
  RMM-DIIS:  cpu time    8.5023: real time    8.5832
    ORTHCH:  cpu time    0.2628: real time    0.2635
       DOS:  cpu time    0.0011: real time    0.0011
    CHARGE:  cpu time    0.4729: real time    0.4804
    MIXING:  cpu time    0.0096: real time    0.0097
    --------------------------------------------
      LOOP:  cpu time   11.7429: real time   11.8529

 eigenvalue-minimisations  :  2991
 total energy-change (2. order) :-0.5690900E-01  (-0.2768587E-02)
 number of electron     292.9999988 magnetization       0.0507729
 augmentation part       12.9725282 magnetization      -0.4214176

 Broyden mixing:
  rms(total) = 0.72886E+00    rms(broyden)= 0.72875E+00
  rms(prec ) = 0.76343E+00
  weight for this iteration     100.00

 eigenvalues of (default mixing * dielectric matrix)
  average eigenvalue GAMMA=   0.8448
  2.1466  2.1466  0.3932  0.6211  0.3472  0.3472  0.4514  0.3052

 Free energy of the ion-electron system (eV)
  ---------------------------------------------------
  alpha Z        PSCENC =       157.20791594
  Ewald energy   TEWEN  =     30443.55037424
  -Hartree energ DENC   =    -40612.22713528
  -exchange      EXHF   =         0.00000000
  -V(xc)+E(xc)   XCENC  =      1021.85785465
  PAW double counting   =     31107.27091988   -31206.06934269
  entropy T*S    EENTRO =        -0.02830535
  eigenvalues    EBANDS =     -3623.63574187
  atomic energy  EATOM  =     12065.27733323
  Solvation  Ediel_sol  =         0.00000000
  ---------------------------------------------------
  free energy    TOTEN  =      -646.79612726 eV

  energy without entropy =     -646.76782191  energy(sigma->0) =     -646.78197458


--------------------------------------------------------------------------------------------------------




--------------------------------------- Iteration      1(  14)  ---------------------------------------


    POTLOK:  cpu time    0.3725: real time    0.3761
    SETDIJ:  cpu time    0.0119: real time    0.0120
    EDDIAG:  cpu time    2.0443: real time    2.0599
  RMM-DIIS:  cpu time    8.4508: real time    8.5129
    ORTHCH:  cpu time    0.2580: real time    0.2603
       DOS:  cpu time    0.0010: real time    0.0010
    CHARGE:  cpu time    0.4830: real time    0.4906
    MIXING:  cpu time    0.0092: real time    0.0094
    --------------------------------------------
      LOOP:  cpu time   11.6307: real time   11.7222

 eigenvalue-minimisations  :  2966
 total energy-change (2. order) : 0.2661522E+00  (-0.3592820E-02)
 number of electron     292.9999988 magnetization       0.0751582
 augmentation part       12.9562285 magnetization      -0.2707935

 Broyden mixing:
  rms(total) = 0.70477E+00    rms(broyden)= 0.70470E+00
  rms(prec ) = 0.73453E+00
  weight for this iteration     100.00

 eigenvalues of (default mixing * dielectric matrix)
  average eigenvalue GAMMA=   0.8235
  2.1915  2.1915  0.4561  0.4561  0.6488  0.3465  0.3465  0.4538  0.3209

 Free energy of the ion-electron system (eV)
  ---------------------------------------------------
  alpha Z        PSCENC =       157.20791594
  Ewald energy   TEWEN  =     30443.55037424
  -Hartree energ DENC   =    -40614.15216122
  -exchange      EXHF   =         0.00000000
  -V(xc)+E(xc)   XCENC  =      1021.83839637
  PAW double counting   =     31215.36775635   -31313.98294362
  entropy T*S    EENTRO =        -0.04876259
  eigenvalues    EBANDS =     -3621.58788378
  atomic energy  EATOM  =     12065.27733323
  Solvation  Ediel_sol  =         0.00000000
  ---------------------------------------------------
  free energy    TOTEN  =      -646.52997508 eV

  energy without entropy =     -646.48121249  energy(sigma->0) =     -646.50559379


--------------------------------------------------------------------------------------------------------




--------------------------------------- Iteration      1(  15)  ---------------------------------------


    POTLOK:  cpu time    0.4139: real time    0.4174
    SETDIJ:  cpu time    0.0119: real time    0.0120
    EDDIAG:  cpu time    2.0740: real time    2.0916
  RMM-DIIS:  cpu time    8.7214: real time    8.7962
    ORTHCH:  cpu time    0.2458: real time    0.2464
       DOS:  cpu time    0.0011: real time    0.0011
    CHARGE:  cpu time    0.4850: real time    0.4933
    MIXING:  cpu time    0.0099: real time    0.0099
    --------------------------------------------
      LOOP:  cpu time   11.9630: real time   12.0680

 eigenvalue-minimisations  :  3084
 total energy-change (2. order) :-0.4895037E-01  (-0.3335275E-03)
 number of electron     292.9999988 magnetization       0.2227645
 augmentation part       12.9477615 magnetization      -0.1198957

 Broyden mixing:
  rms(total) = 0.69406E+00    rms(broyden)= 0.69406E+00
  rms(prec ) = 0.72213E+00
  weight for this iteration     100.00

 eigenvalues of (default mixing * dielectric matrix)
  average eigenvalue GAMMA=   0.8359
  2.1988  2.1988  0.7544  0.7544  0.6446  0.3466  0.3466  0.3965  0.3593  0.3593

 Free energy of the ion-electron system (eV)
  ---------------------------------------------------
  alpha Z        PSCENC =       157.20791594
  Ewald energy   TEWEN  =     30443.55037424
  -Hartree energ DENC   =    -40614.07550033
  -exchange      EXHF   =         0.00000000
  -V(xc)+E(xc)   XCENC  =      1021.81046318
  PAW double counting   =     31215.45319182   -31314.07039982
  entropy T*S    EENTRO =        -0.04942870
  eigenvalues    EBANDS =     -3621.68287500
  atomic energy  EATOM  =     12065.27733323
  Solvation  Ediel_sol  =         0.00000000
  ---------------------------------------------------
  free energy    TOTEN  =      -646.57892545 eV

  energy without entropy =     -646.52949674  energy(sigma->0) =     -646.55421110


--------------------------------------------------------------------------------------------------------




--------------------------------------- Iteration      1(  16)  ---------------------------------------


    POTLOK:  cpu time    0.3775: real time    0.3828
    SETDIJ:  cpu time    0.0111: real time    0.0126
    EDDIAG:  cpu time    2.0263: real time    2.0469
  RMM-DIIS:  cpu time    8.4337: real time    8.4932
    ORTHCH:  cpu time    0.1998: real time    0.2009
       DOS:  cpu time    0.0010: real time    0.0010
    CHARGE:  cpu time    0.4884: real time    0.4958
    MIXING:  cpu time    0.0099: real time    0.0100
    --------------------------------------------
      LOOP:  cpu time   11.5478: real time   11.6433

 eigenvalue-minimisations  :  2983
 total energy-change (2. order) :-0.1397920E+00  (-0.2016419E-02)
 number of electron     292.9999988 magnetization      -0.1274889
 augmentation part       12.9792779 magnetization      -0.5899484

 Broyden mixing:
  rms(total) = 0.77193E+00    rms(broyden)= 0.77185E+00
  rms(prec ) = 0.80479E+00
  weight for this iteration     100.00

 eigenvalues of (default mixing * dielectric matrix)
  average eigenvalue GAMMA=   0.8357
  2.1992  2.1992  0.8421  0.7091  0.7091  0.6616  0.3462  0.3462  0.4213  0.4213
  0.3378

 Free energy of the ion-electron system (eV)
  ---------------------------------------------------
  alpha Z        PSCENC =       157.20791594
  Ewald energy   TEWEN  =     30443.55037424
  -Hartree energ DENC   =    -40614.95891665
  -exchange      EXHF   =         0.00000000
  -V(xc)+E(xc)   XCENC  =      1021.85227962
  PAW double counting   =     31197.48492220   -31296.14507641
  entropy T*S    EENTRO =        -0.02681442
  eigenvalues    EBANDS =     -3620.96073521
  atomic energy  EATOM  =     12065.27733323
  Solvation  Ediel_sol  =         0.00000000
  ---------------------------------------------------
  free energy    TOTEN  =      -646.71871746 eV

  energy without entropy =     -646.69190303  energy(sigma->0) =     -646.70531024


--------------------------------------------------------------------------------------------------------




--------------------------------------- Iteration      1(  17)  ---------------------------------------


    POTLOK:  cpu time    0.4033: real time    0.4069
    SETDIJ:  cpu time    0.0119: real time    0.0120
    EDDIAG:  cpu time    1.9971: real time    2.0126
  RMM-DIIS:  cpu time    8.3846: real time    8.4492
    ORTHCH:  cpu time    0.2163: real time    0.2171
       DOS:  cpu time    0.0025: real time    0.0030
    CHARGE:  cpu time    0.4631: real time    0.4707
    MIXING:  cpu time    0.0098: real time    0.0098
    --------------------------------------------
      LOOP:  cpu time   11.4887: real time   11.5814

 eigenvalue-minimisations  :  2956
 total energy-change (2. order) : 0.2333615E+00  (-0.1090575E-01)
 number of electron     292.9999988 magnetization      -0.6078607
 augmentation part       12.8579475 magnetization      -0.9168948

 Broyden mixing:
  rms(total) = 0.55941E+00    rms(broyden)= 0.55895E+00
  rms(prec ) = 0.57407E+00
  weight for this iteration     100.00

 eigenvalues of (default mixing * dielectric matrix)
  average eigenvalue GAMMA=   0.9860
  1.7492  2.1582  2.1582  1.1638  1.1638  0.6931  0.6931  0.3460  0.3460  0.5395
  0.4912  0.3299

 Free energy of the ion-electron system (eV)
  ---------------------------------------------------
  alpha Z        PSCENC =       157.20791594
  Ewald energy   TEWEN  =     30443.55037424
  -Hartree energ DENC   =    -40618.07003142
  -exchange      EXHF   =         0.00000000
  -V(xc)+E(xc)   XCENC  =      1021.94155115
  PAW double counting   =     31209.39047679   -31307.98977072
  entropy T*S    EENTRO =        -0.05136526
  eigenvalues    EBANDS =     -3617.74183989
  atomic energy  EATOM  =     12065.27733323
  Solvation  Ediel_sol  =         0.00000000
  ---------------------------------------------------
  free energy    TOTEN  =      -646.48535594 eV

  energy without entropy =     -646.43399068  energy(sigma->0) =     -646.45967331


--------------------------------------------------------------------------------------------------------




--------------------------------------- Iteration      1(  18)  ---------------------------------------


    POTLOK:  cpu time    0.3998: real time    0.4027
    SETDIJ:  cpu time    0.0116: real time    0.0117
    EDDIAG:  cpu time    2.0402: real time    2.0560
  RMM-DIIS:  cpu time    8.3904: real time    8.4543
    ORTHCH:  cpu time    0.2272: real time    0.2284
       DOS:  cpu time    0.0010: real time    0.0010
    CHARGE:  cpu time    0.4522: real time    0.4595
    MIXING:  cpu time    0.0101: real time    0.0101
    --------------------------------------------
      LOOP:  cpu time   11.5325: real time   11.6237

 eigenvalue-minimisations  :  2953
 total energy-change (2. order) : 0.3162940E+00  (-0.6761122E-01)
 number of electron     292.9999988 magnetization      -0.5636990
 augmentation part       12.9934335 magnetization      -0.1838502

 Broyden mixing:
  rms(total) = 0.72003E+00    rms(broyden)= 0.71650E+00
  rms(prec ) = 0.75506E+00
  weight for this iteration     100.00

 eigenvalues of (default mixing * dielectric matrix)
  average eigenvalue GAMMA=   0.9139
  1.7298  2.1950  2.1950  1.0023  1.0023  0.6768  0.3460  0.3460  0.5416  0.5416
  0.5750  0.3301  0.3988

 Free energy of the ion-electron system (eV)
  ---------------------------------------------------
  alpha Z        PSCENC =       157.20791594
  Ewald energy   TEWEN  =     30443.55037424
  -Hartree energ DENC   =    -40632.36217709
  -exchange      EXHF   =         0.00000000
  -V(xc)+E(xc)   XCENC  =      1022.70902549
  PAW double counting   =     31177.18170339   -31275.80203229
  entropy T*S    EENTRO =        -0.04583037
  eigenvalues    EBANDS =     -3603.88537448
  atomic energy  EATOM  =     12065.27733323
  Solvation  Ediel_sol  =         0.00000000
  ---------------------------------------------------
  free energy    TOTEN  =      -646.16906194 eV

  energy without entropy =     -646.12323156  energy(sigma->0) =     -646.14614675


--------------------------------------------------------------------------------------------------------




--------------------------------------- Iteration      1(  19)  ---------------------------------------


    POTLOK:  cpu time    0.4030: real time    0.4073
    SETDIJ:  cpu time    0.0450: real time    0.0455
    EDDIAG:  cpu time    1.9842: real time    1.9984
  RMM-DIIS:  cpu time    8.5104: real time    8.5822
    ORTHCH:  cpu time    0.2775: real time    0.2783
       DOS:  cpu time    0.0010: real time    0.0010
    CHARGE:  cpu time    0.4465: real time    0.4595
    MIXING:  cpu time    0.0102: real time    0.0102
    --------------------------------------------
      LOOP:  cpu time   11.6778: real time   11.7823

 eigenvalue-minimisations  :  3000
 total energy-change (2. order) :-0.6266646E+00  (-0.2778972E-01)
 number of electron     292.9999988 magnetization      -0.2486004
 augmentation part       12.9171556 magnetization       0.1326005

 Broyden mixing:
  rms(total) = 0.71248E+00    rms(broyden)= 0.71206E+00
  rms(prec ) = 0.73173E+00
  weight for this iteration     100.00

 eigenvalues of (default mixing * dielectric matrix)
  average eigenvalue GAMMA=   0.8647
  1.5903  2.1963  2.1963  0.8511  0.8511  0.5261  0.5261  0.6737  0.6737  0.3460
  0.3460  0.4990  0.4990  0.3306

 Free energy of the ion-electron system (eV)
  ---------------------------------------------------
  alpha Z        PSCENC =       157.20791594
  Ewald energy   TEWEN  =     30443.55037424
  -Hartree energ DENC   =    -40635.87140511
  -exchange      EXHF   =         0.00000000
  -V(xc)+E(xc)   XCENC  =      1022.38637803
  PAW double counting   =     31198.09907416   -31296.71502897
  entropy T*S    EENTRO =        -0.03304551
  eigenvalues    EBANDS =     -3600.69732254
  atomic energy  EATOM  =     12065.27733323
  Solvation  Ediel_sol  =         0.00000000
  ---------------------------------------------------
  free energy    TOTEN  =      -646.79572652 eV

  energy without entropy =     -646.76268102  energy(sigma->0) =     -646.77920377


--------------------------------------------------------------------------------------------------------




--------------------------------------- Iteration      1(  20)  ---------------------------------------


    POTLOK:  cpu time    0.4129: real time    0.4172
    SETDIJ:  cpu time    0.0120: real time    0.0120
    EDDIAG:  cpu time    2.0435: real time    2.0585
  RMM-DIIS:  cpu time    8.3846: real time    8.4499
    ORTHCH:  cpu time    0.3526: real time    0.4883
       DOS:  cpu time    0.0010: real time    0.0010
    CHARGE:  cpu time    0.4836: real time    0.4921
    MIXING:  cpu time    0.0106: real time    0.0106
    --------------------------------------------
      LOOP:  cpu time   11.7009: real time   11.9296

 eigenvalue-minimisations  :  2951
 total energy-change (2. order) : 0.4566824E-01  (-0.2358291E-01)
 number of electron     292.9999988 magnetization       0.2520262
 augmentation part       12.9592591 magnetization       0.6685088

 Broyden mixing:
  rms(total) = 0.72083E+00    rms(broyden)= 0.72071E+00
  rms(prec ) = 0.75040E+00
  weight for this iteration     100.00

 eigenvalues of (default mixing * dielectric matrix)
  average eigenvalue GAMMA=   0.8738
  2.2296  2.2296  1.1978  1.0678  1.0678  0.6123  0.6123  0.7946  0.7946  0.3460
  0.3460  0.5266  0.5266  0.3303  0.4252

 Free energy of the ion-electron system (eV)
  ---------------------------------------------------
  alpha Z        PSCENC =       157.20791594
  Ewald energy   TEWEN  =     30443.55037424
  -Hartree energ DENC   =    -40640.92145253
  -exchange      EXHF   =         0.00000000
  -V(xc)+E(xc)   XCENC  =      1022.28823753
  PAW double counting   =     31191.17023793   -31289.80682691
  entropy T*S    EENTRO =        -0.01842612
  eigenvalues    EBANDS =     -3595.49745160
[...]
  Kinetic  4374.72721  4368.75466  4988.55558     0.08765     0.77945    -0.25698
  Fock        0.00000     0.00000     0.00000     0.00000     0.00000     0.00000
  vdW        -1.78797    -1.85821    -0.04929    -0.00237     0.00105    -0.02448
  -------------------------------------------------------------------------------------
  Total      -8.91772    -1.39424    -3.31859     0.24430     0.00535     0.03830
  in kB      -5.02464    -0.78557    -1.86984     0.13765     0.00301     0.02158
  external pressure =       -2.56 kB  Pullay stress =        0.00 kB


 VOLUME and BASIS-vectors are now :
 -----------------------------------------------------------------------------
  energy-cutoff  :      440.00
  volume of cell :     2843.54
      direct lattice vectors                 reciprocal lattice vectors
    14.859192570 -0.009793846  0.000000000     0.067324240  0.039191913  0.000000000
    -7.429596285 12.762630739  0.000000000     0.000051664  0.078383827  0.000000000
     0.000000000  0.000000000 15.000000000     0.000000000  0.000000000  0.066666667

  length of vectors
    14.859195797 14.767655343 15.000000000     0.077900958  0.078383844  0.066666667


 FORCES acting on ions
    electron-ion (+dipol)            ewald-force                    non-local-force                 convergence-correction
 -----------------------------------------------------------------------------------------------
   0.656E+00 -.137E+01 0.476E+01   -.586E+00 0.140E+01 -.473E+01   -.633E-01 -.333E-01 -.445E-01   0.480E-02 0.669E-02 0.851E-03
   -.180E+01 -.170E+01 0.580E+01   0.192E+01 0.181E+01 -.582E+01   -.134E+00 -.106E+00 0.881E-02   0.105E-02 0.538E-02 0.597E-03
   0.255E+00 0.432E+00 0.685E+01   -.387E+00 -.321E+00 -.686E+01   0.120E+00 -.120E+00 0.206E-01   0.210E-02 -.173E-02 0.141E-03
   0.380E+00 0.467E+00 0.555E+01   -.425E+00 -.352E+00 -.551E+01   0.512E-01 -.120E+00 -.417E-01   -.421E-02 -.363E-02 0.263E-03
   0.325E+01 -.540E+00 0.813E+01   -.366E+01 0.889E+00 -.816E+01   0.418E+00 -.351E+00 0.280E-01   0.596E-03 -.107E-01 0.504E-03
   0.428E+01 0.824E+00 0.920E+01   -.445E+01 -.553E+00 -.926E+01   0.172E+00 -.264E+00 0.505E-01   -.156E-02 -.148E-01 0.110E-02
   0.282E+01 -.862E+01 0.602E+01   -.370E+01 0.949E+01 -.604E+01   0.880E+00 -.867E+00 0.142E-01   -.903E-03 -.890E-02 0.579E-03
   0.303E+01 -.220E+01 0.487E+01   -.307E+01 0.285E+01 -.484E+01   0.542E-01 -.649E+00 -.427E-01   0.238E-02 -.886E-02 0.782E-03
   -.560E+01 -.110E+02 0.517E+01   0.666E+01 0.118E+02 -.514E+01   -.105E+01 -.803E+00 -.333E-01   -.751E-02 0.155E-02 0.252E-04
   -.363E+01 -.353E+01 0.699E+01   0.367E+01 0.406E+01 -.701E+01   -.416E-01 -.524E+00 0.308E-01   -.635E-03 -.941E-04 -.769E-03
   -.128E+01 -.407E+01 0.971E+01   0.160E+01 0.421E+01 -.979E+01   -.324E+00 -.151E+00 0.729E-01   0.890E-03 0.134E-01 0.126E-02
   -.247E+01 -.254E+01 0.843E+01   0.256E+01 0.261E+01 -.845E+01   -.910E-01 -.589E-01 0.237E-01   0.357E-02 0.754E-02 0.629E-03
   0.176E+00 0.305E+01 0.704E+01   -.148E+00 -.302E+01 -.705E+01   -.277E-01 -.507E-01 -.666E-03   0.216E-02 0.740E-02 0.106E-02
   0.213E-01 0.163E+01 0.791E+01   0.309E-01 -.161E+01 -.794E+01   -.756E-01 -.329E-01 0.272E-01   0.464E-02 0.950E-02 0.747E-03
   0.244E+01 0.203E+01 0.718E+01   -.238E+01 -.177E+01 -.724E+01   -.638E-01 -.251E+00 0.718E-01   -.255E-02 0.239E-02 0.220E-03
   -.181E+01 0.679E+01 0.592E+01   0.238E+01 -.644E+01 -.597E+01   -.556E+00 -.353E+00 0.513E-01   -.124E-01 0.939E-03 0.379E-03
   0.218E+01 0.683E+01 0.846E+01   -.225E+01 -.640E+01 -.850E+01   0.829E-01 -.403E+00 0.421E-01   -.130E-01 -.145E-01 0.900E-03
   0.802E+01 0.864E+01 0.974E+01   -.829E+01 -.796E+01 -.941E+01   0.310E+00 -.639E+00 -.344E+00   -.255E-01 -.243E-01 0.272E-02
   -.266E+01 0.493E+01 0.771E+01   0.244E+01 -.469E+01 -.771E+01   0.217E+00 -.210E+00 0.332E-02   0.683E-02 -.171E-01 0.151E-02
   -.192E+01 0.824E+01 0.133E+02   0.154E+01 -.799E+01 -.135E+02   0.345E+00 -.213E+00 0.187E+00   0.126E-01 -.241E-01 0.119E-02
   -.201E+01 -.113E+01 0.627E+01   0.204E+01 0.139E+01 -.630E+01   -.356E-01 -.276E+00 0.343E-01   0.475E-02 -.432E-02 -.201E-03
   -.338E+01 0.300E+01 0.416E+01   0.336E+01 -.283E+01 -.418E+01   0.167E-01 -.157E+00 0.199E-01   0.135E-01 -.112E-01 -.302E-03
   0.186E+00 0.764E-01 0.789E+01   -.717E-02 0.482E-01 -.788E+01   -.175E+00 -.123E+00 -.482E-02   0.501E-03 0.295E-02 -.943E-03
   -.108E+01 0.530E+00 0.862E+01   0.113E+01 -.455E+00 -.865E+01   -.687E-01 -.716E-01 0.455E-01   0.843E-02 0.396E-02 -.155E-02
   0.141E+01 0.235E+01 0.873E+01   -.134E+01 -.237E+01 -.870E+01   -.877E-01 0.157E-01 -.196E-01   0.719E-02 0.589E-02 -.442E-03
   0.209E+01 0.400E+01 0.989E+01   -.209E+01 -.408E+01 -.994E+01   -.291E-01 0.608E-01 0.493E-01   0.103E-01 0.452E-04 -.753E-04
   0.444E+01 0.984E+01 0.597E+01   -.420E+01 -.992E+01 -.590E+01   -.235E+00 0.823E-01 -.579E-01   -.596E-02 0.463E-02 0.330E-03
   0.993E+01 0.649E+01 0.696E+01   -.951E+01 -.645E+01 -.711E+01   -.418E+00 -.548E-01 0.163E+00   0.293E-03 0.113E-01 -.133E-03
   0.313E+01 0.150E+02 0.256E+01   -.291E+01 -.136E+02 -.264E+01   -.187E+00 -.137E+01 0.706E-01   -.307E-01 -.158E-01 0.304E-02
   -.230E+01 0.279E+02 -.151E+01   0.859E+01 -.239E+02 0.280E+01   -.625E+01 -.398E+01 -.129E+01   -.659E-01 -.490E-02 0.777E-02
   0.757E+00 0.214E+02 0.300E+02   -.111E+01 -.210E+02 -.303E+02   0.333E+00 -.325E+00 0.277E+00   0.627E-04 -.395E-01 0.101E-03
   0.519E+01 0.542E+02 0.701E+02   -.115E+02 -.517E+02 -.702E+02   0.632E+01 -.246E+01 0.143E+00   0.203E-01 -.538E-01 -.119E-01
   -.564E+01 0.948E+01 0.172E+01   0.549E+01 -.945E+01 -.179E+01   0.158E+00 -.801E-02 0.635E-01   0.169E-01 -.149E-01 0.801E-03
   -.143E+02 0.682E+01 -.137E+02   0.143E+02 -.681E+01 0.140E+02   -.636E-01 -.242E-02 -.301E+00   0.336E-01 -.124E-01 0.762E-03
   -.366E+01 0.274E+01 0.525E+01   0.365E+01 -.272E+01 -.521E+01   0.234E-01 -.291E-01 -.189E-01   0.998E-02 -.318E-02 -.194E-02
   -.499E+01 0.238E+01 0.405E+01   0.494E+01 -.239E+01 -.411E+01   0.590E-01 -.512E-02 0.779E-01   0.138E-01 0.653E-03 -.214E-02
   0.318E+00 0.209E+01 0.826E+01   -.304E+00 -.214E+01 -.828E+01   -.307E-01 0.642E-01 0.239E-01   0.121E-01 -.439E-03 -.166E-02
   0.599E+00 -.787E+00 0.857E+01   -.723E+00 0.695E+00 -.858E+01   0.111E+00 0.765E-01 0.233E-01   0.118E-01 0.285E-02 -.175E-02
   0.505E+01 0.354E+01 0.824E+01   -.498E+01 -.378E+01 -.822E+01   -.812E-01 0.219E+00 -.252E-01   0.813E-02 0.487E-02 0.547E-03
   0.465E+01 0.152E+01 0.866E+01   -.507E+01 -.186E+01 -.867E+01   0.406E+00 0.356E+00 0.616E-02   0.111E-01 0.578E-03 0.937E-03
   0.203E+02 0.129E+02 0.637E+00   -.189E+02 -.136E+02 -.796E+00   -.134E+01 0.729E+00 0.172E+00   -.304E-01 0.188E-01 0.573E-02
   0.200E+02 0.605E+00 -.216E+01   -.185E+02 -.114E+01 0.220E+01   -.137E+01 0.553E+00 -.246E-01   -.321E-01 -.774E-02 0.578E-02
   -.412E+02 0.146E+02 0.130E+02   0.413E+02 -.155E+02 -.146E+02   -.224E+00 0.876E+00 0.151E+01   0.488E-01 -.202E-01 0.874E-02
   -.409E+02 -.142E+02 0.160E+02   0.411E+02 0.150E+02 -.175E+02   -.249E+00 -.846E+00 0.148E+01   0.496E-01 0.204E-01 0.995E-02
   -.847E+01 0.740E+00 -.852E+01   0.847E+01 -.744E+00 0.867E+01   -.250E-01 -.203E-01 -.144E+00   0.238E-01 0.754E-03 -.188E-02
   -.820E+01 -.982E+00 -.772E+01   0.818E+01 0.973E+00 0.789E+01   -.941E-02 0.198E-01 -.155E+00   0.246E-01 0.157E-02 -.228E-02
   -.393E+01 -.212E+01 0.498E+01   0.384E+01 0.213E+01 -.504E+01   0.102E+00 0.380E-02 0.788E-01   0.137E-01 0.455E-03 -.216E-02
   -.219E+01 -.426E+01 0.643E+01   0.203E+01 0.425E+01 -.640E+01   0.159E+00 0.152E-01 -.108E-01   0.134E-01 0.436E-02 -.203E-02
   0.601E+01 -.759E+00 0.101E+02   -.618E+01 0.593E+00 -.102E+02   0.150E+00 0.171E+00 0.440E-01   0.117E-01 0.520E-02 -.564E-04
   0.475E+01 -.331E+01 0.859E+01   -.527E+01 0.302E+01 -.856E+01   0.508E+00 0.302E+00 -.233E-01   0.866E-02 -.266E-02 -.473E-03
   0.170E+02 0.460E+01 0.784E+01   -.169E+02 -.623E+01 -.808E+01   -.162E+00 0.164E+01 0.250E+00   0.442E-02 -.700E-02 0.852E-03
   0.286E+02 0.490E+01 0.672E+01   -.337E+02 -.797E+01 -.678E+01   0.514E+01 0.307E+01 0.645E-01   -.887E-02 -.663E-02 0.131E-02
   -.102E+02 -.145E+02 -.161E+02   0.174E+02 0.887E+01 0.177E+02   -.720E+01 0.565E+01 -.163E+01   -.677E-01 0.615E-02 0.924E-02
   -.190E+02 -.363E+01 -.459E+01   0.243E+02 -.102E+01 0.506E+01   -.525E+01 0.464E+01 -.496E+00   -.329E-01 0.853E-02 0.425E-02
   0.339E+01 -.517E+02 0.753E+02   -.959E+01 0.489E+02 -.756E+02   0.620E+01 0.272E+01 0.337E+00   0.168E-01 0.545E-01 -.738E-02
   -.241E+01 -.218E+02 0.302E+02   0.253E+01 0.211E+02 -.305E+02   -.132E+00 0.660E+00 0.329E+00   0.517E-03 0.400E-01 0.187E-02
   -.152E+02 -.692E+01 -.108E+02   0.152E+02 0.692E+01 0.111E+02   -.867E-01 -.668E-02 -.272E+00   0.346E-01 0.127E-01 0.268E-03
   -.629E+01 -.112E+02 0.425E+01   0.622E+01 0.112E+02 -.433E+01   0.802E-01 -.184E-01 0.744E-01   0.168E-01 0.157E-01 0.342E-03
   -.291E+01 -.322E+01 0.547E+01   0.287E+01 0.325E+01 -.549E+01   0.381E-01 -.439E-01 0.192E-01   0.142E-01 0.123E-01 -.261E-03
   -.164E+01 -.392E+01 0.641E+01   0.163E+01 0.393E+01 -.644E+01   0.164E-02 -.700E-02 0.245E-01   0.709E-02 0.516E-02 0.376E-03
   0.181E+01 -.631E-01 0.874E+01   -.201E+01 0.891E-01 -.876E+01   0.187E+00 -.286E-01 0.418E-01   0.117E-01 -.199E-02 -.141E-02
   0.271E+01 -.286E+01 0.767E+01   -.289E+01 0.291E+01 -.766E+01   0.180E+00 -.502E-01 -.701E-02   0.723E-03 -.472E-02 -.371E-03
   0.117E+02 0.581E-01 0.777E+01   -.130E+02 0.361E+00 -.782E+01   0.130E+01 -.385E+00 0.444E-01   0.570E-02 -.135E-01 0.811E-03
   0.831E+01 -.735E+01 0.686E+01   -.904E+01 0.779E+01 -.688E+01   0.728E+00 -.422E+00 0.155E-01   0.145E-02 -.111E-01 0.734E-03
   -.417E+01 -.684E+01 0.784E+01   0.621E+01 0.592E+01 -.808E+01   -.202E+01 0.916E+00 0.240E+00   -.233E-01 -.334E-02 -.921E-03
   0.159E+01 -.295E+02 0.734E+01   -.143E+01 0.355E+02 -.744E+01   -.168E+00 -.594E+01 0.116E+00   -.660E-02 -.570E-02 0.607E-03
   -.376E+01 -.619E+01 0.863E+01   0.482E+01 0.596E+01 -.842E+01   -.102E+01 0.207E+00 -.218E+00   -.235E-01 0.199E-01 0.382E-02
   -.633E+01 -.117E+02 0.828E+01   0.703E+01 0.117E+02 -.832E+01   -.690E+00 0.212E-01 0.379E-01   -.122E-01 0.131E-01 0.130E-02
   -.349E+01 -.773E+01 0.142E+02   0.329E+01 0.758E+01 -.144E+02   0.175E+00 0.116E+00 0.175E+00   0.120E-01 0.231E-01 0.993E-03
   -.504E+01 -.773E+01 0.798E+01   0.513E+01 0.766E+01 -.799E+01   -.945E-01 0.486E-01 0.135E-02   0.868E-02 0.151E-01 0.118E-02
   0.504E+02 0.377E+01 -.589E+03   -.574E+02 -.413E+01 0.572E+03   0.706E+01 0.339E+00 0.163E+02   -.534E-01 0.234E-01 0.351E+00
 -----------------------------------------------------------------------------------------------
   -.207E+01 -.751E+00 -.182E+02   0.995E-13 0.732E-12 0.114E-12   0.197E+01 0.733E+00 0.178E+02   0.917E-01 0.198E-01 0.395E+00
 
 
 POSITION                                       TOTAL-FORCE (eV/Angst)
 -----------------------------------------------------------------------------------
      0.00059      0.00547      7.47129         0.012064     -0.003374     -0.013765
      0.00257      1.42848      7.47069        -0.011178      0.000112     -0.010901
      2.47654      0.01675      7.46423        -0.009392     -0.009841      0.002357
      2.47539      1.43791      7.47631         0.002396     -0.006081     -0.002867
      4.95168      0.01027      7.45913         0.008725     -0.011588     -0.002805
      4.95238      1.43262      7.46490        -0.001165     -0.008262     -0.009492
      0.00487     12.73678      7.47367        -0.001006     -0.010182     -0.006987
      7.43678      1.39975      7.47416         0.017829      0.000584     -0.011032
      2.46980     12.72097      7.48084         0.002162      0.004392      0.002308
      9.89941      1.38464      7.46678        -0.001276      0.003847      0.008043
      4.94758     12.73523      7.46365        -0.000062      0.005211     -0.010523
     12.37750      1.39534      7.45795         0.002337      0.009064     -0.002492
     13.61430      2.11214      7.46459         0.004116     -0.011789     -0.004527
     -1.24591      3.54081      7.47188        -0.018082     -0.011113     -0.004133
      1.24150      2.15044      7.48098        -0.003266      0.009367      0.009961
      1.24420      3.58103      7.51330         0.005171     -0.006564      0.003612
      3.71447      2.15518      7.48020        -0.001637      0.017746      0.006498
      3.71357      3.57353      7.51430         0.007896      0.028509     -0.004612
      6.19581      2.12068      7.47277        -0.000442      0.007162     -0.001270
      6.19634      3.54277      7.48341        -0.027440      0.021083     -0.013990
      8.67131      2.10328      7.47283         0.001193     -0.011921      0.004026
      8.67352      3.52671      7.48929         0.008070      0.005411      0.000425
     11.14034      2.09951      7.45902         0.004639      0.004306      0.004740
     11.14258      3.52239      7.46155        -0.003385      0.006816      0.014235
     12.37739      4.23658      7.46396        -0.005655     -0.000740      0.007041
     -2.48567      5.67198      7.46929        -0.019850     -0.017620      0.003027
     -0.00912      4.25706      7.50343        -0.004484      0.011247      0.010216
     -0.02686      5.67307      7.52670         0.007816     -0.008131      0.014924
      2.48263      4.32626      7.57065         0.014342      0.007920     -0.009492
      2.46139      5.75077      7.68664        -0.011634     -0.002876      0.001940
      4.95849      4.26743      7.48577        -0.025966     -0.003357     -0.024764
      4.98374      5.67677      7.53483         0.006886      0.028996     -0.001488
      7.44148      4.23956      7.51775         0.022934      0.007454     -0.006006
      7.45688      5.65675      7.57784        -0.018899      0.004320     -0.013982
      9.90739      4.23591      7.48157         0.021179     -0.004652      0.019754
      9.91005      5.65808      7.49758         0.020218     -0.016433      0.016239
     -3.71618      6.38159      7.47477        -0.004392      0.007379      0.008991
     -3.71747      7.80172      7.47334        -0.001618     -0.012335      0.009873
     -1.25863      6.38659      7.49218        -0.005662     -0.021185     -0.000121
     -1.26035      7.80730      7.49155        -0.007023      0.021692      0.000073
      1.19625      6.37991      7.61151         0.024774     -0.023840      0.015929
      1.19117      7.80528      7.62077         0.025590      0.015496      0.015103
      6.22181      6.36362      7.57454         0.008147      0.026485     -0.030627
      6.22063      7.80280      7.56608         0.008440     -0.028578     -0.035596
      8.68460      6.37035      7.55240        -0.000791     -0.023213      0.002931
      8.68346      7.79408      7.54850        -0.000496      0.012046      0.006600
     -4.94921      8.51474      7.49301         0.019789      0.017382      0.021738
     -4.95122      9.93571      7.47560         0.012891      0.008797      0.021140
     -2.48546      8.51273      7.46855        -0.012952      0.011307      0.001512
     -2.47475      9.93272      7.46428        -0.004906      0.006312      0.006865
     -0.01975      8.51898      7.52787        -0.003101      0.019867      0.012291
      0.00044      9.93232      7.50552         0.007592     -0.005581      0.006989
      2.44276      8.44946      7.71836        -0.012596     -0.002997     -0.006704
      2.46345      9.85721      7.59211         0.002390     -0.001522     -0.015580
      4.97805      8.48500      7.52250         0.005215     -0.039155     -0.006955
      4.94100      9.89249      7.48419        -0.020226     -0.009455     -0.026575
      7.45486      8.50753      7.56723        -0.021819      0.001378     -0.006688
      7.43484      9.92371      7.50728         0.021264      0.002030     -0.002336
     -6.18774     10.64544      7.48169         0.008410      0.002080      0.002547
     -6.18979     12.06592      7.46884        -0.002489      0.006801     -0.000387
     -3.71127     10.64612      7.45964        -0.001561     -0.003477      0.012799
     -3.71593     12.06521      7.45826         0.005081     -0.006616      0.000819
     -1.23468     10.64250      7.47415        -0.020519      0.019891     -0.004643
     -1.24612     12.05833      7.46701         0.000841      0.004189     -0.002856
      1.23428     10.60352      7.51839        -0.002802     -0.005902      0.004078
      1.23810     12.01448      7.48623        -0.012275     -0.000620      0.009607
      3.69772     10.60114      7.52088         0.004143     -0.017917     -0.006027
      3.71257     12.01431      7.48342        -0.005717     -0.009367      0.003332
      6.18571     10.61837      7.47810        -0.014741     -0.013777     -0.010625
      6.18938     12.03810      7.46984         0.007718     -0.004410     -0.002786
      3.92318      7.08233      8.23753        -0.011750      0.007791      0.021073
 -----------------------------------------------------------------------------------
    total drift:                               -0.004517      0.001546     -0.000129


--------------------------------------------------------------------------------------------------------



  FREE ENERGIE OF THE ION-ELECTRON SYSTEM (eV)
  ---------------------------------------------------
  free  energy   TOTEN  =      -653.12564475 eV

  energy  without entropy=     -653.07786995  energy(sigma->0) =     -653.10175735
 
 d Force = 0.6523199E-03[ 0.488E-03, 0.816E-03]  d Energy = 0.2583821E-03 0.394E-03
 d Force = 0.7662091E+00[ 0.769E+00, 0.763E+00]  d Ewald  = 0.7662093E+00-0.180E-06


--------------------------------------------------------------------------------------------------------


    POTLOK:  cpu time    0.4057: real time    0.4072


--------------------------------------------------------------------------------------------------------


 stress matrix after NEB project (eV)
     -8.91772      0.24430      0.03830
      0.24430     -1.39424      0.00535
      0.03830      0.00535     -3.31859
  FORCES: max atom, RMS     0.046422    0.021403
  FORCE total and by dimension    0.180342    0.039155
  Stress total and by dimension    9.623154    8.917723
 Conjugate gradient step on ions:
 trial-energy change:   -0.000258  1 .order   -0.000652   -0.000816   -0.000488
  (g-gl).g = 0.189E-02      g.g   = 0.185E-02  gl.gl    = 0.183E-02
 g(Force)  = 0.185E-02   g(Stress)= 0.000E+00 ortho     = 0.700E-04
 gamma     =   1.03573
 trial     =   0.42478
 opt step  =   1.05695  (harmonic =   1.05695) maximal distance =0.00264328
 next E    =  -653.126402   (d E  =  -0.00102)


--------------------------------------------------------------------------------------------------------


  
 reached required accuracy - stopping structural energy minimisation
     LOOP+:  cpu time   85.1898: real time   85.8657
    4ORBIT:  cpu time    0.0000: real time    0.0000

 total amount of memory used by VASP MPI-rank0   111528. kBytes
=======================================================================

   base      :      30000. kBytes
   nonlr-proj:       9890. kBytes
   fftplans  :      10852. kBytes
   grid      :      30996. kBytes
   one-center:        186. kBytes
   wavefun   :      29604. kBytes
 
  
  
 General timing and accounting informations for this job:
 ========================================================
  
                  Total CPU time used (sec):     5788.336
                            User time (sec):     5761.153
                          System time (sec):       27.183
                         Elapsed time (sec):     5842.975
  
                   Maximum memory used (kb):      487624.
                   Average memory used (kb):           0.
  
                          Minor page faults:      5346630
                          Major page faults:            0
                 Voluntary context switches:        15781
