 running on   48 total cores
 distrk:  each k-point on   48 cores,    1 groups
 distr:  one band on   12 cores,    4 groups
 using from now: INCAR     
 vasp.5.4.4.18Apr17-6-g9f103f2a35 (build Jan 14 2022 15:04:31) complex          
  
 POSCAR found type information on POSCAR  C  N  C  Cr
 POSCAR found :  4 types and      71 ions
 scaLAPACK will be used
 LDA part: xc-table for Pade appr. of Perdew
 POSCAR found type information on POSCAR  C  N  C  Cr
 POSCAR found :  4 types and      71 ions
 POSCAR, INCAR and KPOINTS ok, starting setup
 FFT: planning ...
 WAVECAR not read
 entering main loop
       N       E                     dE             d eps       ncg     rms          rms(c)
DAV:   1     0.244869491463E+04    0.24487E+04   -0.10816E+05  3384   0.107E+03
DAV:   2    -0.234035945238E+03   -0.26827E+04   -0.25618E+04  4232   0.279E+02
DAV:   3    -0.687543641446E+03   -0.45351E+03   -0.45070E+03  3560   0.121E+02
DAV:   4    -0.704014044898E+03   -0.16470E+02   -0.16335E+02  3608   0.283E+01
DAV:   5    -0.704538784078E+03   -0.52474E+00   -0.52304E+00  4064   0.425E+00    0.469E+01
RMM:   6    -0.731709628626E+03   -0.27171E+02   -0.52752E+02  4113   0.394E+01    0.839E+01
RMM:   7    -0.662575756626E+03    0.69134E+02   -0.57795E+01  3053   0.137E+01    0.322E+01
RMM:   8    -0.662543767739E+03    0.31989E-01   -0.22442E+01  3141   0.716E+00    0.285E+01
RMM:   9    -0.647379604514E+03    0.15164E+02   -0.20656E+01  2967   0.850E+00    0.117E+01
RMM:  10    -0.647887704127E+03   -0.50810E+00   -0.31219E+00  2987   0.314E+00    0.145E+01
RMM:  11    -0.646745812587E+03    0.11419E+01   -0.39781E-01  3095   0.105E+00    0.737E+00
RMM:  12    -0.646739218260E+03    0.65943E-02   -0.17149E-01  2944   0.955E-01    0.718E+00
RMM:  13    -0.646796127260E+03   -0.56909E-01   -0.27686E-02  2991   0.385E-01    0.729E+00
RMM:  14    -0.646529975081E+03    0.26615E+00   -0.35928E-02  2966   0.435E-01    0.705E+00
RMM:  15    -0.646578925448E+03   -0.48950E-01   -0.33353E-03  3084   0.115E-01    0.694E+00
RMM:  16    -0.646718717457E+03   -0.13979E+00   -0.20164E-02  2983   0.207E-01    0.772E+00
RMM:  17    -0.646485355944E+03    0.23336E+00   -0.10906E-01  2956   0.498E-01    0.559E+00
RMM:  18    -0.646169061936E+03    0.31629E+00   -0.67611E-01  2953   0.121E+00    0.720E+00
RMM:  19    -0.646795726523E+03   -0.62666E+00   -0.27790E-01  3000   0.945E-01    0.712E+00
RMM:  20    -0.646750058285E+03    0.45668E-01   -0.23583E-01  2951   0.640E-01    0.721E+00
RMM:  21    -0.646399652122E+03    0.35041E+00   -0.30490E-01  2972   0.724E-01    0.381E+00
RMM:  22    -0.646571801655E+03   -0.17215E+00   -0.65580E-02  3057   0.427E-01    0.304E+00
RMM:  23    -0.646588923603E+03   -0.17122E-01   -0.25815E-02  2982   0.384E-01    0.254E+00
RMM:  24    -0.646589105841E+03   -0.18224E-03   -0.20664E-01  2963   0.682E-01    0.509E+00
RMM:  25    -0.646630403857E+03   -0.41298E-01   -0.36851E-02  2978   0.515E-01    0.540E+00
RMM:  26    -0.646569751684E+03    0.60652E-01   -0.27536E-02  2952   0.283E-01    0.394E+00
RMM:  27    -0.646556068995E+03    0.13683E-01   -0.39174E-02  2969   0.265E-01    0.153E+00
RMM:  28    -0.646626518364E+03   -0.70449E-01   -0.39210E-02  3010   0.317E-01    0.236E+00
RMM:  29    -0.646644269559E+03   -0.17751E-01   -0.10151E-02  2997   0.314E-01    0.266E+00
RMM:  30    -0.646633490760E+03    0.10779E-01   -0.28910E-03  2983   0.124E-01    0.263E+00
RMM:  31    -0.646613701849E+03    0.19789E-01   -0.10031E-02  2969   0.147E-01    0.221E+00
RMM:  32    -0.646606168616E+03    0.75332E-02   -0.10412E-02  2992   0.136E-01    0.133E+00
RMM:  33    -0.646633762917E+03   -0.27594E-01   -0.92322E-03  2981   0.194E-01    0.129E+00
RMM:  34    -0.646642186652E+03   -0.84237E-02   -0.18228E-02  2978   0.244E-01    0.131E+00
RMM:  35    -0.646647089141E+03   -0.49025E-02   -0.80579E-03  3016   0.131E-01    0.999E-01
RMM:  36    -0.646650289357E+03   -0.32002E-02   -0.21810E-03  3073   0.638E-02    0.900E-01
RMM:  37    -0.646650687099E+03   -0.39774E-03   -0.31564E-04  2487   0.276E-02    0.917E-01
RMM:  38    -0.646652166376E+03   -0.14793E-02   -0.19135E-03  2952   0.656E-02    0.779E-01
RMM:  39    -0.646652829606E+03   -0.66323E-03   -0.38621E-04  2370   0.251E-02    0.829E-01
RMM:  40    -0.646660321574E+03   -0.74920E-02   -0.34926E-03  2951   0.833E-02    0.847E-01
RMM:  41    -0.646668202332E+03   -0.78808E-02   -0.32785E-03  2966   0.774E-02    0.104E+00
RMM:  42    -0.646670020287E+03   -0.18180E-02   -0.96630E-04  2903   0.539E-02    0.117E+00
RMM:  43    -0.646667898758E+03    0.21215E-02   -0.83546E-04  2898   0.559E-02    0.125E+00
RMM:  44    -0.646667229940E+03    0.66882E-03   -0.11278E-04  2192   0.197E-02    0.120E+00
RMM:  45    -0.646663832746E+03    0.33972E-02   -0.35145E-04  2564   0.305E-02    0.115E+00
RMM:  46    -0.646663852208E+03   -0.19462E-04   -0.91129E-05  2029   0.202E-02    0.110E+00
RMM:  47    -0.646664561510E+03   -0.70930E-03   -0.32253E-05  1883   0.153E-02    0.106E+00
RMM:  48    -0.646662687509E+03    0.18740E-02   -0.11722E-04  2097   0.198E-02    0.109E+00
RMM:  49    -0.646674491884E+03   -0.11804E-01   -0.75185E-03  2945   0.136E-01    0.793E-01
RMM:  50    -0.646676865211E+03   -0.23733E-02   -0.59225E-03  2986   0.106E-01
   1 F= -.65307563E+03 E0= -.65305282E+03  d E =-.653076E+03  mag=     0.0088
 curvature:   0.00 expect dE= 0.000E+00 dE for cont linesearch  0.000E+00
 trial: gam= 0.00000 g(F)=  0.144E-01 g(S)=  0.000E+00 ort = 0.000E+00 (trialstep = 0.100E+01)
 search vector abs. value=  0.144E-01
 bond charge predicted
       N       E                     dE             d eps       ncg     rms          rms(c)
DAV:   1    -0.646679331497E+03   -0.48396E-02   -0.11748E+00  3240   0.308E+00    0.621E-01
RMM:   2    -0.646695692859E+03   -0.16361E-01   -0.70013E-02  2990   0.558E-01    0.136E+00
RMM:   3    -0.646692720712E+03    0.29721E-02   -0.92274E-03  3453   0.170E-01    0.145E+00
RMM:   4    -0.646685414518E+03    0.73062E-02   -0.25372E-03  3073   0.123E-01    0.143E+00
RMM:   5    -0.646672331681E+03    0.13083E-01   -0.45040E-03  2962   0.111E-01    0.394E-01
RMM:   6    -0.646681449637E+03   -0.91180E-02   -0.19677E-03  2943   0.126E-01    0.525E-01
RMM:   7    -0.646682144000E+03   -0.69436E-03   -0.35284E-03  2969   0.127E-01    0.288E-01
RMM:   8    -0.646684019019E+03   -0.18750E-02   -0.48852E-04  2869   0.513E-02    0.401E-01
RMM:   9    -0.646683227597E+03    0.79142E-03   -0.44953E-04  2903   0.530E-02    0.190E-01
RMM:  10    -0.646683361562E+03   -0.13396E-03   -0.14195E-04  2239   0.180E-02    0.599E-02
RMM:  11    -0.646683861996E+03   -0.50043E-03   -0.64100E-05  2064   0.266E-02    0.118E-01
RMM:  12    -0.646683953880E+03   -0.91884E-04   -0.55252E-05  2034   0.167E-02    0.410E-02
RMM:  13    -0.646684071162E+03   -0.11728E-03   -0.11201E-05  1763   0.659E-03    0.108E-02
RMM:  14    -0.646684139815E+03   -0.68652E-04   -0.45017E-06  1726   0.592E-03    0.136E-02
RMM:  15    -0.646684162158E+03   -0.22343E-04   -0.91746E-07  1183   0.220E-03    0.804E-03
RMM:  16    -0.646684186133E+03   -0.23975E-04   -0.86830E-07   930   0.184E-03    0.492E-03
RMM:  17    -0.646684212571E+03   -0.26439E-04   -0.11152E-06   988   0.180E-03    0.782E-03
RMM:  18    -0.646684221548E+03   -0.89768E-05   -0.24741E-07   643   0.135E-03
   2 F= -.65308321E+03 E0= -.65305842E+03  d E =-.758924E-02  mag=     0.0453
 trial-energy change:   -0.007589  1 .order   -0.005120   -0.014415    0.004175
 step:   0.8672(harm=  0.7754)  dis= 0.00590  next Energy=  -653.083486 (dE=-0.786E-02)
 bond charge predicted
       N       E                     dE             d eps       ncg     rms          rms(c)
DAV:   1    -0.646684593159E+03   -0.38059E-03   -0.20615E-02  3296   0.408E-01    0.569E-02
RMM:   2    -0.646685162861E+03   -0.56970E-03   -0.16027E-03  2967   0.804E-02    0.303E-01
RMM:   3    -0.646684634184E+03    0.52868E-03   -0.30022E-04  2430   0.300E-02    0.429E-02
RMM:   4    -0.646684649052E+03   -0.14868E-04   -0.26260E-05  1939   0.117E-02    0.580E-02
RMM:   5    -0.646684641413E+03    0.76389E-05   -0.44814E-06  1724   0.589E-03
   3 F= -.65308361E+03 E0= -.65305893E+03  d E =-.798207E-02  mag=     0.0428
 curvature:  -0.32 expect dE=-0.408E-02 dE for cont linesearch -0.701E-04
 trial: gam= 0.99873 g(F)=  0.126E-01 g(S)=  0.000E+00 ort =-0.177E-02 (trialstep = 0.598E+00)
 search vector abs. value=  0.235E-01
 bond charge predicted
       N       E                     dE             d eps       ncg     rms          rms(c)
DAV:   1    -0.646685536090E+03   -0.88704E-03   -0.60523E-01  3256   0.248E+00    0.336E-01
RMM:   2    -0.646703889048E+03   -0.18353E-01   -0.60252E-02  3011   0.439E-01    0.157E+00
RMM:   3    -0.646688964333E+03    0.14925E-01   -0.99654E-03  3256   0.165E-01    0.196E-01
RMM:   4    -0.646688739075E+03    0.22526E-03   -0.74150E-04  3119   0.536E-02    0.130E-01
RMM:   5    -0.646688687593E+03    0.51482E-04   -0.91649E-05  2206   0.161E-02    0.130E-01
RMM:   6    -0.646688726676E+03   -0.39083E-04   -0.26401E-05  1886   0.992E-03    0.205E-01
RMM:   7    -0.646688534976E+03    0.19170E-03   -0.93882E-05  2140   0.237E-02    0.134E-01
RMM:   8    -0.646688594265E+03   -0.59289E-04   -0.38628E-05  1918   0.117E-02    0.279E-02
RMM:   9    -0.646688688346E+03   -0.94081E-04   -0.15757E-05  1803   0.116E-02    0.524E-02
RMM:  10    -0.646688696754E+03   -0.84080E-05   -0.99660E-06  1776   0.100E-02
   4 F= -.65308787E+03 E0= -.65306279E+03  d E =-.425887E-02  mag=     0.0461
 trial-energy change:   -0.004259  1 .order   -0.004226   -0.006493   -0.001959
 step:   0.8561(harm=  0.8561)  dis= 0.00730  next Energy=  -653.088257 (dE=-0.465E-02)
 bond charge predicted
       N       E                     dE             d eps       ncg     rms          rms(c)
DAV:   1    -0.646688433834E+03    0.25451E-03   -0.11304E-01  3280   0.107E+00    0.158E-01
RMM:   2    -0.646692301945E+03   -0.38681E-02   -0.11687E-02  3015   0.192E-01    0.758E-01
RMM:   3    -0.646689318182E+03    0.29838E-02   -0.18973E-03  3178   0.732E-02    0.369E-01
RMM:   4    -0.646688856318E+03    0.46186E-03   -0.24772E-04  2441   0.347E-02    0.316E-01
RMM:   5    -0.646688598306E+03    0.25801E-03   -0.12695E-04  2234   0.177E-02    0.115E-01
RMM:   6    -0.646688897806E+03   -0.29950E-03   -0.77457E-05  2056   0.208E-02    0.123E-01
RMM:   7    -0.646688971123E+03   -0.73317E-04   -0.13833E-04  2486   0.299E-02    0.660E-02
RMM:   8    -0.646688860990E+03    0.11013E-03   -0.52491E-05  2001   0.112E-02    0.965E-02
RMM:   9    -0.646688948895E+03   -0.87905E-04   -0.23297E-05  1855   0.146E-02    0.109E-01
RMM:  10    -0.646688988777E+03   -0.39882E-04   -0.24476E-05  1885   0.945E-03    0.371E-02
RMM:  11    -0.646689018524E+03   -0.29748E-04   -0.10678E-05  1774   0.620E-03    0.383E-02
RMM:  12    -0.646689060049E+03   -0.41525E-04   -0.54011E-06  1732   0.825E-03    0.478E-02
RMM:  13    -0.646689052817E+03    0.72325E-05   -0.14983E-06  1621   0.373E-03
   5 F= -.65308830E+03 E0= -.65306307E+03  d E =-.469187E-02  mag=     0.0470
 curvature:  -0.93 expect dE=-0.745E-02 dE for cont linesearch -0.101E-07
 trial: gam= 0.23994 g(F)=  0.805E-02 g(S)=  0.000E+00 ort =-0.160E-04 (trialstep = 0.649E+00)
 search vector abs. value=  0.939E-02
 bond charge predicted
       N       E                     dE             d eps       ncg     rms          rms(c)
DAV:   1    -0.646690402283E+03   -0.13422E-02   -0.31859E-01  3368   0.188E+00    0.171E-01
RMM:   2    -0.646692635485E+03   -0.22332E-02   -0.21791E-02  2972   0.290E-01    0.345E-01
RMM:   3    -0.646692292381E+03    0.34310E-03   -0.14757E-03  3584   0.700E-02    0.358E-01
RMM:   4    -0.646692215070E+03    0.77310E-04   -0.11656E-04  2314   0.249E-02    0.417E-01
RMM:   5    -0.646691714797E+03    0.50027E-03   -0.10527E-04  2551   0.235E-02    0.395E-01
RMM:   6    -0.646691555261E+03    0.15954E-03   -0.15246E-04  2812   0.237E-02    0.338E-01
RMM:   7    -0.646691693343E+03   -0.13808E-03   -0.48364E-05  2024   0.156E-02    0.315E-01
RMM:   8    -0.646691859256E+03   -0.16591E-03   -0.11696E-05  1804   0.866E-03    0.329E-01
RMM:   9    -0.646691933452E+03   -0.74196E-04   -0.43650E-06  1730   0.451E-03    0.365E-01
RMM:  10    -0.646691912247E+03    0.21205E-04   -0.22173E-06  1691   0.395E-03    0.389E-01
RMM:  11    -0.646691870697E+03    0.41549E-04   -0.93384E-07  1619   0.323E-03    0.394E-01
RMM:  12    -0.646691746632E+03    0.12407E-03   -0.40532E-06  1687   0.427E-03    0.358E-01
RMM:  13    -0.646691653894E+03    0.92738E-04   -0.15595E-05  1788   0.591E-03    0.276E-01
RMM:  14    -0.646691695675E+03   -0.41781E-04   -0.14900E-05  1778   0.765E-03    0.190E-01
RMM:  15    -0.646691777958E+03   -0.82283E-04   -0.13252E-05  1775   0.829E-03    0.112E-01
RMM:  16    -0.646691860606E+03   -0.82648E-04   -0.10775E-05  1751   0.809E-03    0.500E-02
RMM:  17    -0.646691915161E+03   -0.54555E-04   -0.97117E-06  1747   0.701E-03    0.130E-02
RMM:  18    -0.646691943412E+03   -0.28251E-04   -0.43164E-06  1720   0.693E-03    0.355E-02
RMM:  19    -0.646691942302E+03    0.11099E-05   -0.18992E-06  1628   0.409E-03
   6 F= -.65309115E+03 E0= -.65306613E+03  d E =-.285270E-02  mag=     0.0452
 trial-energy change:   -0.002853  1 .order   -0.002825   -0.005225   -0.000426
 step:   0.7070(harm=  0.7070)  dis= 0.00289  next Energy=  -653.091144 (dE=-0.284E-02)
 bond charge predicted
       N       E                     dE             d eps       ncg     rms          rms(c)
DAV:   1    -0.646691952101E+03   -0.86891E-05   -0.25054E-03  3480   0.167E-01    0.555E-02
RMM:   2    -0.646692076814E+03   -0.12471E-03   -0.21230E-04  2515   0.288E-02    0.203E-01
RMM:   3    -0.646691883898E+03    0.19292E-03   -0.10470E-04  2098   0.274E-02    0.161E-01
RMM:   4    -0.646691842619E+03    0.41278E-04   -0.46885E-05  1897   0.116E-02    0.374E-02
RMM:   5    -0.646691875852E+03   -0.33233E-04   -0.12608E-05  1782   0.959E-03    0.378E-02
RMM:   6    -0.646691934442E+03   -0.58590E-04   -0.89757E-06  1756   0.966E-03    0.285E-02
RMM:   7    -0.646691954552E+03   -0.20111E-04   -0.72611E-06  1746   0.500E-03    0.216E-02
RMM:   8    -0.646691968109E+03   -0.13557E-04   -0.23966E-06  1591   0.456E-03    0.414E-02
RMM:   9    -0.646691957450E+03    0.10659E-04   -0.17057E-06  1619   0.384E-03    0.260E-02
RMM:  10    -0.646691952479E+03    0.49707E-05   -0.66108E-07   694   0.162E-03
   7 F= -.65309116E+03 E0= -.65306614E+03  d E =-.285849E-02  mag=     0.0486
 curvature:  -0.41 expect dE=-0.112E-02 dE for cont linesearch -0.535E-07
 trial: gam= 0.34664 g(F)=  0.273E-02 g(S)=  0.000E+00 ort = 0.349E-04 (trialstep = 0.661E+00)
 search vector abs. value=  0.388E-02
 bond charge predicted
       N       E                     dE             d eps       ncg     rms          rms(c)
DAV:   1    -0.646692672452E+03   -0.71500E-03   -0.12810E-01  3336   0.121E+00    0.993E-02
RMM:   2    -0.646693367579E+03   -0.69513E-03   -0.77491E-03  2992   0.169E-01    0.125E-01
RMM:   3    -0.646693399895E+03   -0.32317E-04   -0.49943E-04  3358   0.435E-02    0.257E-01
RMM:   4    -0.646693394150E+03    0.57453E-05   -0.77590E-05  2082   0.200E-02
   8 F= -.65309251E+03 E0= -.65306722E+03  d E =-.135680E-02  mag=     0.0568
 trial-energy change:   -0.001357  1 .order   -0.001259   -0.001809   -0.000709
 step:   0.9068(harm=  1.0867)  dis= 0.00241  next Energy=  -653.092652 (dE=-0.149E-02)
 bond charge predicted
       N       E                     dE             d eps       ncg     rms          rms(c)
DAV:   1    -0.646693536064E+03   -0.13617E-03   -0.17771E-02  3360   0.452E-01    0.436E-01
RMM:   2    -0.646702439759E+03   -0.89037E-02   -0.62127E-03  2980   0.131E-01    0.126E+00
RMM:   3    -0.646705462806E+03   -0.30230E-02   -0.38189E-03  2980   0.131E-01    0.155E+00
RMM:   4    -0.646686880459E+03    0.18582E-01   -0.92497E-03  2996   0.153E-01    0.252E-01
RMM:   5    -0.646692470685E+03   -0.55902E-02   -0.17603E-03  2957   0.897E-02    0.578E-01
RMM:   6    -0.646693084094E+03   -0.61341E-03   -0.95593E-04  2942   0.990E-02    0.535E-01
RMM:   7    -0.646692425176E+03    0.65892E-03   -0.33333E-04  2601   0.307E-02    0.243E-01
RMM:   8    -0.646692837400E+03   -0.41222E-03   -0.14019E-04  2248   0.238E-02    0.538E-02
RMM:   9    -0.646693339519E+03   -0.50212E-03   -0.76445E-05  2122   0.299E-02    0.172E-01
RMM:  10    -0.646693313370E+03    0.26148E-04   -0.44921E-05  1953   0.207E-02    0.137E-01
RMM:  11    -0.646693282714E+03    0.30656E-04   -0.89896E-06  1767   0.569E-03    0.796E-02
RMM:  12    -0.646693332382E+03   -0.49669E-04   -0.38313E-06  1679   0.509E-03    0.452E-02
RMM:  13    -0.646693352218E+03   -0.19835E-04   -0.25928E-06  1616   0.403E-03    0.156E-02
RMM:  14    -0.646693371632E+03   -0.19415E-04   -0.12475E-06  1606   0.349E-03    0.207E-03
RMM:  15    -0.646693382895E+03   -0.11263E-04   -0.44595E-07  1252   0.245E-03    0.359E-03
RMM:  16    -0.646693387297E+03   -0.44022E-05   -0.20557E-07   978   0.176E-03
   9 F= -.65309247E+03 E0= -.65306748E+03  d E =-.131598E-02  mag=     0.0482
 curvature:  -0.63 expect dE=-0.103E-02 dE for cont linesearch -0.258E-05
 trial: gam= 0.55703 g(F)=  0.163E-02 g(S)=  0.000E+00 ort = 0.126E-03 (trialstep = 0.710E+00)
 search vector abs. value=  0.297E-02
 bond charge predicted
       N       E                     dE             d eps       ncg     rms          rms(c)
DAV:   1    -0.646693715349E+03   -0.33245E-03   -0.11775E-01  3416   0.118E+00    0.101E-01
RMM:   2    -0.646694709417E+03   -0.99407E-03   -0.84474E-03  2987   0.167E-01    0.239E-01
RMM:   3    -0.646694406892E+03    0.30253E-03   -0.68491E-04  3334   0.474E-02    0.187E-01
RMM:   4    -0.646694425119E+03   -0.18227E-04   -0.61928E-05  2087   0.149E-02    0.248E-01
RMM:   5    -0.646694117081E+03    0.30804E-03   -0.57094E-05  2016   0.212E-02    0.144E-01
RMM:   6    -0.646694137874E+03   -0.20792E-04   -0.45501E-05  1935   0.120E-02    0.371E-02
RMM:   7    -0.646694278577E+03   -0.14070E-03   -0.26983E-05  1875   0.158E-02    0.739E-02
RMM:   8    -0.646694266102E+03    0.12476E-04   -0.29484E-05  1910   0.134E-02    0.237E-02
RMM:   9    -0.646694283344E+03   -0.17243E-04   -0.49045E-06  1742   0.562E-03    0.609E-03
RMM:  10    -0.646694304773E+03   -0.21429E-04   -0.14654E-06  1709   0.371E-03    0.263E-03
RMM:  11    -0.646694314950E+03   -0.10177E-04   -0.35766E-07   706   0.164E-03    0.644E-03
RMM:  12    -0.646694316329E+03   -0.13797E-05   -0.14966E-07   636   0.145E-03
  10 F= -.65309337E+03 E0= -.65306836E+03  d E =-.899838E-03  mag=     0.0477
 trial-energy change:   -0.000900  1 .order   -0.000899   -0.001206   -0.000593
 step:   1.3967(harm=  1.3967)  dis= 0.00449  next Energy=  -653.093660 (dE=-0.119E-02)
 bond charge predicted
       N       E                     dE             d eps       ncg     rms          rms(c)
DAV:   1    -0.646694091582E+03    0.22337E-03   -0.11029E-01  3400   0.114E+00    0.970E-02
RMM:   2    -0.646695017394E+03   -0.92581E-03   -0.78378E-03  2988   0.162E-01    0.231E-01
RMM:   3    -0.646694727540E+03    0.28985E-03   -0.64578E-04  3318   0.460E-02    0.171E-01
RMM:   4    -0.646694743442E+03   -0.15902E-04   -0.55226E-05  2071   0.144E-02    0.231E-01
RMM:   5    -0.646694471500E+03    0.27194E-03   -0.52859E-05  2005   0.208E-02    0.135E-01
RMM:   6    -0.646694483737E+03   -0.12238E-04   -0.42970E-05  1931   0.114E-02    0.390E-02
RMM:   7    -0.646694620789E+03   -0.13705E-03   -0.26477E-05  1874   0.157E-02    0.763E-02
RMM:   8    -0.646694590379E+03    0.30410E-04   -0.30647E-05  1915   0.132E-02    0.192E-02
RMM:   9    -0.646694613995E+03   -0.23617E-04   -0.52624E-06  1748   0.603E-03    0.104E-02
RMM:  10    -0.646694637907E+03   -0.23912E-04   -0.16415E-06  1715   0.401E-03    0.549E-03
RMM:  11    -0.646694650173E+03   -0.12266E-04   -0.52302E-07   755   0.168E-03    0.712E-03
RMM:  12    -0.646694652457E+03   -0.22834E-05   -0.25907E-07   755   0.162E-03
  11 F= -.65309367E+03 E0= -.65306863E+03  d E =-.119952E-02  mag=     0.0473
 curvature:  -1.22 expect dE=-0.228E-02 dE for cont linesearch -0.768E-07
 trial: gam= 1.21105 g(F)=  0.186E-02 g(S)=  0.000E+00 ort = 0.137E-04 (trialstep = 0.403E+00)
 search vector abs. value=  0.626E-02
 bond charge predicted
       N       E                     dE             d eps       ncg     rms          rms(c)
DAV:   1    -0.646694620272E+03    0.29901E-04   -0.86927E-02  3504   0.106E+00    0.962E-02
RMM:   2    -0.646695480694E+03   -0.86042E-03   -0.90739E-03  3017   0.153E-01    0.899E-02
RMM:   3    -0.646695598151E+03   -0.11746E-03   -0.76095E-04  3074   0.436E-02    0.223E-01
RMM:   4    -0.646695396619E+03    0.20153E-03   -0.10565E-04  2019   0.187E-02    0.159E-01
RMM:   5    -0.646695279281E+03    0.11734E-03   -0.33087E-05  1915   0.161E-02    0.107E-01
RMM:   6    -0.646695283734E+03   -0.44523E-05   -0.15134E-05  1846   0.695E-03
  12 F= -.65309423E+03 E0= -.65306921E+03  d E =-.556388E-03  mag=     0.0457
 trial-energy change:   -0.000556  1 .order   -0.000657   -0.000757   -0.000556
 step:   1.5142(harm=  1.5142)  dis= 0.00903  next Energy=  -653.095098 (dE=-0.142E-02)
 bond charge predicted
       N       E                     dE             d eps       ncg     rms          rms(c)
DAV:   1    -0.646690431839E+03    0.48474E-02   -0.66269E-01  3488   0.294E+00    0.263E-01
RMM:   2    -0.646697091648E+03   -0.66598E-02   -0.69552E-02  3015   0.423E-01    0.225E-01
RMM:   3    -0.646697963161E+03   -0.87151E-03   -0.57263E-03  3489   0.120E-01    0.585E-01
RMM:   4    -0.646696169391E+03    0.17938E-02   -0.10281E-03  2991   0.533E-02    0.158E-01
RMM:   5    -0.646696210366E+03   -0.40975E-04   -0.10848E-04  2176   0.200E-02    0.234E-01
RMM:   6    -0.646695992142E+03    0.21822E-03   -0.52252E-05  1975   0.195E-02    0.179E-01
RMM:   7    -0.646695882118E+03    0.11002E-03   -0.13854E-04  2262   0.200E-02    0.107E-01
RMM:   8    -0.646696120177E+03   -0.23806E-03   -0.79033E-05  2167   0.254E-02    0.154E-01
RMM:   9    -0.646695986456E+03    0.13372E-03   -0.75141E-05  2118   0.196E-02    0.555E-02
RMM:  10    -0.646696049752E+03   -0.63295E-04   -0.13406E-05  1809   0.935E-03    0.142E-02
RMM:  11    -0.646696113790E+03   -0.64038E-04   -0.55091E-06  1755   0.772E-03    0.181E-02
RMM:  12    -0.646696141397E+03   -0.27608E-04   -0.30783E-06  1622   0.356E-03    0.454E-03
RMM:  13    -0.646696152151E+03   -0.10754E-04   -0.60547E-07   938   0.202E-03    0.672E-03
RMM:  14    -0.646696151241E+03    0.90971E-06   -0.39163E-07   956   0.187E-03
  13 F= -.65309486E+03 E0= -.65306986E+03  d E =-.118355E-02  mag=     0.0465
 curvature:  -2.52 expect dE=-0.793E-02 dE for cont linesearch -0.418E-04
 trial: gam= 1.83908 g(F)=  0.315E-02 g(S)=  0.000E+00 ort =-0.322E-03 (trialstep = 0.169E+00)
 search vector abs. value=  0.231E-01
 bond charge predicted
       N       E                     dE             d eps       ncg     rms          rms(c)
DAV:   1    -0.646696033814E+03    0.11834E-03   -0.60911E-02  3584   0.908E-01    0.865E-02
RMM:   2    -0.646696739728E+03   -0.70591E-03   -0.75111E-03  3019   0.131E-01    0.818E-02
RMM:   3    -0.646696790362E+03   -0.50634E-04   -0.47960E-04  2651   0.339E-02    0.228E-01
RMM:   4    -0.646696815402E+03   -0.25040E-04   -0.68964E-05  1997   0.188E-02    0.289E-01
RMM:   5    -0.646696570897E+03    0.24451E-03   -0.38107E-05  1941   0.139E-02    0.197E-01
RMM:   6    -0.646696394981E+03    0.17592E-03   -0.76401E-05  1966   0.125E-02    0.502E-02
RMM:   7    -0.646696635618E+03   -0.24064E-03   -0.86276E-05  2136   0.240E-02    0.173E-02
RMM:   8    -0.646696593235E+03    0.42383E-04   -0.24166E-05  1880   0.811E-03    0.613E-02
RMM:   9    -0.646696636238E+03   -0.43003E-04   -0.87040E-06  1771   0.748E-03    0.347E-02
RMM:  10    -0.646696661090E+03   -0.24851E-04   -0.29168E-06  1330   0.293E-03    0.551E-03
RMM:  11    -0.646696674472E+03   -0.13382E-04   -0.17298E-06  1685   0.369E-03    0.230E-02
RMM:  12    -0.646696665436E+03    0.90356E-05   -0.10504E-06  1622   0.350E-03
  14 F= -.65309527E+03 E0= -.65307030E+03  d E =-.410483E-03  mag=     0.0464
 ZBRENT: can't locate minimum, use default step
 trial-energy change:   -0.000410  1 .order   -0.000406   -0.000432   -0.000380
 step:   0.6762(harm=  1.4060)  dis= 0.00896  next Energy=  -653.096656 (dE=-0.180E-02)
 bond charge predicted
       N       E                     dE             d eps       ncg     rms          rms(c)
DAV:   1    -0.646692204841E+03    0.44696E-02   -0.54807E-01  3568   0.272E+00    0.257E-01
RMM:   2    -0.646698675909E+03   -0.64711E-02   -0.67599E-02  3015   0.392E-01    0.185E-01
RMM:   3    -0.646699025066E+03   -0.34916E-03   -0.43246E-03  3486   0.102E-01    0.582E-01
RMM:   4    -0.646699100617E+03   -0.75551E-04   -0.34274E-04  2613   0.384E-02    0.716E-01
RMM:   5    -0.646696987007E+03    0.21136E-02   -0.49058E-04  2686   0.474E-02    0.445E-01
RMM:   6    -0.646697376989E+03   -0.38998E-03   -0.85140E-05  2046   0.205E-02    0.309E-01
RMM:   7    -0.646697464433E+03   -0.87444E-04   -0.16445E-04  2377   0.232E-02    0.123E-01
RMM:   8    -0.646697759026E+03   -0.29459E-03   -0.46135E-05  1936   0.208E-02    0.423E-02
RMM:   9    -0.646697850067E+03   -0.91041E-04   -0.16738E-05  1833   0.128E-02    0.172E-02
RMM:  10    -0.646697884439E+03   -0.34372E-04   -0.56725E-06  1766   0.658E-03    0.903E-03
RMM:  11    -0.646697908573E+03   -0.24134E-04   -0.15263E-06  1318   0.327E-03    0.505E-03
RMM:  12    -0.646697915934E+03   -0.73607E-05   -0.54078E-07  1009   0.223E-03
  15 F= -.65309618E+03 E0= -.65307128E+03  d E =-.132275E-02  mag=     0.0450
 curvature:  -4.14 expect dE=-0.112E-01 dE for cont linesearch -0.317E-03
 ZBRENT: increasing intervall
 opt :   1.6904  next Energy=  -653.096594 (dE=-0.174E-02)
 bond charge predicted
       N       E                     dE             d eps       ncg     rms          rms(c)
DAV:   1    -0.646676212691E+03    0.21696E-01   -0.21963E+00  3544   0.545E+00    0.516E-01
RMM:   2    -0.646702295808E+03   -0.26083E-01   -0.27178E-01  3006   0.784E-01    0.310E-01
RMM:   3    -0.646702495580E+03   -0.19977E-03   -0.16652E-02  3523   0.202E-01    0.974E-01
RMM:   4    -0.646702373377E+03    0.12220E-03   -0.11694E-03  3218   0.637E-02    0.115E+00
RMM:   5    -0.646696678697E+03    0.56947E-02   -0.13554E-03  2948   0.784E-02    0.666E-01
RMM:   6    -0.646697706842E+03   -0.10281E-02   -0.30909E-04  2515   0.363E-02    0.330E-01
RMM:   7    -0.646698219364E+03   -0.51252E-03   -0.51820E-04  2896   0.447E-02    0.133E-01
RMM:   8    -0.646698963258E+03   -0.74389E-03   -0.22210E-04  2673   0.448E-02    0.285E-01
RMM:   9    -0.646698888365E+03    0.74893E-04   -0.12712E-04  2264   0.296E-02    0.244E-01
RMM:  10    -0.646698894126E+03   -0.57607E-05   -0.46974E-05  1990   0.110E-02
  16 F= -.65309636E+03 E0= -.65307165E+03  d E =-.150777E-02  mag=     0.0382
 curvature:  -5.41 expect dE=-0.329E-01 dE for cont linesearch -0.503E-04
 trial: gam= 1.52565 g(F)=  0.608E-02 g(S)=  0.000E+00 ort =-0.463E-03 (trialstep = 0.187E+00)
 search vector abs. value=  0.585E-01
 bond charge predicted
       N       E                     dE             d eps       ncg     rms          rms(c)
DAV:   1    -0.646697830882E+03    0.10575E-02   -0.19916E-01  3568   0.166E+00    0.178E-01
RMM:   2    -0.646700722049E+03   -0.28912E-02   -0.26880E-02  3002   0.242E-01    0.242E-01
RMM:   3    -0.646701022239E+03   -0.30019E-03   -0.16612E-03  3369   0.619E-02    0.505E-01
RMM:   4    -0.646700910190E+03    0.11205E-03   -0.50758E-04  2645   0.458E-02    0.603E-01
RMM:   5    -0.646699039276E+03    0.18709E-02   -0.57143E-04  2630   0.409E-02    0.199E-01
RMM:   6    -0.646699755572E+03   -0.71630E-03   -0.15238E-04  2183   0.286E-02    0.117E-01
RMM:   7    -0.646700161771E+03   -0.40620E-03   -0.84905E-05  2150   0.314E-02    0.155E-01
RMM:   8    -0.646700110405E+03    0.51366E-04   -0.12184E-04  2242   0.220E-02    0.414E-02
RMM:   9    -0.646700138749E+03   -0.28345E-04   -0.13771E-04  2187   0.182E-02    0.258E-01
RMM:  10    -0.646700189147E+03   -0.50398E-04   -0.71321E-05  2131   0.270E-02    0.267E-01
RMM:  11    -0.646700080906E+03    0.10824E-03   -0.40331E-05  1964   0.120E-02    0.161E-01
RMM:  12    -0.646700103642E+03   -0.22737E-04   -0.22539E-05  1853   0.876E-03    0.473E-02
RMM:  13    -0.646700242397E+03   -0.13875E-03   -0.11709E-05  1762   0.113E-02    0.132E-02
RMM:  14    -0.646700300151E+03   -0.57754E-04   -0.53325E-06  1734   0.778E-03    0.235E-02
RMM:  15    -0.646700302679E+03   -0.25276E-05   -0.18427E-06  1608   0.370E-03
  17 F= -.65309753E+03 E0= -.65307283E+03  d E =-.116222E-02  mag=     0.0403
 ZBRENT: can't locate minimum, use default step
 trial-energy change:   -0.001162  1 .order   -0.000919   -0.001005   -0.000832
 step:   0.7486(harm=  1.0892)  dis= 0.01709  next Energy=  -653.099289 (dE=-0.292E-02)
 bond charge predicted
       N       E                     dE             d eps       ncg     rms          rms(c)
DAV:   1    -0.646682578754E+03    0.17721E-01   -0.17949E+00  3584   0.498E+00    0.476E-01
RMM:   2    -0.646705495208E+03   -0.22916E-01   -0.24027E-01  3004   0.724E-01    0.210E-01
RMM:   3    -0.646704227281E+03    0.12679E-02   -0.13895E-02  3546   0.183E-01    0.506E-01
RMM:   4    -0.646702983623E+03    0.12437E-02   -0.13412E-03  3233   0.572E-02    0.199E-01
RMM:   5    -0.646702907507E+03    0.76116E-04   -0.18055E-04  2360   0.235E-02    0.163E-01
RMM:   6    -0.646703010777E+03   -0.10327E-03   -0.60441E-05  1936   0.129E-02    0.279E-01
RMM:   7    -0.646702673440E+03    0.33734E-03   -0.20621E-04  2623   0.337E-02    0.202E-01
RMM:   8    -0.646702591891E+03    0.81550E-04   -0.18058E-04  2447   0.220E-02    0.428E-02
RMM:   9    -0.646702872893E+03   -0.28100E-03   -0.45274E-05  1942   0.205E-02    0.101E-01
RMM:  10    -0.646702876381E+03   -0.34883E-05   -0.31684E-05  1924   0.154E-02
  18 F= -.65309929E+03 E0= -.65307479E+03  d E =-.292160E-02  mag=     0.0352
 curvature:  -5.09 expect dE=-0.188E-01 dE for cont linesearch -0.345E-03
 ZBRENT: increasing intervall
 opt :   1.8714  next Energy=  -653.098764 (dE=-0.240E-02)
 bond charge predicted
       N       E                     dE             d eps       ncg     rms          rms(c)
DAV:   1    -0.646622610808E+03    0.80262E-01   -0.72404E+00  3528   0.996E+00    0.975E-01
RMM:   2    -0.646714908372E+03   -0.92298E-01   -0.96195E-01  3000   0.146E+00    0.502E-01
RMM:   3    -0.646707799240E+03    0.71091E-02   -0.51788E-02  3602   0.356E-01    0.113E+00
RMM:   4    -0.646705931273E+03    0.18680E-02   -0.38205E-03  3219   0.115E-01    0.122E+00
RMM:   5    -0.646703583368E+03    0.23479E-02   -0.87920E-04  3049   0.460E-02    0.105E+00
RMM:   6    -0.646702706520E+03    0.87685E-03   -0.45439E-04  2632   0.280E-02    0.787E-01
RMM:   7    -0.646701870869E+03    0.83565E-03   -0.78843E-04  2847   0.465E-02    0.374E-01
RMM:   8    -0.646702936384E+03   -0.10655E-02   -0.31814E-03  2951   0.110E-01    0.609E-01
RMM:   9    -0.646702751414E+03    0.18497E-03   -0.59817E-04  2942   0.488E-02    0.714E-01
RMM:  10    -0.646702096702E+03    0.65471E-03   -0.21212E-04  2464   0.290E-02    0.500E-01
RMM:  11    -0.646702596944E+03   -0.50024E-03   -0.48983E-04  2651   0.302E-02    0.656E-02
RMM:  12    -0.646704168115E+03   -0.15712E-02   -0.20469E-04  2500   0.458E-02    0.212E-01
RMM:  13    -0.646704030450E+03    0.13767E-03   -0.90603E-05  2128   0.306E-02    0.206E-01
RMM:  14    -0.646703740221E+03    0.29023E-03   -0.72001E-05  2057   0.163E-02    0.604E-02
RMM:  15    -0.646704002502E+03   -0.26228E-03   -0.18292E-05  1835   0.126E-02    0.101E-02
RMM:  16    -0.646704113863E+03   -0.11136E-03   -0.87867E-06  1760   0.864E-03    0.395E-03
RMM:  17    -0.646704148730E+03   -0.34866E-04   -0.29103E-06  1249   0.261E-03    0.129E-02
RMM:  18    -0.646704155904E+03   -0.71744E-05   -0.91332E-07   954   0.186E-03
  19 F= -.65309866E+03 E0= -.65307456E+03  d E =-.229072E-02  mag=     0.0274
 curvature:   7.70 expect dE= 0.125E+00 dE for cont linesearch  0.154E-02
 ZBRENT: bracketing found
 ZBRENT: interpolating
 opt :   1.1614  next Energy=  -653.099697 (dE=-0.333E-02)
 bond charge predicted
       N       E                     dE             d eps       ncg     rms          rms(c)
DAV:   1    -0.646671589179E+03    0.32560E-01   -0.28786E+00  3552   0.631E+00    0.606E-01
RMM:   2    -0.646712138415E+03   -0.40549E-01   -0.38921E-01  3008   0.922E-01    0.879E-01
RMM:   3    -0.646710747050E+03    0.13914E-02   -0.33214E-02  3427   0.272E-01    0.109E+00
RMM:   4    -0.646705302125E+03    0.54449E-02   -0.43438E-03  3054   0.109E-01    0.696E-01
RMM:   5    -0.646703404093E+03    0.18980E-02   -0.73747E-04  2906   0.665E-02    0.589E-01
RMM:   6    -0.646703086584E+03    0.31751E-03   -0.23132E-04  2439   0.206E-02    0.334E-01
RMM:   7    -0.646703603308E+03   -0.51672E-03   -0.21254E-04  2680   0.326E-02    0.162E-01
RMM:   8    -0.646703715581E+03   -0.11227E-03   -0.76850E-04  2938   0.549E-02    0.233E-01
RMM:   9    -0.646703759618E+03   -0.44037E-04   -0.13822E-04  2369   0.237E-02    0.195E-01
RMM:  10    -0.646703838966E+03   -0.79348E-04   -0.66795E-05  2063   0.132E-02    0.345E-02
RMM:  11    -0.646704045845E+03   -0.20688E-03   -0.35871E-05  1904   0.154E-02    0.102E-01
RMM:  12    -0.646704048807E+03   -0.29615E-05   -0.26386E-05  1898   0.160E-02
  20 F= -.65309979E+03 E0= -.65307550E+03  d E =-.343022E-02  mag=     0.0309
 curvature:  -2.05 expect dE=-0.125E-01 dE for cont linesearch -0.133E-05
 trial: gam= 0.84999 g(F)=  0.612E-02 g(S)=  0.000E+00 ort = 0.195E-03 (trialstep = 0.382E+00)
 search vector abs. value=  0.487E-01
 bond charge predicted
       N       E                     dE             d eps       ncg     rms          rms(c)
DAV:   1    -0.646697897661E+03    0.61482E-02   -0.72393E-01  3600   0.320E+00    0.324E-01
RMM:   2    -0.646708328202E+03   -0.10431E-01   -0.10518E-01  2993   0.470E-01    0.375E-01
RMM:   3    -0.646709374758E+03   -0.10466E-02   -0.69646E-03  3529   0.125E-01    0.842E-01
RMM:   4    -0.646709415414E+03   -0.40655E-04   -0.88003E-04  2943   0.607E-02    0.101E+00
RMM:   5    -0.646707390174E+03    0.20252E-02   -0.30450E-04  2605   0.338E-02    0.859E-01
RMM:   6    -0.646702230335E+03    0.51598E-02   -0.22512E-03  2909   0.712E-02    0.285E-01
RMM:   7    -0.646706725842E+03   -0.44955E-02   -0.12581E-03  2920   0.103E-01    0.288E-01
RMM:   8    -0.646705412126E+03    0.13137E-02   -0.13308E-03  2931   0.590E-02    0.360E-01
RMM:   9    -0.646706671124E+03   -0.12590E-02   -0.28352E-04  2668   0.523E-02    0.616E-01
RMM:  10    -0.646705607655E+03    0.10635E-02   -0.48317E-04  2814   0.496E-02    0.342E-01
RMM:  11    -0.646706110614E+03   -0.50296E-03   -0.18729E-04  2285   0.213E-02    0.367E-02
RMM:  12    -0.646706865815E+03   -0.75520E-03   -0.96313E-05  2127   0.311E-02    0.184E-01
RMM:  13    -0.646706857717E+03    0.80984E-05   -0.53697E-05  1997   0.245E-02
  21 F= -.65310196E+03 E0= -.65307771E+03  d E =-.216256E-02  mag=     0.0335
 ZBRENT: can't locate minimum, use default step
 trial-energy change:   -0.002163  1 .order   -0.002140   -0.002399   -0.001880
 step:   1.5280(harm=  1.7650)  dis= 0.03351  next Energy=  -653.105338 (dE=-0.554E-02)
 bond charge predicted
       N       E                     dE             d eps       ncg     rms          rms(c)
DAV:   1    -0.646632517471E+03    0.74348E-01   -0.65876E+00  3592   0.958E+00    0.952E-01
RMM:   2    -0.646726790112E+03   -0.94273E-01   -0.95011E-01  2992   0.143E+00    0.913E-01
RMM:   3    -0.646734251126E+03   -0.74610E-02   -0.77408E-02  3492   0.427E-01    0.191E+00
RMM:   4    -0.646712835032E+03    0.21416E-01   -0.14525E-02  3075   0.190E-01    0.343E-01
RMM:   5    -0.646712473215E+03    0.36182E-03   -0.17749E-03  3336   0.647E-02    0.261E-01
RMM:   6    -0.646712521458E+03   -0.48242E-04   -0.57327E-04  2945   0.380E-02    0.335E-01
RMM:   7    -0.646712646143E+03   -0.12469E-03   -0.11565E-04  2083   0.239E-02    0.457E-01
RMM:   8    -0.646711917679E+03    0.72846E-03   -0.46371E-04  2900   0.417E-02    0.524E-01
RMM:   9    -0.646711725586E+03    0.19209E-03   -0.12241E-04  2219   0.203E-02    0.517E-01
RMM:  10    -0.646711743295E+03   -0.17709E-04   -0.46424E-05  1991   0.117E-02    0.451E-01
RMM:  11    -0.646711969814E+03   -0.22652E-03   -0.25525E-05  1858   0.872E-03    0.385E-01
RMM:  12    -0.646712196840E+03   -0.22703E-03   -0.13641E-05  1808   0.769E-03    0.340E-01
RMM:  13    -0.646712355876E+03   -0.15904E-03   -0.84523E-06  1776   0.616E-03    0.310E-01
RMM:  14    -0.646712418026E+03   -0.62149E-04   -0.65244E-06  1754   0.427E-03    0.285E-01
RMM:  15    -0.646712437262E+03   -0.19236E-04   -0.29264E-06  1661   0.352E-03    0.260E-01
RMM:  16    -0.646712447266E+03   -0.10003E-04   -0.27397E-06  1636   0.336E-03    0.231E-01
RMM:  17    -0.646712468213E+03   -0.20947E-04   -0.24831E-06  1648   0.349E-03    0.205E-01
RMM:  18    -0.646712466395E+03    0.18176E-05   -0.49180E-06  1730   0.393E-03
  22 F= -.65310546E+03 E0= -.65308173E+03  d E =-.566387E-02  mag=     0.0171
 curvature:  -6.64 expect dE=-0.540E-01 dE for cont linesearch -0.194E-03
 trial: gam= 1.13144 g(F)=  0.812E-02 g(S)=  0.000E+00 ort = 0.119E-02 (trialstep = 0.407E+00)
 search vector abs. value=  0.732E-01
 bond charge predicted
       N       E                     dE             d eps       ncg     rms          rms(c)
DAV:   1    -0.646703099009E+03    0.93692E-02   -0.12851E+00  3648   0.425E+00    0.431E-01
RMM:   2    -0.646721849320E+03   -0.18750E-01   -0.17200E-01  3002   0.622E-01    0.881E-01
RMM:   3    -0.646720705413E+03    0.11439E-02   -0.82992E-03  3564   0.156E-01    0.122E+00
RMM:   4    -0.646716222433E+03    0.44830E-02   -0.36819E-03  3026   0.110E-01    0.112E+00
RMM:   5    -0.646712724020E+03    0.34984E-02   -0.19225E-03  2969   0.735E-02    0.513E-01
RMM:   6    -0.646715026893E+03   -0.23029E-02   -0.44520E-04  2734   0.468E-02    0.157E-01
RMM:   7    -0.646716697029E+03   -0.16701E-02   -0.25863E-04  2646   0.503E-02    0.166E-01
RMM:   8    -0.646716446727E+03    0.25030E-03   -0.53748E-04  2788   0.478E-02    0.166E-01
RMM:   9    -0.646716782723E+03   -0.33600E-03   -0.12252E-04  2281   0.284E-02    0.226E-01
RMM:  10    -0.646716717829E+03    0.64894E-04   -0.67967E-05  2080   0.173E-02    0.128E-01
RMM:  11    -0.646716783826E+03   -0.65997E-04   -0.25805E-05  1869   0.904E-03    0.266E-02
RMM:  12    -0.646716863566E+03   -0.79740E-04   -0.17094E-05  1819   0.103E-02    0.496E-02
RMM:  13    -0.646716922460E+03   -0.58894E-04   -0.77567E-06  1761   0.882E-03    0.586E-02
RMM:  14    -0.646716921771E+03    0.68957E-06   -0.50527E-06  1727   0.449E-03
  23 F= -.65310894E+03 E0= -.65308518E+03  d E =-.348513E-02  mag=     0.0194
 trial-energy change:   -0.003485  1 .order   -0.003354   -0.003853   -0.002855
 step:   0.8474(harm=  1.5697)  dis= 0.02198  next Energy=  -653.110656 (dE=-0.520E-02)
 bond charge predicted
       N       E                     dE             d eps       ncg     rms          rms(c)
DAV:   1    -0.646704378196E+03    0.12544E-01   -0.15069E+00  3656   0.460E+00    0.409E-01
RMM:   2    -0.646723928244E+03   -0.19550E-01   -0.20039E-01  3005   0.672E-01    0.520E-01
RMM:   3    -0.646723722115E+03    0.20613E-03   -0.12644E-02  3503   0.185E-01    0.921E-01
RMM:   4    -0.646723641762E+03    0.80354E-04   -0.12996E-03  3256   0.572E-02    0.108E+00
RMM:   5    -0.646716553041E+03    0.70887E-02   -0.14481E-03  2933   0.840E-02    0.658E-01
RMM:   6    -0.646717992791E+03   -0.14398E-02   -0.53897E-04  2698   0.376E-02    0.184E-01
RMM:   7    -0.646720113177E+03   -0.21204E-02   -0.29312E-04  2744   0.513E-02    0.149E-01
RMM:   8    -0.646720084124E+03    0.29053E-04   -0.45858E-04  2829   0.480E-02    0.104E-01
RMM:   9    -0.646720360293E+03   -0.27617E-03   -0.81694E-05  2057   0.206E-02    0.935E-02
RMM:  10    -0.646720445632E+03   -0.85339E-04   -0.30215E-05  1902   0.971E-03    0.160E-02
RMM:  11    -0.646720525147E+03   -0.79515E-04   -0.11892E-05  1783   0.790E-03    0.471E-02
RMM:  12    -0.646720525641E+03   -0.49396E-06   -0.61545E-06  1757   0.679E-03
  24 F= -.65311149E+03 E0= -.65308779E+03  d E =-.602874E-02  mag=     0.0180
 curvature:  -3.72 expect dE=-0.180E-01 dE for cont linesearch -0.894E-03
 ZBRENT: increasing intervall
 opt :   1.7286  next Energy=  -653.112690 (dE=-0.723E-02)
 bond charge predicted
       N       E                     dE             d eps       ncg     rms          rms(c)
DAV:   1    -0.646658755847E+03    0.61769E-01   -0.60726E+00  3608   0.921E+00    0.829E-01
RMM:   2    -0.646740407119E+03   -0.81651E-01   -0.81328E-01  3003   0.137E+00    0.115E+00
RMM:   3    -0.646734811263E+03    0.55959E-02   -0.54840E-02  3498   0.383E-01    0.152E+00
RMM:   4    -0.646733875496E+03    0.93577E-03   -0.64315E-03  3280   0.122E-01    0.158E+00
RMM:   5    -0.646712759596E+03    0.21116E-01   -0.50562E-03  2948   0.159E-01    0.988E-01
RMM:   6    -0.646716228182E+03   -0.34686E-02   -0.27535E-03  2944   0.745E-02    0.390E-01
RMM:   7    -0.646723817871E+03   -0.75897E-02   -0.13629E-03  2940   0.113E-01    0.473E-01
RMM:   8    -0.646720758209E+03    0.30597E-02   -0.24111E-03  2947   0.902E-02    0.312E-01
RMM:   9    -0.646723147076E+03   -0.23889E-02   -0.64835E-04  2898   0.652E-02    0.486E-01
RMM:  10    -0.646722678108E+03    0.46897E-03   -0.33820E-04  2698   0.398E-02    0.285E-01
RMM:  11    -0.646723104361E+03   -0.42625E-03   -0.17879E-04  2264   0.187E-02    0.415E-02
RMM:  12    -0.646723578243E+03   -0.47388E-03   -0.96911E-05  2035   0.229E-02    0.159E-01
RMM:  13    -0.646723729542E+03   -0.15130E-03   -0.61108E-05  2026   0.222E-02    0.159E-01
RMM:  14    -0.646723684682E+03    0.44860E-04   -0.11551E-05  1814   0.682E-03    0.129E-01
RMM:  15    -0.646723696087E+03   -0.11405E-04   -0.19327E-06  1321   0.315E-03    0.112E-01
RMM:  16    -0.646723699476E+03   -0.33888E-05   -0.45455E-06  1635   0.386E-03
  25 F= -.65311258E+03 E0= -.65308895E+03  d E =-.711726E-02  mag=     0.0088
 curvature:  -5.01 expect dE=-0.874E-01 dE for cont linesearch -0.244E-03
 ZBRENT: bracketing found
 ZBRENT: interpolating
 opt :   1.4548  next Energy=  -653.112835 (dE=-0.738E-02)
 bond charge predicted
       N       E                     dE             d eps       ncg     rms          rms(c)
DAV:   1    -0.646717106847E+03    0.65892E-02   -0.57898E-01  3632   0.287E+00    0.253E-01
RMM:   2    -0.646724281271E+03   -0.71744E-02   -0.76046E-02  3003   0.413E-01    0.242E-01
RMM:   3    -0.646724381228E+03   -0.99957E-04   -0.37523E-03  3513   0.103E-01    0.638E-01
RMM:   4    -0.646723794993E+03    0.58624E-03   -0.11125E-03  2904   0.658E-02    0.709E-01
RMM:   5    -0.646722152976E+03    0.16420E-02   -0.78728E-04  2693   0.429E-02    0.232E-01
RMM:   6    -0.646722863021E+03   -0.71004E-03   -0.18196E-04  2265   0.284E-02    0.113E-01
RMM:   7    -0.646723350508E+03   -0.48749E-03   -0.13473E-04  2317   0.321E-02    0.107E-01
RMM:   8    -0.646722979383E+03    0.37112E-03   -0.23911E-04  2538   0.253E-02    0.119E-01
RMM:   9    -0.646723186479E+03   -0.20710E-03   -0.52162E-05  1965   0.190E-02    0.156E-01
RMM:  10    -0.646723255030E+03   -0.68552E-04   -0.31822E-05  1914   0.111E-02    0.836E-02
RMM:  11    -0.646723316185E+03   -0.61154E-04   -0.21420E-05  1865   0.698E-03    0.112E-02
RMM:  12    -0.646723393738E+03   -0.77553E-04   -0.71382E-06  1761   0.805E-03    0.415E-02
RMM:  13    -0.646723393290E+03    0.44783E-06   -0.39871E-06  1741   0.584E-03
  26 F= -.65311291E+03 E0= -.65308933E+03  d E =-.744861E-02  mag=     0.0116
 curvature:  -5.30 expect dE=-0.629E-01 dE for cont linesearch -0.642E-05
 trial: gam= 1.56713 g(F)=  0.119E-01 g(S)=  0.000E+00 ort = 0.298E-03 (trialstep = 0.234E+00)
 search vector abs. value=  0.192E+00
 bond charge predicted
       N       E                     dE             d eps       ncg     rms          rms(c)
DAV:   1    -0.646714403895E+03    0.89898E-02   -0.11254E+00  3648   0.399E+00    0.369E-01
RMM:   2    -0.646729498483E+03   -0.15095E-01   -0.15359E-01  3010   0.585E-01    0.526E-01
RMM:   3    -0.646729071378E+03    0.42710E-03   -0.93924E-03  3506   0.158E-01    0.854E-01
RMM:   4    -0.646728881060E+03    0.19032E-03   -0.10223E-03  3035   0.527E-02    0.999E-01
RMM:   5    -0.646723524715E+03    0.53563E-02   -0.89775E-04  2909   0.609E-02    0.741E-01
RMM:   6    -0.646724091089E+03   -0.56637E-03   -0.29243E-04  2639   0.285E-02    0.488E-01
RMM:   7    -0.646725408637E+03   -0.13175E-02   -0.16723E-04  2238   0.276E-02    0.310E-01
RMM:   8    -0.646726156403E+03   -0.74777E-03   -0.12194E-04  2197   0.242E-02    0.179E-01
RMM:   9    -0.646726326987E+03   -0.17058E-03   -0.77598E-05  2001   0.185E-02    0.826E-02
RMM:  10    -0.646726516944E+03   -0.18996E-03   -0.22990E-05  1854   0.122E-02    0.306E-02
RMM:  11    -0.646726614562E+03   -0.97618E-04   -0.11875E-05  1788   0.932E-03    0.107E-02
RMM:  12    -0.646726683222E+03   -0.68660E-04   -0.59111E-06  1762   0.489E-03    0.689E-03
RMM:  13    -0.646726725372E+03   -0.42150E-04   -0.23406E-06  1201   0.262E-03    0.667E-03
RMM:  14    -0.646726741467E+03   -0.16095E-04   -0.97631E-07   925   0.191E-03    0.630E-03
RMM:  15    -0.646726745608E+03   -0.41416E-05   -0.48682E-07   747   0.163E-03
  27 F= -.65311541E+03 E0= -.65309185E+03  d E =-.249857E-02  mag=     0.0090
 trial-energy change:   -0.002499  1 .order   -0.002510   -0.002890   -0.002131
 step:   0.8921(harm=  0.8921)  dis= 0.03532  next Energy=  -653.118409 (dE=-0.550E-02)
 bond charge predicted
       N       E                     dE             d eps       ncg     rms          rms(c)
DAV:   1    -0.646633881738E+03    0.92860E-01   -0.89942E+00  3592   0.112E+01    0.105E+00
RMM:   2    -0.646763629240E+03   -0.12975E+00   -0.12497E+00  3012   0.169E+00    0.175E+00
RMM:   3    -0.646744900882E+03    0.18728E-01   -0.81969E-02  3485   0.471E-01    0.165E+00
RMM:   4    -0.646747349293E+03   -0.24484E-02   -0.85834E-03  3394   0.138E-01    0.174E+00
RMM:   5    -0.646711250141E+03    0.36099E-01   -0.10303E-02  2950   0.210E-01    0.104E+00
RMM:   6    -0.646720906389E+03   -0.96562E-02   -0.59575E-03  2958   0.110E-01    0.816E-01
RMM:   7    -0.646732425052E+03   -0.11519E-01   -0.29761E-03  2943   0.162E-01    0.842E-01
RMM:   8    -0.646725191823E+03    0.72332E-02   -0.42947E-03  2947   0.115E-01    0.333E-01
RMM:   9    -0.646731702711E+03   -0.65109E-02   -0.14041E-03  2939   0.909E-02    0.699E-01
RMM:  10    -0.646730020747E+03    0.16820E-02   -0.80981E-04  2922   0.680E-02    0.492E-01
RMM:  11    -0.646730210235E+03   -0.18949E-03   -0.39038E-04  2548   0.260E-02    0.165E-01
RMM:  12    -0.646730909028E+03   -0.69879E-03   -0.22335E-04  2327   0.286E-02    0.144E-01
RMM:  13    -0.646731659370E+03   -0.75034E-03   -0.11186E-04  2184   0.311E-02    0.204E-01
RMM:  14    -0.646731676793E+03   -0.17423E-04   -0.49049E-05  1973   0.148E-02    0.153E-01
RMM:  15    -0.646731726609E+03   -0.49816E-04   -0.12423E-05  1773   0.563E-03    0.100E-01
RMM:  16    -0.646731793371E+03   -0.66762E-04   -0.73477E-06  1708   0.615E-03    0.105E-01
RMM:  17    -0.646731818160E+03   -0.24788E-04   -0.81764E-06  1711   0.458E-03    0.690E-02
RMM:  18    -0.646731843567E+03   -0.25408E-04   -0.97614E-06  1752   0.470E-03    0.207E-02
RMM:  19    -0.646731880873E+03   -0.37305E-04   -0.36597E-06  1724   0.436E-03    0.950E-03
RMM:  20    -0.646731903822E+03   -0.22949E-04   -0.18007E-06  1576   0.338E-03    0.154E-02
RMM:  21    -0.646731907351E+03   -0.35285E-05   -0.78286E-07   997   0.190E-03
  28 F= -.65311835E+03 E0= -.65309483E+03  d E =-.543986E-02  mag=     0.0037
 curvature:  -6.96 expect dE=-0.431E-01 dE for cont linesearch -0.587E-05
 trial: gam= 0.17987 g(F)=  0.619E-02 g(S)=  0.000E+00 ort =-0.403E-03 (trialstep = 0.366E+00)
 search vector abs. value=  0.123E-01
 bond charge predicted
       N       E                     dE             d eps       ncg     rms          rms(c)
DAV:   1    -0.646732065155E+03   -0.16133E-03   -0.15925E-01  3496   0.147E+00    0.158E-01
RMM:   2    -0.646734731072E+03   -0.26659E-02   -0.23003E-02  3085   0.236E-01    0.381E-01
RMM:   3    -0.646733940335E+03    0.79074E-03   -0.19088E-03  3296   0.696E-02    0.329E-01
RMM:   4    -0.646733849840E+03    0.90495E-04   -0.12132E-04  2225   0.215E-02    0.384E-01
RMM:   5    -0.646733161282E+03    0.68856E-03   -0.95669E-05  2216   0.212E-02    0.322E-01
RMM:   6    -0.646733171263E+03   -0.99811E-05   -0.46732E-05  1924   0.130E-02
  29 F= -.65311950E+03 E0= -.65309625E+03  d E =-.115160E-02  mag=    -0.0059
 trial-energy change:   -0.001152  1 .order   -0.001831   -0.002237   -0.001424
 step:   1.0061(harm=  1.0061)  dis= 0.00500  next Energy=  -653.121424 (dE=-0.308E-02)
 bond charge predicted
       N       E                     dE             d eps       ncg     rms          rms(c)
DAV:   1    -0.646728971696E+03    0.41896E-02   -0.48448E-01  3496   0.258E+00    0.388E-01
RMM:   2    -0.646739317863E+03   -0.10346E-01   -0.71840E-02  3063   0.414E-01    0.982E-01
RMM:   3    -0.646738858517E+03    0.45935E-03   -0.53056E-03  3335   0.122E-01    0.122E+00
RMM:   4    -0.646737732953E+03    0.11256E-02   -0.43970E-04  2716   0.335E-02    0.127E+00
RMM:   5    -0.646729700107E+03    0.80328E-02   -0.21188E-03  2934   0.736E-02    0.984E-01
RMM:   6    -0.646730331963E+03   -0.63186E-03   -0.56743E-04  2914   0.430E-02    0.844E-01
RMM:   7    -0.646730609289E+03   -0.27733E-03   -0.30802E-04  2745   0.298E-02    0.695E-01
RMM:   8    -0.646731645597E+03   -0.10363E-02   -0.15029E-04  2340   0.229E-02    0.604E-01
RMM:   9    -0.646732752003E+03   -0.11064E-02   -0.80738E-05  2073   0.163E-02    0.531E-01
RMM:  10    -0.646733539732E+03   -0.78773E-03   -0.56516E-05  2000   0.122E-02    0.478E-01
RMM:  11    -0.646733884130E+03   -0.34440E-03   -0.24230E-05  1851   0.860E-03    0.441E-01
RMM:  12    -0.646733997561E+03   -0.11343E-03   -0.22813E-05  1872   0.766E-03    0.403E-01
RMM:  13    -0.646734065857E+03   -0.68296E-04   -0.12426E-05  1822   0.608E-03    0.368E-01
RMM:  14    -0.646734182882E+03   -0.11702E-03   -0.59283E-06  1764   0.488E-03    0.341E-01
RMM:  15    -0.646734261929E+03   -0.79047E-04   -0.35945E-06  1735   0.392E-03    0.323E-01
RMM:  16    -0.646734313825E+03   -0.51897E-04   -0.10727E-06  1292   0.261E-03    0.316E-01
RMM:  17    -0.646734315697E+03   -0.18713E-05   -0.90958E-06  1801   0.503E-03
  30 F= -.65312044E+03 E0= -.65309734E+03  d E =-.209505E-02  mag=    -0.0192
 curvature:  -1.01 expect dE=-0.502E-02 dE for cont linesearch -0.621E-04
 trial: gam= 0.93136 g(F)=  0.498E-02 g(S)=  0.000E+00 ort =-0.869E-03 (trialstep = 0.433E+00)
 search vector abs. value=  0.140E-01
 bond charge predicted
       N       E                     dE             d eps       ncg     rms          rms(c)
DAV:   1    -0.646733014050E+03    0.12998E-02   -0.25191E-01  3520   0.180E+00    0.363E-01
RMM:   2    -0.646741259449E+03   -0.82454E-02   -0.37583E-02  3096   0.291E-01    0.101E+00
RMM:   3    -0.646739950553E+03    0.13089E-02   -0.46217E-03  3090   0.122E-01    0.120E+00
RMM:   4    -0.646730091551E+03    0.98590E-02   -0.34573E-03  2980   0.919E-02    0.416E-01
RMM:   5    -0.646731801523E+03   -0.17100E-02   -0.13825E-03  2918   0.611E-02    0.352E-01
RMM:   6    -0.646735106333E+03   -0.33048E-02   -0.82213E-04  2891   0.744E-02    0.294E-01
RMM:   7    -0.646735522203E+03   -0.41587E-03   -0.47879E-04  2712   0.342E-02    0.566E-02
RMM:   8    -0.646736131285E+03   -0.60908E-03   -0.18712E-04  2321   0.248E-02    0.225E-01
RMM:   9    -0.646736087356E+03    0.43929E-04   -0.10252E-04  2195   0.274E-02    0.195E-01
RMM:  10    -0.646735751010E+03    0.33635E-03   -0.81489E-05  2099   0.135E-02    0.670E-02
RMM:  11    -0.646735914012E+03   -0.16300E-03   -0.23625E-05  1847   0.107E-02    0.267E-02
RMM:  12    -0.646736134683E+03   -0.22067E-03   -0.17293E-05  1819   0.105E-02    0.183E-02
RMM:  13    -0.646736178175E+03   -0.43491E-04   -0.45304E-06  1656   0.361E-03    0.341E-03
RMM:  14    -0.646736193836E+03   -0.15661E-04   -0.87732E-07   930   0.201E-03    0.108E-02
RMM:  15    -0.646736194270E+03   -0.43371E-06   -0.30860E-07   907   0.172E-03
  31 F= -.65312226E+03 E0= -.65309857E+03  d E =-.182140E-02  mag=     0.0023
 trial-energy change:   -0.001821  1 .order   -0.001378   -0.001804   -0.000953
 step:   0.5329(harm=  0.9176)  dis= 0.00300  next Energy=  -653.122379 (dE=-0.194E-02)
 bond charge predicted
       N       E                     dE             d eps       ncg     rms          rms(c)
DAV:   1    -0.646736258184E+03   -0.64348E-04   -0.13453E-02  3536   0.416E-01    0.484E-02
RMM:   2    -0.646736485986E+03   -0.22780E-03   -0.20017E-03  3151   0.667E-02    0.125E-01
RMM:   3    -0.646736398340E+03    0.87646E-04   -0.17096E-04  2045   0.203E-02    0.105E-01
RMM:   4    -0.646736376419E+03    0.21921E-04   -0.12366E-05  1851   0.817E-03    0.114E-01
RMM:   5    -0.646736323970E+03    0.52449E-04   -0.11256E-05  1811   0.615E-03    0.138E-01
RMM:   6    -0.646736285553E+03    0.38417E-04   -0.17497E-05  1846   0.836E-03    0.914E-02
RMM:   7    -0.646736261623E+03    0.23929E-04   -0.25122E-05  1889   0.760E-03    0.215E-02
RMM:   8    -0.646736370803E+03   -0.10918E-03   -0.27765E-05  1896   0.121E-02    0.141E-02
RMM:   9    -0.646736341572E+03    0.29231E-04   -0.92878E-06  1802   0.492E-03    0.433E-02
RMM:  10    -0.646736370589E+03   -0.29017E-04   -0.35296E-06  1605   0.456E-03    0.335E-02
RMM:  11    -0.646736396512E+03   -0.25923E-04   -0.23302E-06  1057   0.237E-03    0.889E-03
RMM:  12    -0.646736413662E+03   -0.17150E-04   -0.21074E-06  1406   0.275E-03    0.126E-02
RMM:  13    -0.646736417887E+03   -0.42250E-05   -0.68702E-07  1256   0.256E-03
  32 F= -.65312247E+03 E0= -.65309874E+03  d E =-.203177E-02  mag=     0.0030
 curvature:  -0.57 expect dE=-0.171E-02 dE for cont linesearch -0.128E-03
 ZBRENT: increasing intervall
 opt :   0.7329  next Energy=  -653.122743 (dE=-0.230E-02)
 bond charge predicted
       N       E                     dE             d eps       ncg     rms          rms(c)
DAV:   1    -0.646736110164E+03    0.30350E-03   -0.53767E-02  3464   0.831E-01    0.915E-02
RMM:   2    -0.646737062471E+03   -0.95231E-03   -0.80114E-03  3158   0.133E-01    0.239E-01
RMM:   3    -0.646736698888E+03    0.36358E-03   -0.73682E-04  2753   0.417E-02    0.148E-01
RMM:   4    -0.646736733671E+03   -0.34782E-04   -0.43954E-05  2019   0.127E-02    0.206E-01
RMM:   5    -0.646736452633E+03    0.28104E-03   -0.57380E-05  1988   0.187E-02    0.107E-01
RMM:   6    -0.646736581264E+03   -0.12863E-03   -0.19843E-05  1828   0.871E-03    0.339E-02
RMM:   7    -0.646736686224E+03   -0.10496E-03   -0.11920E-05  1792   0.904E-03    0.283E-02
RMM:   8    -0.646736699384E+03   -0.13160E-04   -0.14042E-05  1807   0.824E-03    0.801E-03
RMM:   9    -0.646736708553E+03   -0.91695E-05   -0.27679E-06  1697   0.377E-03
  33 F= -.65312274E+03 E0= -.65309898E+03  d E =-.229571E-02  mag=     0.0035
 curvature:  -1.20 expect dE=-0.349E-02 dE for cont linesearch -0.918E-04
 ZBRENT: increasing intervall
 opt :   1.1329  next Energy=  -653.122858 (dE=-0.242E-02)
 bond charge predicted
       N       E                     dE             d eps       ncg     rms          rms(c)
DAV:   1    -0.646734417688E+03    0.22817E-02   -0.21495E-01  3424   0.166E+00    0.190E-01
RMM:   2    -0.646738426833E+03   -0.40091E-02   -0.32158E-02  3155   0.268E-01    0.498E-01
RMM:   3    -0.646736994626E+03    0.14322E-02   -0.29027E-03  3244   0.827E-02    0.352E-01
RMM:   4    -0.646737004036E+03   -0.94103E-05   -0.16823E-04  2334   0.237E-02    0.431E-01
RMM:   5    -0.646735898781E+03    0.11053E-02   -0.16257E-04  2353   0.301E-02    0.276E-01
RMM:   6    -0.646736292130E+03   -0.39335E-03   -0.72217E-05  1981   0.157E-02    0.121E-01
RMM:   7    -0.646736653129E+03   -0.36100E-03   -0.48221E-05  1941   0.167E-02    0.493E-02
RMM:   8    -0.646736794936E+03   -0.14181E-03   -0.48534E-05  1965   0.158E-02    0.222E-02
RMM:   9    -0.646736838764E+03   -0.43828E-04   -0.12611E-05  1803   0.791E-03    0.328E-02
RMM:  10    -0.646736843435E+03   -0.46709E-05   -0.28167E-06  1725   0.475E-03
  34 F= -.65312282E+03 E0= -.65309895E+03  d E =-.237668E-02  mag=     0.0048
 curvature:  -1.56 expect dE=-0.618E-02 dE for cont linesearch -0.476E-04
 trial: gam= 0.55198 g(F)=  0.395E-02 g(S)=  0.000E+00 ort =-0.653E-03 (trialstep = 0.573E+00)
 search vector abs. value=  0.750E-02
 bond charge predicted
       N       E                     dE             d eps       ncg     rms          rms(c)
DAV:   1    -0.646737348949E+03   -0.51019E-03   -0.19291E-01  3312   0.143E+00    0.124E-01
RMM:   2    -0.646738686231E+03   -0.13373E-02   -0.11367E-02  3063   0.212E-01    0.332E-01
RMM:   3    -0.646738306133E+03    0.38010E-03   -0.83568E-04  3556   0.545E-02    0.275E-01
RMM:   4    -0.646738089655E+03    0.21648E-03   -0.80797E-05  2118   0.199E-02    0.264E-01
RMM:   5    -0.646737629392E+03    0.46026E-03   -0.12415E-04  2214   0.184E-02    0.106E-01
RMM:   6    -0.646737763622E+03   -0.13423E-03   -0.88098E-05  2511   0.187E-02    0.678E-02
RMM:   7    -0.646738044123E+03   -0.28050E-03   -0.15728E-04  2634   0.257E-02    0.295E-02
RMM:   8    -0.646738015034E+03    0.29089E-04   -0.30816E-05  1898   0.101E-02    0.640E-02
RMM:   9    -0.646738090456E+03   -0.75422E-04   -0.13228E-05  1808   0.847E-03    0.321E-02
RMM:  10    -0.646738130007E+03   -0.39550E-04   -0.72933E-06  1770   0.443E-03    0.689E-03
RMM:  11    -0.646738143917E+03   -0.13911E-04   -0.29218E-06  1712   0.377E-03    0.273E-02
RMM:  12    -0.646738145144E+03   -0.12263E-05   -0.11178E-06  1610   0.319E-03
  35 F= -.65312408E+03 E0= -.65310031E+03  d E =-.126427E-02  mag=     0.0015
 trial-energy change:   -0.001264  1 .order   -0.001258   -0.002057   -0.000459
 step:   0.7374(harm=  0.7374)  dis= 0.00256  next Energy=  -653.124143 (dE=-0.132E-02)
 bond charge predicted
       N       E                     dE             d eps       ncg     rms          rms(c)
DAV:   1    -0.646738150543E+03   -0.66253E-05   -0.15935E-02  3432   0.410E-01    0.343E-02
RMM:   2    -0.646738254317E+03   -0.10377E-03   -0.93637E-04  3060   0.610E-02    0.726E-02
RMM:   3    -0.646738227343E+03    0.26974E-04   -0.82206E-05  2044   0.171E-02    0.417E-02
RMM:   4    -0.646738228224E+03   -0.88178E-06   -0.11011E-05  1827   0.820E-03
  36 F= -.65312415E+03 E0= -.65310043E+03  d E =-.133526E-02  mag=     0.0014
 curvature:  -0.77 expect dE=-0.141E-02 dE for cont linesearch -0.831E-06
 trial: gam= 0.36455 g(F)=  0.183E-02 g(S)=  0.000E+00 ort = 0.899E-04 (trialstep = 0.606E+00)
 search vector abs. value=  0.289E-02
 bond charge predicted
       N       E                     dE             d eps       ncg     rms          rms(c)
DAV:   1    -0.646738862077E+03   -0.63473E-03   -0.77572E-02  3232   0.863E-01    0.791E-02
RMM:   2    -0.646739144027E+03   -0.28195E-03   -0.31857E-03  3040   0.116E-01    0.132E-01
RMM:   3    -0.646739119387E+03    0.24640E-04   -0.18493E-04  2931   0.285E-02    0.178E-01
RMM:   4    -0.646738998915E+03    0.12047E-03   -0.92510E-05  2026   0.194E-02    0.159E-01
RMM:   5    -0.646738933981E+03    0.64933E-04   -0.68289E-05  2021   0.161E-02    0.702E-02
RMM:   6    -0.646739016079E+03   -0.82098E-04   -0.29952E-05  1878   0.121E-02    0.258E-02
RMM:   7    -0.646739072099E+03   -0.56020E-04   -0.15609E-05  1819   0.102E-02    0.268E-02
RMM:   8    -0.646739083962E+03   -0.11864E-04   -0.71667E-06  1754   0.672E-03    0.176E-02
RMM:   9    -0.646739088511E+03   -0.45490E-05   -0.15959E-06  1652   0.323E-03
  37 F= -.65312501E+03 E0= -.65310124E+03  d E =-.857203E-03  mag=     0.0022
 trial-energy change:   -0.000857  1 .order   -0.000869   -0.001128   -0.000611
 step:   1.3203(harm=  1.3203)  dis= 0.00263  next Energy=  -653.125384 (dE=-0.123E-02)
 bond charge predicted
       N       E                     dE             d eps       ncg     rms          rms(c)
DAV:   1    -0.646739163537E+03   -0.79575E-04   -0.10795E-01  3296   0.102E+00    0.748E-02
RMM:   2    -0.646739522163E+03   -0.35863E-03   -0.43906E-03  3042   0.136E-01    0.686E-02
RMM:   3    -0.646739555102E+03   -0.32939E-04   -0.36275E-04  3216   0.377E-02    0.128E-01
RMM:   4    -0.646739455369E+03    0.99732E-04   -0.87562E-05  2091   0.172E-02    0.312E-02
RMM:   5    -0.646739467782E+03   -0.12413E-04   -0.24404E-05  1879   0.109E-02    0.471E-02
RMM:   6    -0.646739469647E+03   -0.18646E-05   -0.48421E-06  1777   0.591E-03
  38 F= -.65312539E+03 E0= -.65310161E+03  d E =-.123205E-02  mag=     0.0028
 curvature:  -1.02 expect dE=-0.190E-02 dE for cont linesearch -0.174E-05
 trial: gam= 1.03573 g(F)=  0.185E-02 g(S)=  0.000E+00 ort = 0.700E-04 (trialstep = 0.425E+00)
 search vector abs. value=  0.510E-02
 bond charge predicted
       N       E                     dE             d eps       ncg     rms          rms(c)
DAV:   1    -0.646739796263E+03   -0.32848E-03   -0.68388E-02  3328   0.814E-01    0.988E-02
RMM:   2    -0.646740275674E+03   -0.47941E-03   -0.34837E-03  3068   0.114E-01    0.250E-01
RMM:   3    -0.646740281927E+03   -0.62527E-05   -0.25049E-04  2838   0.317E-02    0.316E-01
RMM:   4    -0.646739623979E+03    0.65795E-03   -0.22596E-04  2261   0.294E-02    0.245E-01
RMM:   5    -0.646739744753E+03   -0.12077E-03   -0.63272E-05  2093   0.167E-02    0.245E-01
RMM:   6    -0.646739704105E+03    0.40648E-04   -0.28764E-05  1916   0.105E-02    0.277E-01
RMM:   7    -0.646739712496E+03   -0.83907E-05   -0.11032E-05  1810   0.660E-03
  39 F= -.65312564E+03 E0= -.65310176E+03  d E =-.258382E-03  mag=     0.0142
 trial-energy change:   -0.000258  1 .order   -0.000652   -0.000816   -0.000488
 step:   1.0570(harm=  1.0570)  dis= 0.00264  next Energy=  -653.126402 (dE=-0.102E-02)
 reached required accuracy - stopping structural energy minimisation
