 vasp.5.4.4.18Apr17-6-g9f103f2a35 (build Jan 14 2022 15:04:31) complex          
  
 executed on             LinuxIFC date 2023.01.27  22:53:25
 running on   48 total cores
 distrk:  each k-point on   48 cores,    1 groups
 distr:  one band on NCORES_PER_BAND=  12 cores,    4 groups


--------------------------------------------------------------------------------------------------------


 INCAR:
 POTCAR:    PAW_PBE C 08Apr2002                   
 POTCAR:    PAW_PBE N 08Apr2002                   
 POTCAR:    PAW_PBE C 08Apr2002                   
 POTCAR:    PAW_PBE Cr_pv 02Aug2007               
 POTCAR:    PAW_PBE C 08Apr2002                   
 POTCAR:    PAW_PBE O 08Apr2002                   
 POTCAR:    PAW_PBE C 08Apr2002                   
   SHA256 =  253f7b50bb8d59471dbedb8285d89021f4a42ed1a2c5d38a03a736e69125dd95 C/
   COPYR  = (c) Copyright 08Apr2002 Georg Kresse                                
   COPYR  = This file is part of the software VASP. Any use, copying, and all ot
   COPYR  = If you do not have a valid VASP license, you may not use, copy or di
   VRHFIN =C: s2p2                                                              
   LEXCH  = PE                                                                  
   EATOM  =   147.1560 eV,   10.8157 Ry                                         
                                                                                
   TITEL  = PAW_PBE C 08Apr2002                                                 
   LULTRA =        F    use ultrasoft PP ?                                      
   IUNSCR =        1    unscreen: 0-lin 1-nonlin 2-no                           
   RPACOR =    1.200    partial core radius                                     
   POMASS =   12.011; ZVAL   =    4.000    mass and valenz                      
   RCORE  =    1.500    outmost cutoff radius                                   
   RWIGS  =    1.630; RWIGS  =    0.863    wigner-seitz radius (au A)           
   ENMAX  =  400.000; ENMIN  =  300.000 eV                                      
   ICORE  =        2    local potential                                         
   LCOR   =        T    correct aug charges                                     
   LPAW   =        T    paw PP                                                  
   EAUG   =  644.873                                                            
   DEXC   =    0.000                                                            
   RMAX   =    1.529    core radius for proj-oper                               
   RAUG   =    1.300    factor for augmentation sphere                          
   RDEP   =    1.501    radius for radial grids                                 
   RDEPT  =    1.300    core radius for aug-charge                              
                                                                                
   Atomic configuration                                                         
    4 entries                                                                   
     n  l   j            E        occ.                                          
     1  0  0.50      -273.3789   2.0000                                         
     2  0  0.50       -13.7508   2.0000                                         
     2  1  0.50        -5.2854   2.0000                                         
     3  2  1.50        -5.4423   0.0000                                         
   Description                                                                  
     l       E           TYP  RCUT    TYP  RCUT                                 
     0    -13.7508458     23  1.200                                             
     0     -8.2022199     23  1.200                                             
     1     -5.2854383     23  1.500                                             
     1     34.0145650     23  1.500                                             
     2     -5.4423304      7  1.500                                             
  local pseudopotential read in
  partial core-charges read in
  partial kinetic energy density read in
  atomic valenz-charges read in
  non local Contribution for L=           0  read in
    real space projection operators read in
  non local Contribution for L=           0  read in
    real space projection operators read in
  non local Contribution for L=           1  read in
    real space projection operators read in
  non local Contribution for L=           1  read in
    real space projection operators read in
    PAW grid and wavefunctions read in
 
   number of l-projection  operators is LMAX  =           4
   number of lm-projection operators is LMMAX =           8
 
 POTCAR:    PAW_PBE N 08Apr2002                   
   SHA256 =  e053789ff3a61a86a1b75d8a110fcc91f86041011e7b0817c7c99e4e8a6349d7 N/
   COPYR  = (c) Copyright 08Apr2002 Georg Kresse                                
   COPYR  = This file is part of the software VASP. Any use, copying, and all ot
   COPYR  = If you do not have a valid VASP license, you may not use, copy or di
   VRHFIN =N: s2p3                                                              
   LEXCH  = PE                                                                  
   EATOM  =   264.5486 eV,   19.4438 Ry                                         
                                                                                
   TITEL  = PAW_PBE N 08Apr2002                                                 
   LULTRA =        F    use ultrasoft PP ?                                      
   IUNSCR =        1    unscreen: 0-lin 1-nonlin 2-no                           
   RPACOR =    1.200    partial core radius                                     
   POMASS =   14.001; ZVAL   =    5.000    mass and valenz                      
   RCORE  =    1.500    outmost cutoff radius                                   
   RWIGS  =    1.400; RWIGS  =    0.741    wigner-seitz radius (au A)           
   ENMAX  =  400.000; ENMIN  =  300.000 eV                                      
   ICORE  =        2    local potential                                         
   LCOR   =        T    correct aug charges                                     
   LPAW   =        T    paw PP                                                  
   EAUG   =  627.112                                                            
   DEXC   =    0.000                                                            
   RMAX   =    1.529    core radius for proj-oper                               
   RAUG   =    1.300    factor for augmentation sphere                          
   RDEP   =    1.514    radius for radial grids                                 
   RDEPT  =    1.338    core radius for aug-charge                              
                                                                                
   Atomic configuration                                                         
    4 entries                                                                   
     n  l   j            E        occ.                                          
     1  0  0.50      -384.7179   2.0000                                         
     2  0  0.50       -18.5828   2.0000                                         
     2  1  0.50        -7.0898   3.0000                                         
     3  2  1.50        -6.8029   0.0000                                         
   Description                                                                  
     l       E           TYP  RCUT    TYP  RCUT                                 
     0    -18.5828119     23  1.200                                             
     0    -13.5018863     23  1.200                                             
     1     -7.0897853     23  1.500                                             
     1      9.5240782     23  1.500                                             
     2     -6.8029130      7  1.500                                             
  local pseudopotential read in
  partial core-charges read in
  partial kinetic energy density read in
  atomic valenz-charges read in
  non local Contribution for L=           0  read in
    real space projection operators read in
  non local Contribution for L=           0  read in
    real space projection operators read in
  non local Contribution for L=           1  read in
    real space projection operators read in
  non local Contribution for L=           1  read in
    real space projection operators read in
    PAW grid and wavefunctions read in
 
   number of l-projection  operators is LMAX  =           4
   number of lm-projection operators is LMMAX =           8
 
 POTCAR:    PAW_PBE C 08Apr2002                   
   SHA256 =  253f7b50bb8d59471dbedb8285d89021f4a42ed1a2c5d38a03a736e69125dd95 C/
   COPYR  = (c) Copyright 08Apr2002 Georg Kresse                                
   COPYR  = This file is part of the software VASP. Any use, copying, and all ot
   COPYR  = If you do not have a valid VASP license, you may not use, copy or di
   VRHFIN =C: s2p2                                                              
   LEXCH  = PE                                                                  
   EATOM  =   147.1560 eV,   10.8157 Ry                                         
                                                                                
   TITEL  = PAW_PBE C 08Apr2002                                                 
   LULTRA =        F    use ultrasoft PP ?                                      
   IUNSCR =        1    unscreen: 0-lin 1-nonlin 2-no                           
   RPACOR =    1.200    partial core radius                                     
   POMASS =   12.011; ZVAL   =    4.000    mass and valenz                      
   RCORE  =    1.500    outmost cutoff radius                                   
   RWIGS  =    1.630; RWIGS  =    0.863    wigner-seitz radius (au A)           
   ENMAX  =  400.000; ENMIN  =  300.000 eV                                      
   ICORE  =        2    local potential                                         
   LCOR   =        T    correct aug charges                                     
   LPAW   =        T    paw PP                                                  
   EAUG   =  644.873                                                            
   DEXC   =    0.000                                                            
   RMAX   =    1.529    core radius for proj-oper                               
   RAUG   =    1.300    factor for augmentation sphere                          
   RDEP   =    1.501    radius for radial grids                                 
   RDEPT  =    1.300    core radius for aug-charge                              
                                                                                
   Atomic configuration                                                         
    4 entries                                                                   
     n  l   j            E        occ.                                          
     1  0  0.50      -273.3789   2.0000                                         
     2  0  0.50       -13.7508   2.0000                                         
     2  1  0.50        -5.2854   2.0000                                         
     3  2  1.50        -5.4423   0.0000                                         
   Description                                                                  
     l       E           TYP  RCUT    TYP  RCUT                                 
     0    -13.7508458     23  1.200                                             
     0     -8.2022199     23  1.200                                             
     1     -5.2854383     23  1.500                                             
     1     34.0145650     23  1.500                                             
     2     -5.4423304      7  1.500                                             
  local pseudopotential read in
  partial core-charges read in
  partial kinetic energy density read in
  atomic valenz-charges read in
  non local Contribution for L=           0  read in
    real space projection operators read in
  non local Contribution for L=           0  read in
    real space projection operators read in
  non local Contribution for L=           1  read in
    real space projection operators read in
  non local Contribution for L=           1  read in
    real space projection operators read in
    PAW grid and wavefunctions read in
 
   number of l-projection  operators is LMAX  =           4
   number of lm-projection operators is LMMAX =           8
 
 POTCAR:    PAW_PBE Cr_pv 02Aug2007               
   SHA256 =  c9a7df34d3cdbacf1090e328ef39c0b420964e11c23f63548d1ac9dd218cdba0 Cr
   COPYR  = (c) Copyright 02Aug2007 Georg Kresse                                
   COPYR  = This file is part of the software VASP. Any use, copying, and all ot
   COPYR  = If you do not have a valid VASP license, you may not use, copy or di
   VRHFIN =Cr : p6d5s1                                                          
   LEXCH  = PE                                                                  
   EATOM  =  1647.9177 eV,  121.1185 Ry                                         
                                                                                
   TITEL  = PAW_PBE Cr_pv 02Aug2007                                             
   LULTRA =        F    use ultrasoft PP ?                                      
   IUNSCR =        1    unscreen: 0-lin 1-nonlin 2-no                           
   RPACOR =    2.080    partial core radius                                     
   POMASS =   51.996; ZVAL   =   12.000    mass and valenz                      
   RCORE  =    2.300    outmost cutoff radius                                   
   RWIGS  =    2.500; RWIGS  =    1.323    wigner-seitz radius (au A)           
   ENMAX  =  265.681; ENMIN  =  199.261 eV                                      
   ICORE  =        3    local potential                                         
   LCOR   =        T    correct aug charges                                     
   LPAW   =        T    paw PP                                                  
   EAUG   =  519.424                                                            
   DEXC   =    0.000                                                            
   RMAX   =    2.356    core radius for proj-oper                               
   RAUG   =    1.300    factor for augmentation sphere                          
   RDEP   =    2.447    radius for radial grids                                 
   RDEPT  =    1.882    core radius for aug-charge                              
                                                                                
   Atomic configuration                                                         
    8 entries                                                                   
     n  l   j            E        occ.                                          
     1  0  0.50     -5880.4963   2.0000                                         
     2  0  0.50      -667.0865   2.0000                                         
     2  1  1.50      -560.6250   6.0000                                         
     3  0  0.50       -73.9860   2.0000                                         
     3  1  1.50       -45.4378   6.0000                                         
     3  2  2.50        -2.9137   5.0000                                         
     4  0  0.50        -4.0071   1.0000                                         
     4  3  2.50        -1.3606   0.0000                                         
   Description                                                                  
     l       E           TYP  RCUT    TYP  RCUT                                 
     1    -45.4377911     23  2.000                                             
     1      1.3605826     23  2.000                                             
     2     -2.9136672     23  2.300                                             
     2     -4.2742498     23  2.300                                             
     0     -4.0071320     23  2.300                                             
     0      9.4498803     23  2.300                                             
     3      2.7211652     23  2.300                                             
  local pseudopotential read in
  partial core-charges read in
  partial kinetic energy density read in
  atomic valenz-charges read in
  non local Contribution for L=           1  read in
    real space projection operators read in
  non local Contribution for L=           1  read in
    real space projection operators read in
  non local Contribution for L=           2  read in
    real space projection operators read in
  non local Contribution for L=           2  read in
    real space projection operators read in
  non local Contribution for L=           0  read in
    real space projection operators read in
  non local Contribution for L=           0  read in
    real space projection operators read in
    PAW grid and wavefunctions read in
 
   number of l-projection  operators is LMAX  =           6
   number of lm-projection operators is LMMAX =          18
 
 POTCAR:    PAW_PBE C 08Apr2002                   
   SHA256 =  253f7b50bb8d59471dbedb8285d89021f4a42ed1a2c5d38a03a736e69125dd95 C/
   COPYR  = (c) Copyright 08Apr2002 Georg Kresse                                
   COPYR  = This file is part of the software VASP. Any use, copying, and all ot
   COPYR  = If you do not have a valid VASP license, you may not use, copy or di
   VRHFIN =C: s2p2                                                              
   LEXCH  = PE                                                                  
   EATOM  =   147.1560 eV,   10.8157 Ry                                         
                                                                                
   TITEL  = PAW_PBE C 08Apr2002                                                 
   LULTRA =        F    use ultrasoft PP ?                                      
   IUNSCR =        1    unscreen: 0-lin 1-nonlin 2-no                           
   RPACOR =    1.200    partial core radius                                     
   POMASS =   12.011; ZVAL   =    4.000    mass and valenz                      
   RCORE  =    1.500    outmost cutoff radius                                   
   RWIGS  =    1.630; RWIGS  =    0.863    wigner-seitz radius (au A)           
   ENMAX  =  400.000; ENMIN  =  300.000 eV                                      
   ICORE  =        2    local potential                                         
   LCOR   =        T    correct aug charges                                     
   LPAW   =        T    paw PP                                                  
   EAUG   =  644.873                                                            
   DEXC   =    0.000                                                            
   RMAX   =    1.529    core radius for proj-oper                               
   RAUG   =    1.300    factor for augmentation sphere                          
   RDEP   =    1.501    radius for radial grids                                 
   RDEPT  =    1.300    core radius for aug-charge                              
                                                                                
   Atomic configuration                                                         
    4 entries                                                                   
     n  l   j            E        occ.                                          
     1  0  0.50      -273.3789   2.0000                                         
     2  0  0.50       -13.7508   2.0000                                         
     2  1  0.50        -5.2854   2.0000                                         
     3  2  1.50        -5.4423   0.0000                                         
   Description                                                                  
     l       E           TYP  RCUT    TYP  RCUT                                 
     0    -13.7508458     23  1.200                                             
     0     -8.2022199     23  1.200                                             
     1     -5.2854383     23  1.500                                             
     1     34.0145650     23  1.500                                             
     2     -5.4423304      7  1.500                                             
  local pseudopotential read in
  partial core-charges read in
  partial kinetic energy density read in
  atomic valenz-charges read in
  non local Contribution for L=           0  read in
    real space projection operators read in
  non local Contribution for L=           0  read in
    real space projection operators read in
  non local Contribution for L=           1  read in
    real space projection operators read in
  non local Contribution for L=           1  read in
    real space projection operators read in
    PAW grid and wavefunctions read in
 
   number of l-projection  operators is LMAX  =           4
   number of lm-projection operators is LMMAX =           8
 
 POTCAR:    PAW_PBE O 08Apr2002                   
   SHA256 =  818f92134a0a090dccd8ba1447fa70422a3b330e708bb4f08108d8ae51209ddf O/
   COPYR  = (c) Copyright 08Apr2002 Georg Kresse                                
   COPYR  = This file is part of the software VASP. Any use, copying, and all ot
   COPYR  = If you do not have a valid VASP license, you may not use, copy or di
   VRHFIN =O: s2p4                                                              
   LEXCH  = PE                                                                  
   EATOM  =   432.3788 eV,   31.7789 Ry                                         
                                                                                
   TITEL  = PAW_PBE O 08Apr2002                                                 
   LULTRA =        F    use ultrasoft PP ?                                      
   IUNSCR =        1    unscreen: 0-lin 1-nonlin 2-no                           
   RPACOR =    1.200    partial core radius                                     
   POMASS =   16.000; ZVAL   =    6.000    mass and valenz                      
   RCORE  =    1.520    outmost cutoff radius                                   
   RWIGS  =    1.550; RWIGS  =    0.820    wigner-seitz radius (au A)           
   ENMAX  =  400.000; ENMIN  =  300.000 eV                                      
   ICORE  =        2    local potential                                         
   LCOR   =        T    correct aug charges                                     
   LPAW   =        T    paw PP                                                  
   EAUG   =  605.392                                                            
   DEXC   =    0.000                                                            
   RMAX   =    1.553    core radius for proj-oper                               
   RAUG   =    1.300    factor for augmentation sphere                          
   RDEP   =    1.550    radius for radial grids                                 
   RDEPT  =    1.329    core radius for aug-charge                              
                                                                                
   Atomic configuration                                                         
    4 entries                                                                   
     n  l   j            E        occ.                                          
     1  0  0.50      -514.6923   2.0000                                         
     2  0  0.50       -23.9615   2.0000                                         
     2  1  0.50        -9.0305   4.0000                                         
     3  2  1.50        -9.5241   0.0000                                         
   Description                                                                  
     l       E           TYP  RCUT    TYP  RCUT                                 
     0    -23.9615318     23  1.200                                             
     0     -9.5240782     23  1.200                                             
     1     -9.0304911     23  1.520                                             
     1      8.1634956     23  1.520                                             
     2     -9.5240782      7  1.500                                             
  local pseudopotential read in
  partial core-charges read in
  partial kinetic energy density read in
  kinetic energy density of atom read in
  atomic valenz-charges read in
  non local Contribution for L=           0  read in
    real space projection operators read in
  non local Contribution for L=           0  read in
    real space projection operators read in
  non local Contribution for L=           1  read in
    real space projection operators read in
  non local Contribution for L=           1  read in
    real space projection operators read in
    PAW grid and wavefunctions read in
 
   number of l-projection  operators is LMAX  =           4
   number of lm-projection operators is LMMAX =           8
 

 ----------------------------------------------------------------------------- 
|                                                                             |
|  ADVICE TO THIS USER RUNNING 'VASP/VAMP'   (HEAR YOUR MASTER'S VOICE ...):  |
|                                                                             |
|      You have a (more or less) 'large supercell' and for larger cells       |
|      it might be more efficient to use real space projection opertators     |
|      So try LREAL= Auto  in the INCAR   file.                               |
|      Mind:          For very  accurate calculation you might also keep the  |
|      reciprocal projection scheme          (i.e. LREAL=.FALSE.)             |
|                                                                             |
 ----------------------------------------------------------------------------- 

  PAW_PBE C 08Apr2002                   :
 energy of atom  1       EATOM= -147.1560
 kinetic energy error for atom=    0.0132 (will be added to EATOM!!)
  PAW_PBE N 08Apr2002                   :
 energy of atom  2       EATOM= -264.5486
 kinetic energy error for atom=    0.0298 (will be added to EATOM!!)
  PAW_PBE C 08Apr2002                   :
 energy of atom  3       EATOM= -147.1560
 kinetic energy error for atom=    0.0132 (will be added to EATOM!!)
  PAW_PBE Cr_pv 02Aug2007               :
 energy of atom  4       EATOM=-1647.9177
 kinetic energy error for atom=    0.0134 (will be added to EATOM!!)
  PAW_PBE C 08Apr2002                   :
 energy of atom  5       EATOM= -147.1560
 kinetic energy error for atom=    0.0132 (will be added to EATOM!!)
  PAW_PBE O 08Apr2002                   :
 energy of atom  6       EATOM= -432.3788
 kinetic energy error for atom=    0.0458 (will be added to EATOM!!)
 
 
 POSCAR: POSCAR-clean                            
  positions in direct lattice
  velocities in cartesian coordinates
 exchange correlation table for  LEXCH =        8
   RHO(1)=    0.500       N(1)  =     2000
   RHO(2)=  100.500       N(2)  =     4000

 VTST: version 3.2, (02/03/18)

 CHAIN: initializing optimizer
 
 OPT: Using VASP Dynamics algorithm
 CHAIN: Read ICHAIN            0
 
 POSCAR: POSCAR-clean                            
  positions in direct lattice
  velocities in cartesian coordinates
 


--------------------------------------------------------------------------------------------------------


 ion  position               nearest neighbor table
   1  0.999  1.000  0.492-   2 1.42  60 1.43  70 1.43
   2  0.055  0.111  0.492-   1 1.42  13 1.42  15 1.43
   3  0.167  0.002  0.490-   4 1.42  62 1.43  60 1.43
   4  0.223  0.113  0.491-   3 1.42  15 1.42  17 1.43
   5  0.334  0.003  0.491-   6 1.42  64 1.43  62 1.43
   6  0.390  0.114  0.493-   5 1.42  17 1.42  19 1.43
   7  0.500  0.001  0.491-   8 1.42  64 1.43  66 1.43
   8  0.556  0.113  0.493-   7 1.42  21 1.42  19 1.43
   9  0.666  0.999  0.490-  66 1.42  10 1.42  68 1.44
  10  0.722  0.111  0.491-  23 1.42   9 1.42  21 1.44
  11  0.832  0.999  0.493-  12 1.42  70 1.43  68 1.43
  12  0.888  0.110  0.492-  11 1.42  13 1.43  23 1.43
  13  0.999  0.166  0.492-  14 1.42   2 1.42  12 1.43
  14  0.054  0.277  0.493-  13 1.42  27 1.43  25 1.43
  15  0.166  0.167  0.492-  16 1.42   4 1.42   2 1.43
  16  0.222  0.279  0.492-  15 1.42  27 1.43  29 1.44
  17  0.335  0.170  0.494-  18 1.42   6 1.42   4 1.43
  18  0.391  0.281  0.498-  17 1.42  29 1.43  31 1.45
  19  0.502  0.170  0.495-  20 1.42   6 1.43   8 1.43
  20  0.558  0.282  0.499-  33 1.41  19 1.42  31 1.44
  21  0.666  0.167  0.493-  22 1.42   8 1.42  10 1.44
  22  0.722  0.278  0.494-  33 1.41  21 1.42  35 1.42
  23  0.832  0.166  0.491-  24 1.42  10 1.42  12 1.43
  24  0.888  0.277  0.492-  23 1.42  25 1.43  35 1.43
  25  0.999  0.333  0.492-  26 1.42  14 1.43  24 1.43
  26  0.055  0.444  0.493-  39 1.42  25 1.42  37 1.42
  27  0.165  0.333  0.493-  28 1.42  14 1.43  16 1.43
  28  0.220  0.445  0.495-  41 1.42  27 1.42  39 1.42
  29  0.334  0.335  0.493-  30 1.40  18 1.43  16 1.44
  30  0.387  0.446  0.494-  29 1.40  41 1.42  71 1.91
  31  0.503  0.340  0.504-  32 1.44  20 1.44  18 1.45
  32  0.560  0.452  0.516-  43 1.43  31 1.44  71 2.02
  33  0.667  0.334  0.498-  34 1.40  20 1.41  22 1.41
  34  0.723  0.444  0.500-  43 1.40  33 1.40  45 1.43
  35  0.832  0.333  0.493-  22 1.42  36 1.42  24 1.43
  36  0.889  0.445  0.492-  45 1.41  37 1.42  35 1.42
  37  1.000  0.500  0.492-  36 1.42  38 1.42  26 1.42
  38  0.056  0.612  0.491-  47 1.42  37 1.42  49 1.42
  39  0.165  0.500  0.494-  26 1.42  28 1.42  40 1.42
  40  0.221  0.612  0.493-  49 1.42  51 1.42  39 1.42
  41  0.331  0.500  0.491-  28 1.42  30 1.42  42 1.44  71 2.52
  42  0.387  0.613  0.489-  53 1.42  51 1.42  41 1.44  71 2.53
  43  0.670  0.499  0.508-  34 1.40  44 1.43  32 1.43
  44  0.726  0.611  0.507-  57 1.41  55 1.42  43 1.43
  45  0.834  0.500  0.495-  36 1.41  46 1.42  34 1.43
  46  0.890  0.611  0.494-  57 1.42  45 1.42  47 1.42
  47  0.001  0.667  0.491-  38 1.42  48 1.42  46 1.42
  48  0.056  0.779  0.490-  47 1.42  59 1.43  61 1.43
  49  0.166  0.668  0.491-  40 1.42  50 1.42  38 1.42
  50  0.222  0.779  0.490-  49 1.42  61 1.42  63 1.43
  51  0.332  0.668  0.492-  52 1.42  40 1.42  42 1.42
  52  0.388  0.779  0.490-  51 1.42  63 1.43  65 1.43
  53  0.497  0.666  0.485-  54 1.40  42 1.42  71 1.94
  54  0.554  0.776  0.488-  53 1.40  67 1.43  65 1.44
  55  0.665  0.660  0.513-  44 1.42  56 1.44  71 2.03
  56  0.719  0.772  0.502-  55 1.44  67 1.44  69 1.45
  57  0.835  0.667  0.498-  44 1.41  58 1.42  46 1.42
  58  0.889  0.778  0.496-  57 1.42  59 1.43  69 1.43
  59  0.000  0.834  0.492-  60 1.42  48 1.43  58 1.43
  60  0.056  0.945  0.491-  59 1.42   1 1.43   3 1.43
  61  0.167  0.835  0.489-  62 1.42  50 1.42  48 1.43
  62  0.223  0.947  0.490-  61 1.42   3 1.43   5 1.43
  63  0.333  0.835  0.490-  64 1.42  50 1.43  52 1.43
  64  0.389  0.946  0.490-  63 1.42   7 1.43   5 1.43
  65  0.499  0.834  0.488-  66 1.42  52 1.43  54 1.44
  66  0.555  0.945  0.489-  65 1.42   9 1.42   7 1.43
  67  0.665  0.831  0.494-  68 1.42  54 1.43  56 1.44
  68  0.721  0.942  0.492-  67 1.42  11 1.43   9 1.44
  69  0.831  0.831  0.497-  58 1.43  70 1.43  56 1.45
  70  0.887  0.943  0.493-  11 1.43  69 1.43   1 1.43
  71  0.513  0.557  0.542-  72 1.90  30 1.91  53 1.94  32 2.02  55 2.03  41 2.52  42 2.53
  72  0.517  0.519  0.662-  73 1.17  71 1.90
  73  0.517  0.501  0.738-  72 1.17
 

IMPORTANT INFORMATION: All symmetrisations will be switched off!
NOSYMM: (Re-)initialisation of all symmetry stuff for point group C_1.

 
 
 KPOINTS: K-Points                                

Automatic generation of k-mesh.
Space group operators:
 irot       det(A)        alpha          n_x          n_y          n_z        tau_x        tau_y        tau_z
    1     1.000000     0.000000     1.000000     0.000000     0.000000     0.000000     0.000000     0.000000
 
 Subroutine IBZKPT returns following result:
 ===========================================
 
 Found      5 irreducible k-points:
 
 Following reciprocal coordinates:
            Coordinates               Weight
  0.000000  0.000000  0.000000      1.000000
  0.333333 -0.000000  0.000000      2.000000
 -0.000000  0.333333  0.000000      2.000000
  0.333333  0.333333  0.000000      2.000000
 -0.333333  0.333333  0.000000      2.000000
 
 Following cartesian coordinates:
            Coordinates               Weight
  0.000000  0.000000  0.000000      1.000000
  0.022434  0.013073  0.000000      2.000000
  0.000006  0.026147  0.000000      2.000000
  0.022440  0.039220  0.000000      2.000000
 -0.022429  0.013073  0.000000      2.000000
 
 TETIRR: Found     24 inequivalent tetrahedra from       54


--------------------------------------------------------------------------------------------------------




 Dimension of arrays:
   k-points           NKPTS =      5   k-points in BZ     NKDIM =      5   number of bands    NBANDS=    192
   number of dos      NEDOS =   4000   number of ions     NIONS =     73
   non local maximal  LDIM  =      6   non local SUM 2l+1 LMDIM =     18
   total plane-waves  NPLWV = 512000
   max r-space proj   IRMAX =      1   max aug-charges    IRDMAX=   6468
   dimension x,y,z NGX =    80 NGY =   80 NGZ =   80
   dimension x,y,z NGXF=   160 NGYF=  160 NGZF=  160
   support grid    NGXF=   160 NGYF=  160 NGZF=  160
   ions per type =              32   1  37   1   1   1
   NGX,Y,Z   is equivalent  to a cutoff of   8.95,  9.01,  8.87 a.u.
   NGXF,Y,Z  is equivalent  to a cutoff of  17.90, 18.02, 17.73 a.u.

 SYSTEM =  unknown system                          
 POSCAR =  POSCAR-clean                            

 Startparameter for this run:
   NWRITE =      2    write-flag & timer
   PREC   = normal    normal or accurate (medium, high low for compatibility)
   ISTART =      0    job   : 0-new  1-cont  2-samecut
   ICHARG =      2    charge: 1-file 2-atom 10-const
   ISPIN  =      2    spin polarized calculation?
   LNONCOLLINEAR =      F non collinear calculations
   LSORBIT =      F    spin-orbit coupling
   INIWAV =      1    electr: 0-lowe 1-rand  2-diag
   LASPH  =      F    aspherical Exc in radial PAW
   METAGGA=      F    non-selfconsistent MetaGGA calc.

 Electronic Relaxation 1
   ENCUT  =  440.0 eV  32.34 Ry    5.69 a.u.  25.42 25.24 25.66*2*pi/ulx,y,z
   ENINI  =  440.0     initial cutoff
   ENAUG  =  644.9 eV  augmentation charge cutoff
   NELM   =    100;   NELMIN=  2; NELMDL= -5     # of ELM steps 
   EDIFF  = 0.1E-03   stopping-criterion for ELM
   LREAL  =      F    real-space projection
   NLSPLINE    = F    spline interpolate recip. space projectors
   LCOMPAT=      F    compatible to vasp.4.4
   GGA_COMPAT  = T    GGA compatible to vasp.4.4-vasp.4.6
   LMAXPAW     = -100 max onsite density
   LMAXMIX     =    2 max onsite mixed and CHGCAR
   VOSKOWN=      0    Vosko Wilk Nusair interpolation
   ROPT   =    0.00000   0.00000   0.00000   0.00000
   ROPT   =    0.00000   0.00000
 Ionic relaxation
   EDIFFG = -.1E-01   stopping-criterion for IOM
   NSW    =      0    number of steps for IOM
   NBLOCK =      1;   KBLOCK =      1    inner block; outer block 
   IBRION =     -1    ionic relax: 0-MD 1-quasi-New 2-CG
   NFREE  =      0    steps in history (QN), initial steepest desc. (CG)
   ISIF   =      2    stress and relaxation
   IWAVPR =     10    prediction:  0-non 1-charg 2-wave 3-comb
   ISYM   =      0    0-nonsym 1-usesym 2-fastsym
   LCORR  =      T    Harris-Foulkes like correction to forces

   POTIM  = 0.5000    time-step for ionic-motion
   TEIN   =    0.0    initial temperature
   TEBEG  =    0.0;   TEEND  =   0.0 temperature during run
   SMASS  =  -3.00    Nose mass-parameter (am)
   estimated Nose-frequenzy (Omega)   =  0.10E-29 period in steps =****** mass=  -0.505E-26a.u.
   SCALEE = 1.0000    scale energy and forces
   NPACO  =    256;   APACO  = 16.0  distance and # of slots for P.C.
   PSTRESS=    0.0 pullay stress

  Mass of Ions in am
   POMASS =  12.01 14.00 12.01 52.00 12.01 16.00
  Ionic Valenz
   ZVAL   =   4.00  5.00  4.00 12.00  4.00  6.00
  Atomic Wigner-Seitz radii
   RWIGS  =  -1.00 -1.00 -1.00 -1.00 -1.00 -1.00
  virtual crystal weights 
   VCA    =   1.00  1.00  1.00  1.00  1.00  1.00
   NELECT =     303.0000    total number of electrons
   NUPDOWN=      -1.0000    fix difference up-down

 DOS related values:
   EMIN   = -14.00;   EMAX   =  6.00  energy-range for DOS
   EFERMI =   0.00
   ISMEAR =    -5;   SIGMA  =   0.20  broadening in eV -4-tet -1-fermi 0-gaus

 Electronic relaxation 2 (details)
   IALGO  =     38    algorithm
   LDIAG  =      T    sub-space diagonalisation (order eigenvalues)
   LSUBROT=      F    optimize rotation matrix (better conditioning)
   TURBO    =      0    0=normal 1=particle mesh
   IRESTART =      0    0=no restart 2=restart with 2 vectors
   NREBOOT  =      0    no. of reboots
   NMIN     =      0    reboot dimension
   EREF     =   0.00    reference energy to select bands
   IMIX   =      4    mixing-type and parameters
     AMIX     =   0.25;   BMIX     =  0.00
     AMIX_MAG =   1.00;   BMIX_MAG =  0.00
     AMIN     =   0.10
     WC   =   100.;   INIMIX=   1;  MIXPRE=   1;  MAXMIX= -45

 Intra band minimization:
   WEIMIN = 0.0000     energy-eigenvalue tresh-hold
   EBREAK =  0.13E-06  absolut break condition
   DEPER  =   0.30     relativ break condition  

   TIME   =   0.40     timestep for ELM

  volume/ion in A,a.u.               =      38.93       262.69
  Fermi-wavevector in a.u.,A,eV,Ry     =   0.776301  1.466996  8.199456  0.602643
  Thomas-Fermi vector in A             =   1.878750
 
 Write flags
   LWAVE        =      F    write WAVECAR
   LDOWNSAMPLE  =      F    k-point downsampling of WAVECAR
   LCHARG       =      F    write CHGCAR
   LVTOT        =      F    write LOCPOT, total local potential
   LVHAR        =      F    write LOCPOT, Hartree potential only
   LELF         =      F    write electronic localiz. function (ELF)
   LORBIT       =     11    0 simple, 1 ext, 2 COOP (PROOUT), +10 PAW based schemes


 Dipole corrections
   LMONO  =      F    monopole corrections only (constant potential shift)
   LDIPOL =      F    correct potential (dipole corrections)
   IDIPOL =      0    1-x, 2-y, 3-z, 4-all directions 
   EPSILON=  1.0000000 bulk dielectric constant

 Exchange correlation treatment:
   GGA     =    --    GGA type
   LEXCH   =     8    internal setting for exchange type
   VOSKOWN=      0    Vosko Wilk Nusair interpolation
   LHFCALC =     F    Hartree Fock is set to
   LHFONE  =     F    Hartree Fock one center treatment
   AEXX    =    0.0000 exact exchange contribution

 Linear response parameters
   LEPSILON=     F    determine dielectric tensor
   LRPA    =     F    only Hartree local field effects (RPA)
   LNABLA  =     F    use nabla operator in PAW spheres
   LVEL    =     F    velocity operator in full k-point grid
   LINTERFAST=   F  fast interpolation
   KINTER  =     0    interpolate to denser k-point grid
   CSHIFT  =0.1000    complex shift for real part using Kramers Kronig
   OMEGAMAX=  -1.0    maximum frequency
   DEG_THRESHOLD= 0.2000000E-02 threshold for treating states as degnerate
   RTIME   =   -0.100 relaxation time in fs
  (WPLASMAI=    0.000 imaginary part of plasma frequency in eV, 0.658/RTIME)
   DFIELD  = 0.0000000 0.0000000 0.0000000 field for delta impulse in time
 
 Orbital magnetization related:
   ORBITALMAG=     F  switch on orbital magnetization
   LCHIMAG   =     F  perturbation theory with respect to B field
   DQ        =  0.001000  dq finite difference perturbation B field
   LLRAUG    =     F  two centre corrections for induced B field



--------------------------------------------------------------------------------------------------------


 Static calculation
 charge density and potential will be updated during run
 spin polarized calculation
 Variant of blocked Davidson
 Davidson routine will perform the subspace rotation
 perform sub-space diagonalisation
    after iterative eigenvector-optimisation
 modified Broyden-mixing scheme, WC =      100.0
 initial mixing is a Kerker type mixing with AMIX =  0.2500 and BMIX =      0.0001
 Hartree-type preconditioning will be used
 using additional bands           40
 reciprocal scheme for non local part
 use partial core corrections
 calculate Harris-corrections to forces 
   (improved forces if not selfconsistent)
 use gradient corrections 
 use of overlap-Matrix (Vanderbilt PP)
 Fermi weights with tetrahedron method with Bloechl corrections


--------------------------------------------------------------------------------------------------------


  energy-cutoff  :      440.00
  volume of cell :     2841.69
      direct lattice vectors                 reciprocal lattice vectors
    14.860178904 -0.003145218  0.000000000     0.067302242  0.039220069  0.000000000
    -7.430089452 12.750147992  0.000000000     0.000016602  0.078440137  0.000000000
     0.000000000  0.000000000 15.000000000     0.000000000  0.000000000  0.066666667

  length of vectors
    14.860179237 14.757117032 15.000000000     0.077896120  0.078440139  0.066666667


 
 k-points in units of 2pi/SCALE and weight: K-Points                                
   0.00000000  0.00000000  0.00000000       0.111
   0.02243408  0.01307336  0.00000000       0.222
   0.00000553  0.02614671  0.00000000       0.222
   0.02243961  0.03922007  0.00000000       0.222
  -0.02242855  0.01307336  0.00000000       0.222
 
 k-points in reciprocal lattice and weights: K-Points                                
   0.00000000  0.00000000  0.00000000       0.111
   0.33333333 -0.00000000  0.00000000       0.222
  -0.00000000  0.33333333  0.00000000       0.222
   0.33333333  0.33333333  0.00000000       0.222
  -0.33333333  0.33333333  0.00000000       0.222
 
 position of ions in fractional coordinates (direct lattice) 
   0.99906184  0.99954688  0.49161128
   0.05489590  0.11102190  0.49170017
   0.16741276  0.00190971  0.49015696
   0.22318859  0.11324202  0.49129424
   0.33428600  0.00264629  0.49090118
   0.39029360  0.11429808  0.49348129
   0.50007103  0.00146211  0.49075805
   0.55552312  0.11258372  0.49268267
   0.66595833  0.99936854  0.49007400
   0.72170054  0.11098063  0.49081242
   0.83215366  0.99855284  0.49252523
   0.88780440  0.10998607  0.49150476
   0.99893497  0.16600721  0.49188473
   0.05441098  0.27744718  0.49250551
   0.16647994  0.16744428  0.49161586
   0.22215152  0.27873177  0.49167239
   0.33489475  0.16987451  0.49392452
   0.39114817  0.28106553  0.49750453
   0.50161522  0.17012532  0.49473926
   0.55754059  0.28179111  0.49873359
   0.66623480  0.16737858  0.49254329
   0.72178174  0.27835342  0.49430592
   0.83245501  0.16590388  0.49107112
   0.88756364  0.27707159  0.49159881
   0.99885058  0.33293854  0.49228900
   0.05469748  0.44441759  0.49251363
   0.16545520  0.33323999  0.49311993
   0.22022206  0.44453819  0.49457325
   0.33415279  0.33544305  0.49291453
   0.38709092  0.44557705  0.49353469
   0.50347278  0.33974382  0.50412248
   0.55954232  0.45167849  0.51590967
   0.66731566  0.33378678  0.49820562
   0.72321728  0.44390587  0.49980485
   0.83230702  0.33324050  0.49253525
   0.88939966  0.44473226  0.49231787
   0.99984602  0.50033561  0.49154919
   0.05552426  0.61176609  0.49099883
   0.16526594  0.50034796  0.49401028
   0.22093926  0.61193627  0.49319223
   0.33066672  0.49982908  0.49149230
   0.38718986  0.61285086  0.48914630
   0.66994780  0.49929091  0.50789801
   0.72599391  0.61111226  0.50671386
   0.83414823  0.49950931  0.49477682
   0.88981682  0.61099616  0.49420755
   0.00055715  0.66727463  0.49113376
   0.05599095  0.77880182  0.49043371
   0.16631070  0.66776883  0.49117451
   0.22221810  0.77920766  0.48996096
   0.33160985  0.66793216  0.49211862
   0.38828313  0.77906808  0.48957950
   0.49730443  0.66628750  0.48527278
   0.55405184  0.77625717  0.48799534
   0.66512569  0.66030120  0.51312396
   0.71873359  0.77210483  0.50165273
   0.83527102  0.66692271  0.49823210
   0.88942589  0.77797564  0.49578205
   0.00043134  0.83424496  0.49182488
   0.05601771  0.94547298  0.49080942
   0.16708568  0.83500341  0.48944373
   0.22301416  0.94651918  0.48976266
   0.33324324  0.83509050  0.48975839
   0.38907767  0.94642282  0.49023727
   0.49946515  0.83360762  0.48800285
   0.55515402  0.94495745  0.48945727
   0.66531700  0.83075156  0.49444027
   0.72070889  0.94214007  0.49212008
   0.83115894  0.83074184  0.49679664
   0.88737681  0.94275639  0.49318203
   0.51326989  0.55663118  0.54184572
   0.51651050  0.51854344  0.66233663
   0.51707540  0.50098579  0.73809420
 
 position of ions in cartesian coordinates  (Angst):
   7.41951493 12.74122838  7.37416916
  -0.00913982  1.41537305  7.37550259
   2.47359426  0.02382256  7.35235441
   2.47522401  1.44315054  7.36941361
   4.94788761  0.03268913  7.36351764
   4.95058776  1.45608990  7.40221942
   7.42028138  0.01706924  7.36137081
   7.41866586  1.43371190  7.39023998
   2.47086221 12.74000224  7.35110993
   9.90000320  1.41274951  7.36218623
   4.94661529 12.72907920  7.38787844
  12.37572581  1.39954634  7.37257147
  13.61090398  2.11347459  7.37827091
  -1.25290044  3.53732153  7.38758269
   1.22979568  2.13441573  7.37423786
   1.23020943  3.55317257  7.37508583
   3.71441308  2.16487187  7.40886784
   3.72418974  3.58239688  7.46256798
   6.19004559  2.16754536  7.42108895
   6.19141970  3.59112481  7.48100380
   8.65673042  2.13200623  7.38814937
   8.65761497  3.54677713  7.41458873
  11.13774970  2.11268073  7.36606685
  11.13068780  3.52991216  7.37398213
  12.36933524  4.24187402  7.38433504
  -2.48924812  5.66621804  7.38770438
  -0.01730898  4.24833875  7.39679897
  -0.03041927  5.66723503  7.41859873
   2.47319838  4.27589756  7.39371792
   2.44156296  5.67995587  7.40302040
   4.95736855  4.33020043  7.56183719
   4.95888744  5.75720772  7.73864506
   7.43636441  4.25373198  7.47308428
   7.44887787  5.65759088  7.49707269
   9.89222452  4.24624789  7.38802878
   9.91223767  5.66760476  7.38476800
  11.14035234  6.37620836  7.37323792
  -3.72037636  7.79993349  7.36498243
  -1.26174866  6.37899070  7.41015418
  -1.26354427  7.80158316  7.39788343
   1.19999190  6.37185470  7.37238457
   1.20017391  7.81272141  7.33719448
   6.24576806  6.36392582  7.61847022
   6.24778070  7.78948835  7.60070795
   8.68419308  6.36619401  7.42165223
   8.68308102  7.78749276  7.41311328
  -4.94963091  8.50784852  7.36700634
  -4.95453166  9.92966232  7.35650572
  -2.49017534  8.51362829  7.36761763
  -2.48738183  9.93431401  7.34941438
  -0.03501393  8.51519084  7.38177931
  -0.01858877  9.93201214  7.34369255
   2.43945709  8.49370005  7.27909176
   2.46564923  9.89565123  7.31993017
   4.97778982  8.41684604  7.69685941
   4.94370183  9.84219025  7.52479102
   7.45698141  8.50073613  7.47348155
   7.43659925  9.91650717  7.43673076
  -6.19210482 10.63674529  7.37737315
  -6.19251564 12.05474417  7.36214137
  -3.72122693 10.64589159  7.34165599
  -3.71869190 12.06755816  7.34643990
  -1.25274298 10.64647930  7.34637589
  -1.25024251 12.06580732  7.35355898
   1.22836221 10.62704964  7.32004271
   1.22856958 12.04660131  7.34185901
   3.71417117 10.59011283  7.41660408
   3.70967807 12.01015852  7.38180127
   6.17868443 10.58946722  7.45194960
   6.18181385 12.01749246  7.39773043
   3.49146295  7.09551564  8.12768579
   3.82261429  6.60988108  9.93504944
   3.96146380  6.38601663 11.07141303
 


--------------------------------------------------------------------------------------------------------


 k-point  1 :   0.0000 0.0000 0.0000  plane waves:   59561
 k-point  2 :   0.3333-0.0000 0.0000  plane waves:   59526
 k-point  3 :  -0.0000 0.3333 0.0000  plane waves:   59590
 k-point  4 :   0.3333 0.3333 0.0000  plane waves:   59600
 k-point  5 :  -0.3333 0.3333 0.0000  plane waves:   59522

 maximum and minimum number of plane-waves per node :      4992     4939

 maximum number of plane-waves:     59600
 maximum index in each direction: 
   IXMAX=   25   IYMAX=   25   IZMAX=   25
   IXMIN=  -25   IYMIN=  -25   IZMIN=  -25


 parallel 3D FFT for wavefunctions:
    minimum data exchange during FFTs selected (reduces bandwidth)
 parallel 3D FFT for charge:
    minimum data exchange during FFTs selected (reduces bandwidth)


 total amount of memory used by VASP MPI-rank0   116094. kBytes
=======================================================================

   base      :      30000. kBytes
   nonl-proj :      27308. kBytes
   fftplans  :       4700. kBytes
   grid      :      15193. kBytes
   one-center:        217. kBytes
   wavefun   :      38676. kBytes
 
     INWAV:  cpu time    0.0000: real time    0.0002
 Broyden mixing: mesh for mixing (old mesh)
   NGX = 51   NGY = 51   NGZ = 51
  (NGX  =160   NGY  =160   NGZ  =160)
  gives a total of 132651 points

 initial charge density was supplied:
 charge density of overlapping atoms calculated
 number of electron     303.0000000 magnetization       2.0000000
 keeping initial charge density in first step


--------------------------------------------------------------------------------------------------------


 Maximum index for augmentation-charges          179 (set IRDMAX)


--------------------------------------------------------------------------------------------------------


 First call to EWALD:  gamma=   0.125
 Maximum number of real-space cells 3x 3x 3
 Maximum number of reciprocal cells 3x 3x 3

    FEWALD:  cpu time    0.0046: real time    0.0050


--------------------------------------- Iteration      1(   1)  ---------------------------------------


    POTLOK:  cpu time    0.1653: real time    0.2438
    SETDIJ:  cpu time    0.0095: real time    0.0117
     EDDAV:  cpu time   11.2157: real time   11.3194
 BZINTS: Fermi energy:  8.046544;303.000000 electrons
         Band energy:***********;  BLOECHL correction: -0.029883
       DOS:  cpu time    0.1113: real time    0.1115
    --------------------------------------------
      LOOP:  cpu time   11.5017: real time   11.6865

 eigenvalue-minimisations  :  4384
 total energy-change (2. order) : 0.2533910E+04  (-0.1122002E+05)
 number of electron     303.0000000 magnetization       2.0000000
 augmentation part      303.0000000 magnetization       2.0000000

 Free energy of the ion-electron system (eV)
  ---------------------------------------------------
  alpha Z        PSCENC =       167.33849726
  Ewald energy   TEWEN  =     30895.54856146
  -Hartree energ DENC   =    -40565.05372469
  -exchange      EXHF   =         0.00000000
  -V(xc)+E(xc)   XCENC  =      1023.37401045
  PAW double counting   =      9455.23336183    -9546.47664214
  entropy T*S    EENTRO =         0.00000000
  eigenvalues    EBANDS =     -1540.80725101
  atomic energy  EATOM  =     12644.75315347
  Solvation  Ediel_sol  =         0.00000000
  ---------------------------------------------------
  free energy    TOTEN  =      2533.90996664 eV

  energy without entropy =     2533.90996664  energy(sigma->0) =     2533.90996664


--------------------------------------------------------------------------------------------------------




--------------------------------------- Iteration      1(   2)  ---------------------------------------


     EDDAV:  cpu time   14.7021: real time   15.0483
 BZINTS: Fermi energy: -1.940735;303.000000 electrons
         Band energy:***********;  BLOECHL correction:  0.000000
       DOS:  cpu time    0.0049: real time    0.0049
    --------------------------------------------
      LOOP:  cpu time   14.7069: real time   15.0532

 eigenvalue-minimisations  :  5456
 total energy-change (2. order) :-0.2774440E+04  (-0.2651282E+04)
 number of electron     303.0000000 magnetization       2.0000000
 augmentation part      303.0000000 magnetization       2.0000000

 Free energy of the ion-electron system (eV)
  ---------------------------------------------------
  alpha Z        PSCENC =       167.33849726
  Ewald energy   TEWEN  =     30895.54856146
  -Hartree energ DENC   =    -40565.05372469
  -exchange      EXHF   =         0.00000000
  -V(xc)+E(xc)   XCENC  =      1023.37401045
  PAW double counting   =      9455.23336183    -9546.47664214
  entropy T*S    EENTRO =         0.00000000
  eigenvalues    EBANDS =     -4315.24696179
  atomic energy  EATOM  =     12644.75315347
  Solvation  Ediel_sol  =         0.00000000
  ---------------------------------------------------
  free energy    TOTEN  =      -240.52974413 eV

  energy without entropy =     -240.52974413  energy(sigma->0) =     -240.52974413


--------------------------------------------------------------------------------------------------------




--------------------------------------- Iteration      1(   3)  ---------------------------------------


     EDDAV:  cpu time   13.2623: real time   13.4516
 BZINTS: Fermi energy: -4.541734;303.000000 electrons
         Band energy:***********;  BLOECHL correction: -0.055374
       DOS:  cpu time    0.0116: real time    0.0117
    --------------------------------------------
      LOOP:  cpu time   13.2739: real time   13.4633

 eigenvalue-minimisations  :  4624
 total energy-change (2. order) :-0.4594390E+03  (-0.4553043E+03)
 number of electron     303.0000000 magnetization       2.0000000
 augmentation part      303.0000000 magnetization       2.0000000

 Free energy of the ion-electron system (eV)
  ---------------------------------------------------
  alpha Z        PSCENC =       167.33849726
  Ewald energy   TEWEN  =     30895.54856146
  -Hartree energ DENC   =    -40565.05372469
  -exchange      EXHF   =         0.00000000
  -V(xc)+E(xc)   XCENC  =      1023.37401045
  PAW double counting   =      9455.23336183    -9546.47664214
  entropy T*S    EENTRO =         0.00000000
  eigenvalues    EBANDS =     -4774.68596128
  atomic energy  EATOM  =     12644.75315347
  Solvation  Ediel_sol  =         0.00000000
  ---------------------------------------------------
  free energy    TOTEN  =      -699.96874362 eV

  energy without entropy =     -699.96874362  energy(sigma->0) =     -699.96874362


--------------------------------------------------------------------------------------------------------




--------------------------------------- Iteration      1(   4)  ---------------------------------------


     EDDAV:  cpu time   13.0620: real time   13.2413
 BZINTS: Fermi energy: -4.714433;303.000000 electrons
         Band energy:***********;  BLOECHL correction: -0.048004
       DOS:  cpu time    0.0125: real time    0.0125
    --------------------------------------------
      LOOP:  cpu time   13.0745: real time   13.2539

 eigenvalue-minimisations  :  4640
 total energy-change (2. order) :-0.1665978E+02  (-0.1651596E+02)
 number of electron     303.0000000 magnetization       2.0000000
 augmentation part      303.0000000 magnetization       2.0000000

 Free energy of the ion-electron system (eV)
  ---------------------------------------------------
  alpha Z        PSCENC =       167.33849726
  Ewald energy   TEWEN  =     30895.54856146
  -Hartree energ DENC   =    -40565.05372469
  -exchange      EXHF   =         0.00000000
  -V(xc)+E(xc)   XCENC  =      1023.37401045
  PAW double counting   =      9455.23336183    -9546.47664214
  entropy T*S    EENTRO =         0.00000000
  eigenvalues    EBANDS =     -4791.34574396
  atomic energy  EATOM  =     12644.75315347
  Solvation  Ediel_sol  =         0.00000000
  ---------------------------------------------------
  free energy    TOTEN  =      -716.62852631 eV

  energy without entropy =     -716.62852631  energy(sigma->0) =     -716.62852631


--------------------------------------------------------------------------------------------------------




--------------------------------------- Iteration      1(   5)  ---------------------------------------


     EDDAV:  cpu time   14.2469: real time   14.5302
 BZINTS: Fermi energy: -4.724576;303.000000 electrons
         Band energy:***********;  BLOECHL correction: -0.048020
       DOS:  cpu time    0.0116: real time    0.0116
    CHARGE:  cpu time    0.1696: real time    0.1738
    MIXING:  cpu time    0.0048: real time    0.0049
    --------------------------------------------
      LOOP:  cpu time   14.4328: real time   14.7205

 eigenvalue-minimisations  :  5320
 total energy-change (2. order) :-0.5522651E+00  (-0.5506351E+00)
 number of electron     302.9999992 magnetization       0.2008213
 augmentation part       12.4882595 magnetization       0.1031275

 Broyden mixing:
  rms(total) = 0.47989E+01    rms(broyden)= 0.47983E+01
  rms(prec ) = 0.54763E+01
  weight for this iteration     100.00

 Free energy of the ion-electron system (eV)
  ---------------------------------------------------
  alpha Z        PSCENC =       167.33849726
  Ewald energy   TEWEN  =     30895.54856146
  -Hartree energ DENC   =    -40565.05372469
  -exchange      EXHF   =         0.00000000
  -V(xc)+E(xc)   XCENC  =      1023.37401045
  PAW double counting   =      9455.23336183    -9546.47664214
  entropy T*S    EENTRO =         0.00000000
  eigenvalues    EBANDS =     -4791.89800906
  atomic energy  EATOM  =     12644.75315347
  Solvation  Ediel_sol  =         0.00000000
  ---------------------------------------------------
  free energy    TOTEN  =      -717.18079141 eV

  energy without entropy =     -717.18079141  energy(sigma->0) =     -717.18079141


--------------------------------------------------------------------------------------------------------




--------------------------------------- Iteration      1(   6)  ---------------------------------------


    POTLOK:  cpu time    0.1265: real time    0.1291
    SETDIJ:  cpu time    0.0088: real time    0.0088
     EDDAV:  cpu time   12.5022: real time   12.6349
 BZINTS: Fermi energy: -5.551385;303.000000 electrons
         Band energy:***********;  BLOECHL correction: -0.018872
       DOS:  cpu time    0.0134: real time    0.0135
    CHARGE:  cpu time    0.2098: real time    0.2169
    MIXING:  cpu time    0.0035: real time    0.0041
    --------------------------------------------
      LOOP:  cpu time   12.8641: real time   13.0074

 eigenvalue-minimisations  :  4784
 total energy-change (2. order) : 0.6397979E+01  (-0.7194599E+01)
 number of electron     302.9999999 magnetization       0.1560227
 augmentation part       17.8108592 magnetization       0.1305281

 Broyden mixing:
  rms(total) = 0.71111E+01    rms(broyden)= 0.71108E+01
  rms(prec ) = 0.81406E+01
  weight for this iteration     100.00

 eigenvalues of (default mixing * dielectric matrix)
  average eigenvalue GAMMA=   0.2852
  0.2852

 Free energy of the ion-electron system (eV)
  ---------------------------------------------------
  alpha Z        PSCENC =       167.33849726
  Ewald energy   TEWEN  =     30895.54856146
  -Hartree energ DENC   =    -40925.02305821
  -exchange      EXHF   =         0.00000000
  -V(xc)+E(xc)   XCENC  =      1035.99101825
  PAW double counting   =     13278.64324651   -13370.28463842
  entropy T*S    EENTRO =         0.00000000
  eigenvalues    EBANDS =     -4437.74959300
  atomic energy  EATOM  =     12644.75315347
  Solvation  Ediel_sol  =         0.00000000
  ---------------------------------------------------
  free energy    TOTEN  =      -710.78281268 eV

  energy without entropy =     -710.78281268  energy(sigma->0) =     -710.78281268


--------------------------------------------------------------------------------------------------------




--------------------------------------- Iteration      1(   7)  ---------------------------------------


    POTLOK:  cpu time    0.1442: real time    0.1510
    SETDIJ:  cpu time    0.0101: real time    0.0101
     EDDAV:  cpu time   13.6738: real time   13.7819
 BZINTS: Fermi energy: -4.010557;303.000000 electrons
         Band energy:***********;  BLOECHL correction: -0.013645
       DOS:  cpu time    0.0122: real time    0.0122
    CHARGE:  cpu time    0.1643: real time    0.1680
    MIXING:  cpu time    0.0039: real time    0.0044
    --------------------------------------------
      LOOP:  cpu time   14.0085: real time   14.1277

 eigenvalue-minimisations  :  5336
 total energy-change (2. order) : 0.3517120E+02  (-0.7599525E+01)
 number of electron     302.9999997 magnetization       0.4624542
 augmentation part       13.8944047 magnetization       0.1913660

 Broyden mixing:
  rms(total) = 0.25341E+01    rms(broyden)= 0.25336E+01
  rms(prec ) = 0.27675E+01
  weight for this iteration     100.00

 eigenvalues of (default mixing * dielectric matrix)
  average eigenvalue GAMMA=   0.7783
  1.2757  0.2809

 Free energy of the ion-electron system (eV)
  ---------------------------------------------------
  alpha Z        PSCENC =       167.33849726
  Ewald energy   TEWEN  =     30895.54856146
  -Hartree energ DENC   =    -41079.87514281
  -exchange      EXHF   =         0.00000000
  -V(xc)+E(xc)   XCENC  =      1040.37941863
  PAW double counting   =     14471.24726351   -14567.22669870
  entropy T*S    EENTRO =         0.00000000
  eigenvalues    EBANDS =     -4247.77666488
  atomic energy  EATOM  =     12644.75315347
  Solvation  Ediel_sol  =         0.00000000
  ---------------------------------------------------
  free energy    TOTEN  =      -675.61161205 eV

  energy without entropy =     -675.61161205  energy(sigma->0) =     -675.61161205


--------------------------------------------------------------------------------------------------------




--------------------------------------- Iteration      1(   8)  ---------------------------------------


    POTLOK:  cpu time    0.1518: real time    0.1542
    SETDIJ:  cpu time    0.0089: real time    0.0090
     EDDAV:  cpu time   12.6062: real time   12.7393
 BZINTS: Fermi energy: -2.462431;303.000000 electrons
         Band energy:***********;  BLOECHL correction: -0.052080
       DOS:  cpu time    0.0118: real time    0.0119
    CHARGE:  cpu time    0.1633: real time    0.1650
    MIXING:  cpu time    0.0034: real time    0.0035
    --------------------------------------------
      LOOP:  cpu time   12.9454: real time   13.0829

 eigenvalue-minimisations  :  4736
 total energy-change (2. order) : 0.7232251E+01  (-0.3068953E+01)
 number of electron     302.9999996 magnetization       0.2335528
 augmentation part       12.5570993 magnetization       0.0731566

 Broyden mixing:
  rms(total) = 0.21702E+01    rms(broyden)= 0.21700E+01
  rms(prec ) = 0.24940E+01
  weight for this iteration     100.00

 eigenvalues of (default mixing * dielectric matrix)
  average eigenvalue GAMMA=   1.2439
  2.8291  0.3092  0.5933

 Free energy of the ion-electron system (eV)
  ---------------------------------------------------
  alpha Z        PSCENC =       167.33849726
  Ewald energy   TEWEN  =     30895.54856146
  -Hartree energ DENC   =    -41408.19128499
  -exchange      EXHF   =         0.00000000
  -V(xc)+E(xc)   XCENC  =      1052.09457205
  PAW double counting   =     19084.53506706   -19184.03233691
  entropy T*S    EENTRO =         0.00000000
  eigenvalues    EBANDS =     -3920.42559023
  atomic energy  EATOM  =     12644.75315347
  Solvation  Ediel_sol  =         0.00000000
  ---------------------------------------------------
  free energy    TOTEN  =      -668.37936083 eV

  energy without entropy =     -668.37936083  energy(sigma->0) =     -668.37936083


--------------------------------------------------------------------------------------------------------




--------------------------------------- Iteration      1(   9)  ---------------------------------------


    POTLOK:  cpu time    0.1519: real time    0.1545
    SETDIJ:  cpu time    0.0089: real time    0.0089
     EDDAV:  cpu time   12.3047: real time   12.4206
 BZINTS: Fermi energy: -2.646246;303.000000 electrons
         Band energy:***********;  BLOECHL correction: -0.054281
       DOS:  cpu time    0.0106: real time    0.0106
    CHARGE:  cpu time    0.1630: real time    0.1642
    MIXING:  cpu time    0.0037: real time    0.0037
    --------------------------------------------
      LOOP:  cpu time   12.6428: real time   12.7625

 eigenvalue-minimisations  :  4616
 total energy-change (2. order) : 0.3757222E+01  (-0.2292515E+01)
 number of electron     302.9999996 magnetization       0.1631331
 augmentation part       14.2997497 magnetization      -0.0212580

 Broyden mixing:
  rms(total) = 0.14484E+01    rms(broyden)= 0.14476E+01
  rms(prec ) = 0.17409E+01
  weight for this iteration     100.00

 eigenvalues of (default mixing * dielectric matrix)
  average eigenvalue GAMMA=   1.2324
  3.1690  1.0372  0.3383  0.3849

 Free energy of the ion-electron system (eV)
  ---------------------------------------------------
  alpha Z        PSCENC =       167.33849726
  Ewald energy   TEWEN  =     30895.54856146
  -Hartree energ DENC   =    -41788.24802600
  -exchange      EXHF   =         0.00000000
  -V(xc)+E(xc)   XCENC  =      1066.07407686
  PAW double counting   =     26727.94760653   -26830.58163718
  entropy T*S    EENTRO =         0.00000000
  eigenvalues    EBANDS =     -3547.45437098
  atomic energy  EATOM  =     12644.75315347
  Solvation  Ediel_sol  =         0.00000000
  ---------------------------------------------------
  free energy    TOTEN  =      -664.62213856 eV

  energy without entropy =     -664.62213856  energy(sigma->0) =     -664.62213856


--------------------------------------------------------------------------------------------------------




--------------------------------------- Iteration      1(  10)  ---------------------------------------


    POTLOK:  cpu time    0.1510: real time    0.1525
    SETDIJ:  cpu time    0.0087: real time    0.0088
     EDDAV:  cpu time   13.5424: real time   13.6425
 BZINTS: Fermi energy: -1.968663;303.000000 electrons
         Band energy:***********;  BLOECHL correction: -0.003642
       DOS:  cpu time    0.0120: real time    0.0121
    CHARGE:  cpu time    0.2035: real time    0.2046
    MIXING:  cpu time    0.0041: real time    0.0042
    --------------------------------------------
      LOOP:  cpu time   13.9218: real time   14.0247

 eigenvalue-minimisations  :  5296
 total energy-change (2. order) : 0.1008232E+01  (-0.7884647E+00)
 number of electron     302.9999998 magnetization       0.7071132
 augmentation part       13.0304132 magnetization       0.1486793

 Broyden mixing:
  rms(total) = 0.73829E+00    rms(broyden)= 0.73779E+00
  rms(prec ) = 0.80813E+00
  weight for this iteration     100.00

 eigenvalues of (default mixing * dielectric matrix)
  average eigenvalue GAMMA=   1.2674
  3.5027  1.5012  0.6396  0.3469  0.3469

 Free energy of the ion-electron system (eV)
  ---------------------------------------------------
  alpha Z        PSCENC =       167.33849726
  Ewald energy   TEWEN  =     30895.54856146
  -Hartree energ DENC   =    -41793.38066771
  -exchange      EXHF   =         0.00000000
  -V(xc)+E(xc)   XCENC  =      1066.22057104
  PAW double counting   =     28410.16628303   -28512.96037714
  entropy T*S    EENTRO =         0.00000000
  eigenvalues    EBANDS =     -3541.29992787
  atomic energy  EATOM  =     12644.75315347
  Solvation  Ediel_sol  =         0.00000000
  ---------------------------------------------------
  free energy    TOTEN  =      -663.61390647 eV

  energy without entropy =     -663.61390647  energy(sigma->0) =     -663.61390647


--------------------------------------------------------------------------------------------------------




--------------------------------------- Iteration      1(  11)  ---------------------------------------


    POTLOK:  cpu time    0.1538: real time    0.1561
    SETDIJ:  cpu time    0.0111: real time    0.0111
     EDDAV:  cpu time   12.3984: real time   12.4955
 BZINTS: Fermi energy: -2.026382;303.000000 electrons
         Band energy:***********;  BLOECHL correction:  0.000000
       DOS:  cpu time    0.0052: real time    0.0052
    CHARGE:  cpu time    0.1630: real time    0.1645
    MIXING:  cpu time    0.0039: real time    0.0039
    --------------------------------------------
      LOOP:  cpu time   12.7353: real time   12.8364

 eigenvalue-minimisations  :  4648
 total energy-change (2. order) : 0.4839651E-01  (-0.9612827E-01)
 number of electron     302.9999998 magnetization       1.1423130
 augmentation part       13.0703387 magnetization       0.4872645

 Broyden mixing:
  rms(total) = 0.53794E+00    rms(broyden)= 0.53780E+00
  rms(prec ) = 0.61455E+00
  weight for this iteration     100.00

 eigenvalues of (default mixing * dielectric matrix)
  average eigenvalue GAMMA=   1.2691
  3.5510  1.9307  0.7082  0.7082  0.3583  0.3583

 Free energy of the ion-electron system (eV)
  ---------------------------------------------------
  alpha Z        PSCENC =       167.33849726
  Ewald energy   TEWEN  =     30895.54856146
  -Hartree energ DENC   =    -41766.44326690
  -exchange      EXHF   =         0.00000000
  -V(xc)+E(xc)   XCENC  =      1065.81414333
  PAW double counting   =     30248.17113017   -30350.51541173
  entropy T*S    EENTRO =         0.00000000
  eigenvalues    EBANDS =     -3568.23231702
  atomic energy  EATOM  =     12644.75315347
  Solvation  Ediel_sol  =         0.00000000
  ---------------------------------------------------
  free energy    TOTEN  =      -663.56550996 eV

  energy without entropy =     -663.56550996  energy(sigma->0) =     -663.56550996


--------------------------------------------------------------------------------------------------------




--------------------------------------- Iteration      1(  12)  ---------------------------------------


    POTLOK:  cpu time    0.1537: real time    0.1560
    SETDIJ:  cpu time    0.0092: real time    0.0099
     EDDAV:  cpu time   12.3580: real time   12.5200
 BZINTS: Fermi energy: -2.182045;303.000000 electrons
         Band energy:***********;  BLOECHL correction:  0.000000
       DOS:  cpu time    0.0089: real time    0.0093
    CHARGE:  cpu time    0.1605: real time    0.1615
    MIXING:  cpu time    0.0040: real time    0.0040
    --------------------------------------------
      LOOP:  cpu time   12.6944: real time   12.8607

 eigenvalue-minimisations  :  4648
 total energy-change (2. order) : 0.1455174E+00  (-0.4517975E-01)
 number of electron     302.9999997 magnetization       0.9967013
 augmentation part       13.3182453 magnetization       0.4690745

 Broyden mixing:
  rms(total) = 0.27773E+00    rms(broyden)= 0.27758E+00
  rms(prec ) = 0.28400E+00
  weight for this iteration     100.00

 eigenvalues of (default mixing * dielectric matrix)
  average eigenvalue GAMMA=   1.3586
  3.8067  2.4295  0.8959  0.8959  0.3578  0.3578  0.7668

 Free energy of the ion-electron system (eV)
  ---------------------------------------------------
  alpha Z        PSCENC =       167.33849726
  Ewald energy   TEWEN  =     30895.54856146
  -Hartree energ DENC   =    -41716.92132666
  -exchange      EXHF   =         0.00000000
  -V(xc)+E(xc)   XCENC  =      1064.33743335
  PAW double counting   =     31430.60850748   -31532.27946560
  entropy T*S    EENTRO =         0.00000000
  eigenvalues    EBANDS =     -3616.80535336
  atomic energy  EATOM  =     12644.75315347
  Solvation  Ediel_sol  =         0.00000000
  ---------------------------------------------------
  free energy    TOTEN  =      -663.41999260 eV

  energy without entropy =     -663.41999260  energy(sigma->0) =     -663.41999260


--------------------------------------------------------------------------------------------------------




--------------------------------------- Iteration      1(  13)  ---------------------------------------


    POTLOK:  cpu time    0.1669: real time    0.1696
    SETDIJ:  cpu time    0.0100: real time    0.0100
     EDDAV:  cpu time   12.6039: real time   12.7137
 BZINTS: Fermi energy: -2.222055;303.000000 electrons
         Band energy:***********;  BLOECHL correction:  0.000000
       DOS:  cpu time    0.0089: real time    0.0089
    CHARGE:  cpu time    0.1616: real time    0.1631
    MIXING:  cpu time    0.0037: real time    0.0037
    --------------------------------------------
      LOOP:  cpu time   12.9549: real time   13.0690

 eigenvalue-minimisations  :  4736
 total energy-change (2. order) :-0.1625050E-01  (-0.1614161E-01)
 number of electron     302.9999997 magnetization       0.9574262
 augmentation part       13.3985178 magnetization       0.4950333

 Broyden mixing:
  rms(total) = 0.19924E+00    rms(broyden)= 0.19916E+00
  rms(prec ) = 0.20253E+00
  weight for this iteration     100.00

 eigenvalues of (default mixing * dielectric matrix)
  average eigenvalue GAMMA=   1.3635
  3.7429  2.2931  1.6338  1.0410  0.7410  0.7410  0.3575  0.3575

 Free energy of the ion-electron system (eV)
  ---------------------------------------------------
  alpha Z        PSCENC =       167.33849726
  Ewald energy   TEWEN  =     30895.54856146
  -Hartree energ DENC   =    -41702.49488830
  -exchange      EXHF   =         0.00000000
  -V(xc)+E(xc)   XCENC  =      1063.91823946
  PAW double counting   =     31923.39195428   -32024.81280312
  entropy T*S    EENTRO =         0.00000000
  eigenvalues    EBANDS =     -3631.07895760
  atomic energy  EATOM  =     12644.75315347
  Solvation  Ediel_sol  =         0.00000000
  ---------------------------------------------------
  free energy    TOTEN  =      -663.43624310 eV

  energy without entropy =     -663.43624310  energy(sigma->0) =     -663.43624310


--------------------------------------------------------------------------------------------------------




--------------------------------------- Iteration      1(  14)  ---------------------------------------


    POTLOK:  cpu time    0.1504: real time    0.1530
    SETDIJ:  cpu time    0.0084: real time    0.0088
     EDDAV:  cpu time   11.7937: real time   11.8778
 BZINTS: Fermi energy: -2.202050;303.000000 electrons
         Band energy:***********;  BLOECHL correction:  0.000000
       DOS:  cpu time    0.0090: real time    0.0094
    CHARGE:  cpu time    0.1926: real time    0.1936
    MIXING:  cpu time    0.0045: real time    0.0045
    --------------------------------------------
      LOOP:  cpu time   12.1585: real time   12.2471

 eigenvalue-minimisations  :  4400
 total energy-change (2. order) :-0.4511597E-02  (-0.2860659E-02)
 number of electron     302.9999997 magnetization       0.9901719
 augmentation part       13.4022442 magnetization       0.5470429

 Broyden mixing:
  rms(total) = 0.16567E+00    rms(broyden)= 0.16565E+00
  rms(prec ) = 0.17145E+00
  weight for this iteration     100.00

 eigenvalues of (default mixing * dielectric matrix)
  average eigenvalue GAMMA=   1.3985
  3.6509  2.7305  2.0335  0.3577  0.3577  1.0504  0.8216  0.8216  0.7630

 Free energy of the ion-electron system (eV)
  ---------------------------------------------------
  alpha Z        PSCENC =       167.33849726
  Ewald energy   TEWEN  =     30895.54856146
  -Hartree energ DENC   =    -41709.93507380
  -exchange      EXHF   =         0.00000000
  -V(xc)+E(xc)   XCENC  =      1064.15398642
  PAW double counting   =     31866.08050914   -31967.52597980
  entropy T*S    EENTRO =         0.00000000
  eigenvalues    EBANDS =     -3623.85440885
  atomic energy  EATOM  =     12644.75315347
  Solvation  Ediel_sol  =         0.00000000
  ---------------------------------------------------
  free energy    TOTEN  =      -663.44075469 eV

  energy without entropy =     -663.44075469  energy(sigma->0) =     -663.44075469


--------------------------------------------------------------------------------------------------------




--------------------------------------- Iteration      1(  15)  ---------------------------------------


    POTLOK:  cpu time    0.1370: real time    0.1395
    SETDIJ:  cpu time    0.0105: real time    0.0105
     EDDAV:  cpu time   12.6244: real time   12.7787
 BZINTS: Fermi energy: -2.207052;303.000000 electrons
         Band energy:***********;  BLOECHL correction:  0.000000
       DOS:  cpu time    0.0090: real time    0.0091
    CHARGE:  cpu time    0.1608: real time    0.1613
    MIXING:  cpu time    0.0045: real time    0.0045
    --------------------------------------------
      LOOP:  cpu time   12.9462: real time   13.1037

 eigenvalue-minimisations  :  4856
 total energy-change (2. order) : 0.9354949E-03  (-0.6387956E-03)
 number of electron     302.9999997 magnetization       1.0131571
 augmentation part       13.3916458 magnetization       0.5935545

 Broyden mixing:
  rms(total) = 0.10787E+00    rms(broyden)= 0.10786E+00
  rms(prec ) = 0.11246E+00
  weight for this iteration     100.00

 eigenvalues of (default mixing * dielectric matrix)
  average eigenvalue GAMMA=   1.3981
  3.7326  2.8711  1.7015  1.7015  0.3576  0.3576  0.9783  0.7913  0.7913  0.6982

 Free energy of the ion-electron system (eV)
  ---------------------------------------------------
  alpha Z        PSCENC =       167.33849726
  Ewald energy   TEWEN  =     30895.54856146
  -Hartree energ DENC   =    -41707.51189259
  -exchange      EXHF   =         0.00000000
  -V(xc)+E(xc)   XCENC  =      1064.07540688
  PAW double counting   =     31876.56021144   -31977.90588503
  entropy T*S    EENTRO =         0.00000000
  eigenvalues    EBANDS =     -3626.29787210
  atomic energy  EATOM  =     12644.75315347
  Solvation  Ediel_sol  =         0.00000000
  ---------------------------------------------------
  free energy    TOTEN  =      -663.43981920 eV

  energy without entropy =     -663.43981920  energy(sigma->0) =     -663.43981920


--------------------------------------------------------------------------------------------------------




--------------------------------------- Iteration      1(  16)  ---------------------------------------


    POTLOK:  cpu time    0.1519: real time    0.1535
    SETDIJ:  cpu time    0.0102: real time    0.0102
     EDDAV:  cpu time   12.6625: real time   12.8008
 BZINTS: Fermi energy: -2.207052;303.000000 electrons
         Band energy:***********;  BLOECHL correction:  0.000000
       DOS:  cpu time    0.0091: real time    0.0092
    CHARGE:  cpu time    0.1629: real time    0.1671
    MIXING:  cpu time    0.0042: real time    0.0046
    --------------------------------------------
      LOOP:  cpu time   13.0008: real time   13.1454

 eigenvalue-minimisations  :  4720
 total energy-change (2. order) : 0.5839589E-03  (-0.2605585E-03)
 number of electron     302.9999997 magnetization       1.0016702
 augmentation part       13.3822461 magnetization       0.5847668

 Broyden mixing:
  rms(total) = 0.82840E-01    rms(broyden)= 0.82838E-01
  rms(prec ) = 0.85419E-01
  weight for this iteration     100.00

 eigenvalues of (default mixing * dielectric matrix)
  average eigenvalue GAMMA=   1.3979
  3.6941  2.2619  2.2619  2.2110  0.3576  0.3576  1.0242  0.8522  0.8522  0.7519
  0.7519

 Free energy of the ion-electron system (eV)
  ---------------------------------------------------
  alpha Z        PSCENC =       167.33849726
  Ewald energy   TEWEN  =     30895.54856146
  -Hartree energ DENC   =    -41707.30921938
  -exchange      EXHF   =         0.00000000
  -V(xc)+E(xc)   XCENC  =      1064.07506201
  PAW double counting   =     31902.19413558   -32003.48765524
  entropy T*S    EENTRO =         0.00000000
  eigenvalues    EBANDS =     -3626.55177041
  atomic energy  EATOM  =     12644.75315347
  Solvation  Ediel_sol  =         0.00000000
  ---------------------------------------------------
  free energy    TOTEN  =      -663.43923524 eV

[...]
   0.155E+02 -.333E+01 0.346E+01   -.154E+02 0.339E+01 -.325E+01   -.544E-01 -.272E-01 -.211E+00   0.887E-02 -.168E-01 -.203E-01
   0.564E+02 0.145E+02 0.615E+02   -.564E+02 -.150E+02 -.633E+02   0.159E+00 0.639E+00 0.188E+01   -.686E-01 -.103E+00 -.814E-01
   0.539E+02 -.202E+02 0.645E+02   -.534E+02 0.212E+02 -.658E+02   -.248E+00 -.104E+01 0.141E+01   -.119E+00 0.528E-02 -.913E-01
   -.368E+02 0.348E+01 0.913E+01   0.345E+02 -.256E+01 -.856E+01   0.221E+01 -.830E+00 -.534E+00   0.417E-01 -.765E-01 -.495E-01
   -.378E+02 -.247E+02 0.878E+01   0.363E+02 0.255E+02 -.840E+01   0.139E+01 -.823E+00 -.353E+00   0.757E-01 -.115E-01 -.537E-01
   -.175E+02 -.673E+01 0.173E+02   0.183E+02 0.765E+01 -.174E+02   -.761E+00 -.916E+00 0.963E-01   -.337E-01 -.151E-01 -.110E-01
   -.160E+02 -.760E+01 0.171E+02   0.158E+02 0.825E+01 -.171E+02   0.237E+00 -.602E+00 0.190E-01   -.170E-01 -.234E-01 -.120E-01
   -.597E+01 -.623E+01 0.172E+02   0.599E+01 0.635E+01 -.172E+02   0.999E-02 -.176E+00 0.878E-01   -.122E-01 -.123E-01 -.866E-02
   -.399E+01 -.554E+01 0.154E+02   0.390E+01 0.571E+01 -.154E+02   0.899E-01 -.900E-01 -.348E-01   -.896E-03 -.191E-01 -.826E-02
   0.673E+01 -.436E+01 0.984E+01   -.672E+01 0.440E+01 -.986E+01   -.657E-01 -.649E-01 0.196E-01   0.649E-02 -.781E-02 -.108E-01
   0.426E+01 -.472E+01 0.121E+02   -.427E+01 0.481E+01 -.121E+02   0.126E-01 -.964E-02 -.991E-02   0.536E-02 -.710E-02 -.954E-02
   0.250E+02 -.119E+02 0.114E+02   -.248E+02 0.119E+02 -.111E+02   -.184E+00 0.754E-01 -.293E+00   -.502E-02 -.204E-01 -.344E-01
   0.126E+02 -.157E+02 0.192E+02   -.123E+02 0.157E+02 -.193E+02   -.225E+00 0.258E-01 0.836E-01   -.521E-02 -.566E-02 -.208E-01
   -.340E+01 -.578E+02 0.140E+03   0.111E+02 0.542E+02 -.141E+03   -.755E+01 0.334E+01 0.139E+01   -.190E+00 0.188E+00 -.192E+00
   0.325E+01 -.375E+02 0.535E+02   -.279E+01 0.368E+02 -.534E+02   -.405E+00 0.726E+00 -.129E-01   -.419E-01 0.245E-01 -.552E-01
   -.143E+02 -.560E+02 -.217E+01   0.752E+01 0.517E+02 0.431E+01   0.647E+01 0.419E+01 -.200E+01   0.231E+00 0.148E+00 -.118E+00
   -.713E+01 -.308E+02 0.576E+01   0.679E+01 0.293E+02 -.583E+01   0.277E+00 0.153E+01 0.929E-01   0.464E-01 0.231E-02 -.360E-01
   -.217E+02 -.163E+02 0.140E+02   0.211E+02 0.163E+02 -.141E+02   0.632E+00 -.473E-01 0.153E+00   -.291E-02 -.392E-01 -.183E-01
   -.106E+02 -.173E+02 0.971E+01   0.102E+02 0.175E+02 -.959E+01   0.292E+00 -.754E-01 -.100E+00   0.335E-02 -.287E-01 -.135E-01
   -.479E+01 -.514E+01 0.140E+02   0.459E+01 0.514E+01 -.140E+02   0.187E+00 -.269E-01 0.343E-01   0.601E-02 -.230E-01 -.923E-02
   -.236E+01 -.353E+01 0.141E+02   0.226E+01 0.358E+01 -.141E+02   0.316E-01 -.104E-01 0.148E-01   0.102E-01 -.190E-02 -.860E-02
   0.928E+00 -.172E+01 0.155E+02   -.990E+00 0.169E+01 -.155E+02   0.618E-01 -.359E-01 0.581E-01   0.468E-02 -.681E-02 -.780E-02
   0.182E-01 0.133E+01 0.147E+02   -.128E+00 -.133E+01 -.147E+02   0.948E-01 0.416E-01 0.131E-01   0.122E-01 0.138E-01 -.788E-02
   0.636E+01 -.448E+01 0.131E+02   -.634E+01 0.442E+01 -.131E+02   -.289E-01 0.473E-01 0.112E-01   0.734E-03 -.199E-02 -.114E-01
   0.300E+01 -.109E+01 0.119E+02   -.307E+01 0.985E+00 -.120E+02   0.659E-01 0.992E-01 0.148E-01   -.291E-02 0.635E-02 -.933E-02
   0.639E+01 -.160E+02 0.306E+02   -.585E+01 0.157E+02 -.307E+02   -.582E+00 0.283E+00 0.992E-01   -.179E-01 -.407E-03 -.238E-01
   0.380E+01 -.926E+01 0.170E+02   -.365E+01 0.902E+01 -.170E+02   -.156E+00 0.245E+00 0.168E-01   -.801E-02 0.519E-02 -.138E-01
   -.603E+01 -.220E+02 0.177E+02   0.636E+01 0.211E+02 -.174E+02   -.299E+00 0.855E+00 -.285E+00   -.103E-03 0.261E-01 -.341E-01
   -.284E+00 -.139E+02 0.134E+02   0.445E+00 0.133E+02 -.133E+02   -.119E+00 0.594E+00 -.136E-02   -.111E-01 0.121E-01 -.168E-01
   -.352E+01 -.161E+02 0.838E+01   0.288E+01 0.157E+02 -.841E+01   0.704E+00 0.443E+00 0.398E-01   0.734E-02 -.179E-01 -.174E-01
   -.410E+01 -.753E+01 0.111E+02   0.404E+01 0.724E+01 -.112E+02   0.577E-01 0.302E+00 0.958E-01   0.750E-03 -.744E-02 -.114E-01
   0.363E+02 -.926E+02 -.285E+03   -.271E+02 0.911E+02 0.279E+03   -.931E+01 0.187E+01 0.668E+01   0.235E-01 -.293E+00 -.520E+00
   0.115E+02 -.837E+01 -.265E+03   -.141E+02 0.125E+02 0.247E+03   0.262E+01 -.402E+01 0.185E+02   0.728E-01 -.116E+00 0.297E+00
   -.268E+02 0.532E+02 -.682E+03   0.337E+02 -.643E+02 0.739E+03   -.688E+01 0.111E+02 -.571E+02   0.352E-01 -.521E-01 0.107E+00
 -----------------------------------------------------------------------------------------------
   0.113E+02 -.101E+02 0.341E+02   0.284E-13 0.199E-12 -.114E-12   -.114E+02 0.104E+02 -.321E+02   0.857E-01 -.318E+00 -.200E+01
 
 
 POSITION                                       TOTAL-FORCE (eV/Angst)
 -----------------------------------------------------------------------------------
      7.41951     12.74123      7.37417         0.026025     -0.063984      0.022209
     -0.00914      1.41537      7.37550        -0.003589      0.017352     -0.011064
      2.47359      0.02382      7.35235         0.008392     -0.062267      0.006278
      2.47522      1.44315      7.36941        -0.020619      0.007696      0.011625
      4.94789      0.03269      7.36352         0.014055     -0.040125      0.004494
      4.95059      1.45609      7.40222        -0.033848      0.006833     -0.000488
      7.42028      0.01707      7.36137         0.008097     -0.071135      0.000163
      7.41867      1.43371      7.39024        -0.033293      0.066978     -0.010225
      2.47086     12.74000      7.35111        -0.005918      0.001983      0.010159
      9.90000      1.41275      7.36219         0.003683     -0.008336      0.006604
      4.94662     12.72908      7.38788        -0.012498      0.003563      0.012282
     12.37573      1.39955      7.37257         0.002336     -0.020299      0.009620
     13.61090      2.11347      7.37827        -0.006805      0.010969     -0.014312
     -1.25290      3.53732      7.38758         0.015714     -0.050040     -0.009864
      1.22980      2.13442      7.37424        -0.008485      0.007746     -0.017738
      1.23021      3.55317      7.37509        -0.015197     -0.007560      0.001397
      3.71441      2.16487      7.40887         0.027639      0.012069     -0.017593
      3.72419      3.58240      7.46257        -0.014468      0.038819     -0.004978
      6.19005      2.16755      7.42109         0.069098     -0.041768     -0.016887
      6.19142      3.59112      7.48100        -0.015275     -0.019963     -0.004390
      8.65673      2.13201      7.38815         0.015011      0.037570     -0.003189
      8.65761      3.54678      7.41459        -0.035976     -0.014748      0.009829
     11.13775      2.11268      7.36607        -0.019482      0.042670      0.029650
     11.13069      3.52991      7.37398         0.022334      0.014641      0.016301
     12.36934      4.24187      7.38434        -0.070951      0.021787     -0.011584
     -2.48925      5.66622      7.38770         0.002070     -0.011033     -0.004227
     -0.01731      4.24834      7.39680         0.044294      0.028621     -0.023231
     -0.03042      5.66724      7.41860        -0.022780     -0.018983     -0.001455
      2.47320      4.27590      7.39372         0.049306      0.033660      0.021547
      2.44156      5.67996      7.40302        -0.030300     -0.008503     -0.046539
      4.95737      4.33020      7.56184        -0.027670      0.046709      0.005234
      4.95889      5.75721      7.73865        -0.020704     -0.015817     -0.021676
      7.43636      4.25373      7.47308         0.008771      0.053610     -0.012918
      7.44888      5.65759      7.49707        -0.002569     -0.039963      0.006982
      9.89222      4.24625      7.38803         0.051903      0.061001      0.026386
      9.91224      5.66760      7.38477        -0.040170     -0.045688      0.026606
     11.14035      6.37621      7.37324         0.005916     -0.029170      0.013312
     -3.72038      7.79993      7.36498         0.021838      0.051801     -0.008375
     -1.26175      6.37899      7.41015        -0.020115     -0.027108     -0.009556
     -1.26354      7.80158      7.39788         0.060892      0.011613     -0.013314
      1.19999      6.37185      7.37238         0.010755      0.022349     -0.009360
      1.20017      7.81272      7.33719         0.024194     -0.037307      0.008982
      6.24577      6.36393      7.61847        -0.026368     -0.000895     -0.016342
      6.24778      7.78949      7.60071        -0.055683     -0.044950     -0.023270
      8.68419      6.36619      7.42165         0.051661     -0.020677      0.013442
      8.68308      7.78749      7.41311        -0.029962      0.026822      0.020696
     -4.94963      8.50785      7.36701         0.013263     -0.059757      0.021399
     -4.95453      9.92966      7.35651         0.003755      0.061747      0.007569
     -2.49018      8.51363      7.36762        -0.041738     -0.031980     -0.013089
     -2.48738      9.93431      7.34941         0.006414      0.077860      0.005239
     -0.03501      8.51519      7.38178        -0.031742     -0.014480     -0.002162
     -0.01859      9.93201      7.34369         0.055406      0.049851     -0.020561
      2.43946      8.49370      7.27909        -0.015628     -0.049850     -0.061104
      2.46565      9.89565      7.31993         0.024913      0.018062     -0.001755
      4.97779      8.41685      7.69686        -0.067184     -0.011200      0.026674
      4.94370      9.84219      7.52479        -0.031755      0.043128     -0.015594
      7.45698      8.50074      7.47348         0.039499     -0.015070     -0.011272
      7.43660      9.91651      7.43673        -0.037046      0.084491      0.002081
     -6.19210     10.63675      7.37737        -0.009446     -0.051157      0.006322
     -6.19252     12.05474      7.36214        -0.060617      0.034589      0.005689
     -3.72123     10.64589      7.34166         0.004697     -0.075921      0.023388
     -3.71869     12.06756      7.34644        -0.003265      0.050393      0.024313
     -1.25274     10.64648      7.34638        -0.008698     -0.022679     -0.006133
     -1.25024     12.06581      7.35356        -0.004283     -0.002363     -0.003735
      1.22836     10.62705      7.32004        -0.062867     -0.009910     -0.009909
      1.22857     12.04660      7.34186        -0.012205      0.000815      0.001497
      3.71417     10.59011      7.41660         0.023502     -0.030448     -0.003223
      3.70968     12.01016      7.38180         0.033309      0.051755      0.000881
      6.17868     10.58947      7.45195         0.069559      0.000325     -0.004748
      6.18181     12.01749      7.39773         0.000038     -0.001797      0.006134
      3.49146      7.09552      8.12769        -0.010784      0.032768      0.081625
      3.82261      6.60988      9.93505         0.107358     -0.016496      0.029963
      3.96146      6.38602     11.07141         0.044286     -0.039218     -0.060712
 -----------------------------------------------------------------------------------
    total drift:                               -0.026431      0.010662      0.043213


--------------------------------------------------------------------------------------------------------



  FREE ENERGIE OF THE ION-ELECTRON SYSTEM (eV)
  ---------------------------------------------------
  free  energy   TOTEN  =      -670.00839739 eV

  energy  without entropy=     -670.00839739  energy(sigma->0) =     -670.00839739
 


--------------------------------------------------------------------------------------------------------


    POTLOK:  cpu time    0.1528: real time    0.1536


--------------------------------------------------------------------------------------------------------


 stress matrix after NEB project (eV)
     -8.81929      0.01914      0.29824
      0.01914      0.18804     -0.10592
      0.29824     -0.10592     -2.90757
  FORCES: max atom, RMS     0.112675    0.054827
  FORCE total and by dimension    0.468445    0.107358
  Stress total and by dimension    9.298936    8.819287
     LOOP+:  cpu time  235.1954: real time  237.9657
    4ORBIT:  cpu time    0.0000: real time    0.0000
 


 total charge     
 
# of ion       s       p       d       tot
------------------------------------------
    1        0.864   1.781   0.000   2.644
    2        0.864   1.782   0.000   2.647
    3        0.865   1.784   0.000   2.649
    4        0.864   1.783   0.000   2.647
    5        0.864   1.783   0.000   2.646
    6        0.863   1.783   0.000   2.647
    7        0.864   1.788   0.000   2.651
    8        0.865   1.785   0.000   2.650
    9        0.863   1.780   0.000   2.643
   10        0.863   1.780   0.000   2.643
   11        0.865   1.784   0.000   2.649
   12        0.864   1.784   0.000   2.648
   13        0.865   1.788   0.000   2.653
   14        0.865   1.786   0.000   2.651
   15        0.865   1.785   0.000   2.649
   16        0.864   1.775   0.000   2.640
   17        0.864   1.782   0.000   2.646
   18        0.864   1.766   0.000   2.630
   19        0.860   1.784   0.000   2.644
   20        0.851   1.731   0.000   2.582
   21        0.863   1.792   0.000   2.654
   22        0.854   1.754   0.000   2.608
   23        0.865   1.792   0.000   2.657
   24        0.864   1.783   0.000   2.646
   25        0.864   1.786   0.000   2.650
   26        0.867   1.791   0.000   2.658
   27        0.865   1.787   0.000   2.652
   28        0.869   1.792   0.000   2.661
   29        0.865   1.777   0.000   2.642
   30        0.883   1.692   0.000   2.575
   31        0.856   1.751   0.000   2.606
   32        0.872   1.622   0.000   2.494
   33        1.210   2.706   0.000   3.916
   34        0.859   1.763   0.000   2.622
   35        0.862   1.796   0.000   2.657
   36        0.868   1.796   0.000   2.664
   37        0.866   1.798   0.000   2.664
   38        0.867   1.793   0.000   2.660
   39        0.866   1.794   0.000   2.660
   40        0.868   1.791   0.000   2.658
   41        0.868   1.775   0.000   2.643
   42        0.870   1.769   0.000   2.639
   43        0.874   1.799   0.000   2.673
   44        0.876   1.786   0.000   2.662
   45        0.865   1.801   0.000   2.665
   46        0.866   1.792   0.000   2.659
   47        0.867   1.793   0.000   2.660
   48        0.865   1.786   0.000   2.651
   49        0.867   1.795   0.000   2.662
   50        0.866   1.787   0.000   2.653
   51        0.868   1.797   0.000   2.665
   52        0.867   1.784   0.000   2.651
   53        0.880   1.708   0.000   2.588
   54        0.866   1.774   0.000   2.640
   55        0.870   1.647   0.000   2.517
   56        0.858   1.742   0.000   2.600
   57        0.871   1.804   0.000   2.675
   58        0.866   1.790   0.000   2.656
   59        0.866   1.787   0.000   2.653
   60        0.865   1.787   0.000   2.651
   61        0.865   1.787   0.000   2.652
   62        0.864   1.785   0.000   2.649
   63        0.865   1.789   0.000   2.654
   64        0.866   1.787   0.000   2.653
   65        0.865   1.777   0.000   2.642
   66        0.865   1.783   0.000   2.649
   67        0.864   1.770   0.000   2.634
   68        0.863   1.773   0.000   2.636
   69        0.862   1.764   0.000   2.627
   70        0.863   1.775   0.000   2.638
   71        0.417   6.461   4.343  11.221
   72        0.981   1.543   0.000   2.524
   73        1.626   3.526   0.000   5.152
--------------------------------------------------
tot         63.943 136.773   4.343 205.059
 


 magnetization (x)
 
# of ion       s       p       d       tot
------------------------------------------
    1        0.000   0.001   0.000   0.001
    2       -0.000  -0.002   0.000  -0.002
    3        0.000   0.003   0.000   0.003
    4       -0.000  -0.004   0.000  -0.004
    5        0.000   0.003   0.000   0.003
    6       -0.000  -0.003   0.000  -0.003
    7        0.000   0.001   0.000   0.001
    8       -0.000  -0.001   0.000  -0.002
    9        0.000   0.007   0.000   0.007
   10       -0.000  -0.003   0.000  -0.003
   11        0.000   0.002   0.000   0.003
   12       -0.000  -0.000   0.000  -0.000
   13        0.000   0.004   0.000   0.004
   14       -0.000  -0.004   0.000  -0.004
   15        0.000   0.003   0.000   0.003
   16       -0.001  -0.004   0.000  -0.004
   17        0.000   0.003   0.000   0.004
   18       -0.001  -0.011   0.000  -0.012
   19        0.000   0.004   0.000   0.004
   20       -0.001  -0.006   0.000  -0.007
   21        0.000   0.003   0.000   0.003
   22        0.000   0.000   0.000   0.001
   23        0.000   0.003   0.000   0.004
   24       -0.000  -0.002   0.000  -0.002
   25        0.000   0.005   0.000   0.005
   26       -0.000  -0.001   0.000  -0.001
   27        0.001   0.009   0.000   0.010
   28       -0.000  -0.005   0.000  -0.005
   29        0.002   0.018   0.000   0.019
   30       -0.007  -0.041   0.000  -0.048
   31        0.001   0.009   0.000   0.010
   32       -0.006  -0.035   0.000  -0.042
   33       -0.000  -0.003   0.000  -0.003
   34       -0.000  -0.005   0.000  -0.006
   35        0.000   0.002   0.000   0.002
   36       -0.000  -0.003   0.000  -0.003
   37        0.000   0.001   0.000   0.002
   38       -0.000  -0.002   0.000  -0.003
   39        0.000   0.003   0.000   0.003
   40       -0.000  -0.004   0.000  -0.005
   41        0.002   0.015   0.000   0.017
   42        0.000  -0.005   0.000  -0.004
   43        0.002   0.006   0.000   0.008
   44        0.001  -0.003   0.000  -0.002
   45        0.000   0.003   0.000   0.004
   46       -0.000  -0.003   0.000  -0.003
   47        0.000   0.003   0.000   0.003
   48       -0.000  -0.004   0.000  -0.005
   49        0.000   0.004   0.000   0.004
   50       -0.000  -0.003   0.000  -0.003
   51        0.000   0.002   0.000   0.002
   52       -0.000  -0.001   0.000  -0.001
   53       -0.003  -0.001   0.000  -0.004
   54        0.000   0.002   0.000   0.002
   55       -0.005  -0.012   0.000  -0.017
   56        0.000   0.004   0.000   0.004
   57        0.000   0.001   0.000   0.001
   58       -0.000   0.000   0.000   0.000
   59        0.000   0.002   0.000   0.002
   60        0.000   0.001   0.000   0.001
   61        0.000   0.001   0.000   0.002
   62       -0.000  -0.003   0.000  -0.003
   63        0.000   0.003   0.000   0.003
   64       -0.000  -0.002   0.000  -0.002
   65        0.000   0.004   0.000   0.004
   66       -0.000  -0.000   0.000  -0.000
   67        0.001   0.006   0.000   0.007
   68       -0.000  -0.002   0.000  -0.002
   69       -0.000   0.000   0.000   0.000
   70       -0.000  -0.002   0.000  -0.003
   71        0.009   0.013   0.888   0.910
   72       -0.003   0.009   0.000   0.007
   73        0.000   0.033   0.000   0.033
--------------------------------------------------
tot         -0.007   0.016   0.888   0.896
 
 BZINTS: Fermi energy: -2.202050;303.000000 electrons
         Band energy:***********;  BLOECHL correction:  0.000000

 total amount of memory used by VASP MPI-rank0   116094. kBytes
=======================================================================

   base      :      30000. kBytes
   nonl-proj :      27308. kBytes
   fftplans  :       4700. kBytes
   grid      :      15193. kBytes
   one-center:        217. kBytes
   wavefun   :      38676. kBytes
 
  
  
 General timing and accounting informations for this job:
 ========================================================
  
                  Total CPU time used (sec):      252.887
                            User time (sec):      245.211
                          System time (sec):        7.676
                         Elapsed time (sec):      264.945
  
                   Maximum memory used (kb):      471804.
                   Average memory used (kb):           0.
  
                          Minor page faults:      1223670
                          Major page faults:            0
                 Voluntary context switches:         8239
