       N       E                     dE             d eps       ncg     rms          ort
DAV:   1     0.252571174145E+04    0.25257E+04   -0.11637E+05   768   0.110E+03
DAV:   2    -0.241908106982E+03   -0.27676E+04   -0.26436E+04   768   0.279E+02
DAV:   3    -0.704751224520E+03   -0.46284E+03   -0.45968E+03   768   0.120E+02
DAV:   4    -0.721455498170E+03   -0.16704E+02   -0.16571E+02   768   0.281E+01
DAV:   5    -0.721998874436E+03   -0.54338E+00   -0.54171E+00   768   0.427E+00
SDA:   6    -0.543271339862E+03    0.17873E+03   -0.54171E+00   768   0.497E+03 0.000E+00
CGA:   7    -0.591317129854E+03   -0.48046E+02   -0.21553E+02   768   0.372E+03 0.481E+03
CGA:   8    -0.630934572775E+03   -0.39617E+02   -0.14990E+02   768   0.264E+03 0.426E+03
CGA:   9    -0.652034258643E+03   -0.21100E+02   -0.13629E+02   768   0.405E+02 0.696E+02
CGA:  10    -0.656723019818E+03   -0.46888E+01   -0.46567E+01   768   0.565E+02-0.651E+01
CGA:  11    -0.659775050417E+03   -0.30520E+01   -0.30667E+01   768   0.436E+02 0.712E+00
CGA:  12    -0.661347494315E+03   -0.15724E+01   -0.16582E+01   768   0.110E+02-0.211E+01
CGA:  13    -0.661816090762E+03   -0.46860E+00   -0.49667E+00   768   0.998E+01-0.627E+00
CGA:  14    -0.662608953847E+03   -0.79286E+00   -0.78369E+00   768   0.126E+02 0.101E+01
CGA:  15    -0.662773853942E+03   -0.16490E+00   -0.39964E+00   768   0.609E+01-0.132E+02
CGA:  16    -0.663238147909E+03   -0.46429E+00   -0.59993E+00   768   0.759E+01 0.227E+00
CGA:  17    -0.663826928201E+03   -0.58878E+00   -0.59877E+00   768   0.935E+00-0.303E+00
CGA:  18    -0.663973763934E+03   -0.14684E+00   -0.14312E+00   768   0.587E+00 0.115E+00
CGA:  19    -0.664085286888E+03   -0.11152E+00   -0.10922E+00   768   0.498E+00 0.610E-01
CGA:  20    -0.664203977146E+03   -0.11869E+00   -0.11622E+00   768   0.359E+00 0.258E-01
CGA:  21    -0.664268473333E+03   -0.64496E-01   -0.65999E-01   768   0.176E+00-0.567E-01
CGA:  22    -0.664295424762E+03   -0.26951E-01   -0.26332E-01   768   0.796E-01 0.131E-01
CGA:  23    -0.664317072904E+03   -0.21648E-01   -0.20271E-01   768   0.715E-01 0.119E-01
CGA:  24    -0.664332607289E+03   -0.15534E-01   -0.15388E-01   768   0.306E-01 0.303E-02
CGA:  25    -0.664341647718E+03   -0.90404E-02   -0.83734E-02   768   0.942E-02 0.526E-02
CGA:  26    -0.664346542220E+03   -0.48945E-02   -0.46040E-02   768   0.466E-02 0.106E-02
CGA:  27    -0.664347943708E+03   -0.14015E-02   -0.14068E-02   768   0.454E-02-0.389E-04
CGA:  28    -0.664348862248E+03   -0.91854E-03   -0.91741E-03   768   0.134E-02 0.247E-04
CGA:  29    -0.664349388355E+03   -0.52611E-03   -0.52599E-03   768   0.818E-03 0.296E-06
CGA:  30    -0.664349522931E+03   -0.13458E-03   -0.13458E-03   768   0.452E-03 0.250E-05
CGA:  31    -0.664349680097E+03   -0.15717E-03   -0.15676E-03   768   0.198E-03 0.256E-05
CGA:  32    -0.664349749064E+03   -0.68967E-04   -0.68982E-04   768   0.243E-03 0.374E-07
   1 F= -.67087846E+03 E0= -.67086359E+03  d E =-.670878E+03  mag=     2.9060
       N       E                     dE             d eps       ncg     rms          ort
SDA:   1    -0.663059077442E+03    0.12906E+01    0.00000E+00   768   0.448E+01 0.000E+00
CGA:   2    -0.663670377364E+03   -0.61130E+00   -0.61327E+00   768   0.174E+01-0.309E-02
CGA:   3    -0.664031617938E+03   -0.36124E+00   -0.36141E+00   768   0.118E+01-0.150E-01
CGA:   4    -0.664249791904E+03   -0.21817E+00   -0.21810E+00   768   0.482E+00-0.361E-02
CGA:   5    -0.664332262866E+03   -0.82471E-01   -0.82557E-01   768   0.155E+00 0.878E-03
CGA:   6    -0.664362714703E+03   -0.30452E-01   -0.30451E-01   768   0.605E-01-0.536E-03
CGA:   7    -0.664376020293E+03   -0.13306E-01   -0.13303E-01   768   0.237E-01 0.675E-04
CGA:   8    -0.664381296674E+03   -0.52764E-02   -0.52772E-02   768   0.770E-02-0.153E-04
CGA:   9    -0.664382993191E+03   -0.16965E-02   -0.16962E-02   768   0.208E-02 0.131E-04
CGA:  10    -0.664383481025E+03   -0.48783E-03   -0.48772E-03   768   0.605E-03 0.337E-05
CGA:  11    -0.664383634140E+03   -0.15311E-03   -0.15310E-03   768   0.197E-03 0.851E-07
CGA:  12    -0.664383684736E+03   -0.50596E-04   -0.50627E-04   768   0.979E-04-0.741E-06
   2 F= -.67091170E+03 E0= -.67089645E+03  d E =-.332427E-01  mag=     2.8909
       N       E                     dE             d eps       ncg     rms          ort
SDA:   1    -0.664363616285E+03    0.20018E-01    0.00000E+00   768   0.692E-01 0.000E+00
CGA:   2    -0.664373165892E+03   -0.95496E-02   -0.95515E-02   768   0.270E-01 0.420E-05
CGA:   3    -0.664378684468E+03   -0.55186E-02   -0.55186E-02   768   0.182E-01-0.572E-05
CGA:   4    -0.664382080228E+03   -0.33958E-02   -0.33958E-02   768   0.742E-02 0.431E-05
CGA:   5    -0.664383376400E+03   -0.12962E-02   -0.12963E-02   768   0.242E-02 0.228E-05
CGA:   6    -0.664383846211E+03   -0.46981E-03   -0.46980E-03   768   0.928E-03-0.103E-05
CGA:   7    -0.664384057059E+03   -0.21085E-03   -0.21085E-03   768   0.383E-03-0.107E-06
CGA:   8    -0.664384142367E+03   -0.85309E-04   -0.85270E-04   768   0.128E-03 0.193E-05
   3 F= -.67091208E+03 E0= -.67089677E+03  d E =-.336146E-01  mag=     2.8889
       N       E                     dE             d eps       ncg     rms          ort
SDA:   1    -0.664290440988E+03    0.93616E-01    0.00000E+00   768   0.378E+00 0.000E+00
CGA:   2    -0.664339811065E+03   -0.49370E-01   -0.49417E-01   768   0.134E+00-0.588E-04
CGA:   3    -0.664367907636E+03   -0.28097E-01   -0.28100E-01   768   0.972E-01-0.256E-03
CGA:   4    -0.664386723940E+03   -0.18816E-01   -0.18816E-01   768   0.433E-01-0.341E-04
CGA:   5    -0.664394400913E+03   -0.76770E-02   -0.76787E-02   768   0.144E-01 0.287E-04
CGA:   6    -0.664397084247E+03   -0.26833E-02   -0.26831E-02   768   0.497E-02-0.465E-05
CGA:   7    -0.664398139187E+03   -0.10549E-02   -0.10549E-02   768   0.186E-02 0.377E-05
CGA:   8    -0.664398547528E+03   -0.40834E-03   -0.40828E-03   768   0.600E-03 0.351E-05
CGA:   9    -0.664398676633E+03   -0.12910E-03   -0.12907E-03   768   0.164E-03 0.200E-05
CGA:  10    -0.664398714133E+03   -0.37500E-04   -0.37483E-04   768   0.516E-04 0.620E-06
   4 F= -.67092636E+03 E0= -.67091091E+03  d E =-.142784E-01  mag=     2.8830
       N       E                     dE             d eps       ncg     rms          ort
SDA:   1    -0.663463574940E+03    0.93510E+00    0.00000E+00   768   0.343E+01 0.000E+00
CGA:   2    -0.663908737614E+03   -0.44516E+00   -0.44686E+00   768   0.120E+01-0.485E-02
CGA:   3    -0.664163414082E+03   -0.25468E+00   -0.25486E+00   768   0.883E+00-0.118E-01
CGA:   4    -0.664331375385E+03   -0.16796E+00   -0.16793E+00   768   0.397E+00-0.267E-02
CGA:   5    -0.664400648503E+03   -0.69273E-01   -0.69333E-01   768   0.128E+00 0.732E-03
CGA:   6    -0.664424533908E+03   -0.23885E-01   -0.23875E-01   768   0.447E-01-0.323E-03
CGA:   7    -0.664433963886E+03   -0.94300E-02   -0.94284E-02   768   0.168E-01 0.694E-04
CGA:   8    -0.664437661156E+03   -0.36973E-02   -0.36978E-02   768   0.550E-02-0.119E-04
CGA:   9    -0.664438838520E+03   -0.11774E-02   -0.11772E-02   768   0.151E-02 0.753E-05
CGA:  10    -0.664439181689E+03   -0.34317E-03   -0.34315E-03   768   0.481E-03 0.888E-06
CGA:  11    -0.664439291294E+03   -0.10961E-03   -0.10962E-03   768   0.195E-03-0.656E-06
CGA:  12    -0.664439332916E+03   -0.41622E-04   -0.41628E-04   768   0.979E-04-0.784E-06
   5 F= -.67096630E+03 E0= -.67095044E+03  d E =-.542211E-01  mag=     2.8634
       N       E                     dE             d eps       ncg     rms          ort
SDA:   1    -0.660590340868E+03    0.38490E+01    0.00000E+00   768   0.140E+02 0.000E+00
CGA:   2    -0.662383907139E+03   -0.17936E+01   -0.18119E+01   768   0.479E+01-0.738E-01
CGA:   3    -0.663418002219E+03   -0.10341E+01   -0.10371E+01   768   0.362E+01-0.150E+00
CGA:   4    -0.664076898023E+03   -0.65890E+00   -0.65823E+00   768   0.161E+01-0.331E-01
CGA:   5    -0.664349405220E+03   -0.27251E+00   -0.27318E+00   768   0.516E+00 0.518E-02
CGA:   6    -0.664444843398E+03   -0.95438E-01   -0.95319E-01   768   0.181E+00-0.338E-02
CGA:   7    -0.664482302469E+03   -0.37459E-01   -0.37450E-01   768   0.677E-01 0.497E-03
CGA:   8    -0.664497297779E+03   -0.14995E-01   -0.15003E-01   768   0.230E-01-0.231E-03
CGA:   9    -0.664502244768E+03   -0.49470E-02   -0.49464E-02   768   0.646E-02 0.259E-04
CGA:  10    -0.664503750261E+03   -0.15055E-02   -0.15057E-02   768   0.210E-02-0.460E-05
CGA:  11    -0.664504255609E+03   -0.50535E-03   -0.50545E-03   768   0.882E-03-0.204E-05
CGA:  12    -0.664504452859E+03   -0.19725E-03   -0.19728E-03   768   0.506E-03-0.163E-05
CGA:  13    -0.664504567675E+03   -0.11482E-03   -0.11486E-03   768   0.263E-03-0.153E-05
CGA:  14    -0.664504650579E+03   -0.82904E-04   -0.82945E-04   768   0.159E-03-0.510E-06
   6 F= -.67103161E+03 E0= -.67101501E+03  d E =-.119528E+00  mag=     2.8192
       N       E                     dE             d eps       ncg     rms          ort
SDA:   1    -0.648821190564E+03    0.15683E+02    0.00000E+00   768   0.588E+02 0.000E+00
CGA:   2    -0.656119097176E+03   -0.72979E+01   -0.74842E+01   768   0.190E+02-0.101E+01
CGA:   3    -0.660346806883E+03   -0.42277E+01   -0.42677E+01   768   0.156E+02-0.190E+01
CGA:   4    -0.662896758639E+03   -0.25500E+01   -0.25457E+01   768   0.637E+01-0.217E+00
CGA:   5    -0.663912024810E+03   -0.10153E+01   -0.10254E+01   768   0.214E+01 0.340E-01
CGA:   6    -0.664294156964E+03   -0.38213E+00   -0.38064E+00   768   0.753E+00-0.200E-01
CGA:   7    -0.664446226172E+03   -0.15207E+00   -0.15210E+00   768   0.285E+00 0.368E-02
CGA:   8    -0.664509009977E+03   -0.62784E-01   -0.62821E-01   768   0.107E+00-0.190E-02
CGA:   9    -0.664532388073E+03   -0.23378E-01   -0.23380E-01   768   0.321E-01-0.870E-04
CGA:  10    -0.664540125037E+03   -0.77370E-02   -0.77360E-02   768   0.121E-01 0.257E-04
CGA:  11    -0.664543040811E+03   -0.29158E-02   -0.29174E-02   768   0.632E-02-0.363E-04
CGA:  12    -0.664544379762E+03   -0.13390E-02   -0.13390E-02   768   0.364E-02-0.253E-04
CGA:  13    -0.664545305170E+03   -0.92541E-03   -0.92587E-03   768   0.189E-02-0.931E-05
CGA:  14    -0.664545930557E+03   -0.62539E-03   -0.62645E-03   768   0.119E-02-0.736E-05
CGA:  15    -0.664546247975E+03   -0.31742E-03   -0.31757E-03   768   0.891E-03-0.313E-05
CGA:  16    -0.664546437332E+03   -0.18936E-03   -0.18933E-03   768   0.393E-03-0.817E-06
CGA:  17    -0.664546560947E+03   -0.12361E-03   -0.12376E-03   768   0.202E-03-0.190E-05
CGA:  18    -0.664546622117E+03   -0.61170E-04   -0.61231E-04   768   0.163E-03-0.687E-06
   7 F= -.67107709E+03 E0= -.67105968E+03  d E =-.165013E+00  mag=     2.7295
       N       E                     dE             d eps       ncg     rms          ort
SDA:   1    -0.663492988123E+03    0.10536E+01    0.00000E+00   768   0.361E+01 0.000E+00
CGA:   2    -0.663985516998E+03   -0.49253E+00   -0.49227E+00   768   0.129E+01-0.243E-02
CGA:   3    -0.664254718610E+03   -0.26920E+00   -0.26925E+00   768   0.963E+00-0.567E-03
CGA:   4    -0.664435593019E+03   -0.18087E+00   -0.18068E+00   768   0.411E+00-0.269E-02
CGA:   5    -0.664508862491E+03   -0.73269E-01   -0.73266E-01   768   0.136E+00-0.267E-03
CGA:   6    -0.664534357236E+03   -0.25495E-01   -0.25495E-01   768   0.469E-01-0.464E-04
CGA:   7    -0.664544235311E+03   -0.98781E-02   -0.98775E-02   768   0.174E-01-0.458E-04
CGA:   8    -0.664548086354E+03   -0.38510E-02   -0.38510E-02   768   0.581E-02 0.343E-06
CGA:   9    -0.664549300938E+03   -0.12146E-02   -0.12145E-02   768   0.168E-02-0.826E-05
CGA:  10    -0.664549643306E+03   -0.34237E-03   -0.34236E-03   768   0.630E-03-0.111E-05
CGA:  11    -0.664549762740E+03   -0.11943E-03   -0.11942E-03   768   0.257E-03-0.394E-06
CGA:  12    -0.664549819624E+03   -0.56884E-04   -0.56881E-04   768   0.110E-03 0.611E-06
   8 F= -.67107917E+03 E0= -.67106191E+03  d E =-.167089E+00  mag=     2.7522
       N       E                     dE             d eps       ncg     rms          ort
SDA:   1    -0.664200863209E+03    0.34890E+00    0.00000E+00   768   0.121E+01 0.000E+00
CGA:   2    -0.664381417778E+03   -0.18055E+00   -0.18092E+00   768   0.549E+00-0.947E-03
CGA:   3    -0.664492866286E+03   -0.11145E+00   -0.11136E+00   768   0.324E+00-0.356E-02
CGA:   4    -0.664549327124E+03   -0.56461E-01   -0.56469E-01   768   0.115E+00-0.202E-03
CGA:   5    -0.664568656315E+03   -0.19329E-01   -0.19337E-01   768   0.391E-01-0.101E-04
CGA:   6    -0.664576010900E+03   -0.73546E-02   -0.73513E-02   768   0.163E-01-0.507E-04
CGA:   7    -0.664579411694E+03   -0.34008E-02   -0.34009E-02   768   0.722E-02 0.345E-04
CGA:   8    -0.664580961643E+03   -0.15499E-02   -0.15500E-02   768   0.287E-02-0.358E-05
CGA:   9    -0.664581545325E+03   -0.58368E-03   -0.58371E-03   768   0.841E-03 0.250E-05
CGA:  10    -0.664581725794E+03   -0.18047E-03   -0.18047E-03   768   0.268E-03-0.340E-08
CGA:  11    -0.664581782120E+03   -0.56326E-04   -0.56326E-04   768   0.102E-03 0.537E-07
   9 F= -.67111229E+03 E0= -.67109491E+03  d E =-.331269E-01  mag=     2.7472
       N       E                     dE             d eps       ncg     rms          ort
SDA:   1    -0.662048371569E+03    0.25334E+01    0.00000E+00   768   0.824E+01 0.000E+00
CGA:   2    -0.663253751123E+03   -0.12054E+01   -0.12100E+01   768   0.369E+01-0.197E-01
CGA:   3    -0.664013249875E+03   -0.75950E+00   -0.75946E+00   768   0.222E+01-0.813E-01
CGA:   4    -0.664393998574E+03   -0.38075E+00   -0.38092E+00   768   0.766E+00-0.313E-02
CGA:   5    -0.664520780582E+03   -0.12678E+00   -0.12692E+00   768   0.264E+00 0.405E-04
CGA:   6    -0.664569884787E+03   -0.49104E-01   -0.49060E-01   768   0.112E+00-0.125E-02
CGA:   7    -0.664592799661E+03   -0.22915E-01   -0.22912E-01   768   0.492E-01 0.383E-03
CGA:   8    -0.664603364587E+03   -0.10565E-01   -0.10569E-01   768   0.201E-01-0.202E-03
CGA:   9    -0.664607465394E+03   -0.41008E-02   -0.41007E-02   768   0.581E-02 0.271E-04
CGA:  10    -0.664608757580E+03   -0.12922E-02   -0.12924E-02   768   0.192E-02-0.815E-05
CGA:  11    -0.664609170448E+03   -0.41287E-03   -0.41289E-03   768   0.801E-03-0.816E-06
CGA:  12    -0.664609330757E+03   -0.16031E-03   -0.16030E-03   768   0.398E-03-0.131E-05
CGA:  13    -0.664609422246E+03   -0.91488E-04   -0.91513E-04   768   0.196E-03-0.619E-06
  10 F= -.67114300E+03 E0= -.67112508E+03  d E =-.638315E-01  mag=     2.7422
       N       E                     dE             d eps       ncg     rms          ort
SDA:   1    -0.664372615428E+03    0.23672E+00    0.00000E+00   768   0.762E+00 0.000E+00
CGA:   2    -0.664506908756E+03   -0.13429E+00   -0.13414E+00   768   0.429E+00-0.175E-02
CGA:   3    -0.664585658300E+03   -0.78750E-01   -0.78684E-01   768   0.199E+00-0.129E-02
CGA:   4    -0.664619425913E+03   -0.33768E-01   -0.33787E-01   768   0.520E-01 0.200E-04
CGA:   5    -0.664627581450E+03   -0.81555E-02   -0.81576E-02   768   0.179E-01-0.153E-04
CGA:   6    -0.664630951529E+03   -0.33701E-02   -0.33697E-02   768   0.749E-02-0.702E-05
CGA:   7    -0.664632516505E+03   -0.15650E-02   -0.15649E-02   768   0.351E-02 0.111E-04
CGA:   8    -0.664633260556E+03   -0.74405E-03   -0.74407E-03   768   0.161E-02 0.125E-06
CGA:   9    -0.664633604109E+03   -0.34355E-03   -0.34354E-03   768   0.534E-03 0.115E-05
CGA:  10    -0.664633729690E+03   -0.12558E-03   -0.12556E-03   768   0.191E-03 0.924E-06
CGA:  11    -0.664633771771E+03   -0.42081E-04   -0.42071E-04   768   0.835E-04 0.673E-06
  11 F= -.67116846E+03 E0= -.67115042E+03  d E =-.254636E-01  mag=     2.7346
       N       E                     dE             d eps       ncg     rms          ort
SDA:   1    -0.662334126129E+03    0.22996E+01    0.00000E+00   768   0.683E+01 0.000E+00
CGA:   2    -0.663508344997E+03   -0.11742E+01   -0.11712E+01   768   0.394E+01-0.435E-01
CGA:   3    -0.664235676354E+03   -0.72733E+00   -0.72609E+00   768   0.181E+01-0.363E-01
CGA:   4    -0.664540918196E+03   -0.30524E+00   -0.30578E+00   768   0.437E+00 0.355E-02
CGA:   5    -0.664612018115E+03   -0.71100E-01   -0.71135E-01   768   0.158E+00-0.825E-04
CGA:   6    -0.664641690131E+03   -0.29672E-01   -0.29660E-01   768   0.681E-01-0.491E-03
CGA:   7    -0.664655826642E+03   -0.14137E-01   -0.14134E-01   768   0.313E-01 0.173E-03
CGA:   8    -0.664662303960E+03   -0.64773E-02   -0.64783E-02   768   0.147E-01-0.703E-04
CGA:   9    -0.664665276235E+03   -0.29723E-02   -0.29721E-02   768   0.475E-02 0.212E-04
CGA:  10    -0.664666387905E+03   -0.11117E-02   -0.11118E-02   768   0.167E-02-0.201E-05
CGA:  11    -0.664666743986E+03   -0.35608E-03   -0.35605E-03   768   0.694E-03 0.231E-05
CGA:  12    -0.664666877390E+03   -0.13340E-03   -0.13341E-03   768   0.310E-03-0.259E-07
CGA:  13    -0.664666943497E+03   -0.66107E-04   -0.66106E-04   768   0.135E-03 0.291E-06
  12 F= -.67120496E+03 E0= -.67118644E+03  d E =-.619656E-01  mag=     2.7226
       N       E                     dE             d eps       ncg     rms          ort
SDA:   1    -0.664468285722E+03    0.19859E+00    0.00000E+00   768   0.618E+00 0.000E+00
CGA:   2    -0.664595810788E+03   -0.12753E+00   -0.12752E+00   768   0.449E+00-0.287E-02
CGA:   3    -0.664671275504E+03   -0.75465E-01   -0.75450E-01   768   0.157E+00-0.332E-03
CGA:   4    -0.664698332257E+03   -0.27057E-01   -0.27059E-01   768   0.329E-01-0.832E-04
CGA:   5    -0.664704146005E+03   -0.58137E-02   -0.58139E-02   768   0.135E-01 0.688E-05
CGA:   6    -0.664706501166E+03   -0.23552E-02   -0.23553E-02   768   0.470E-02 0.128E-04
CGA:   7    -0.664707563530E+03   -0.10624E-02   -0.10623E-02   768   0.241E-02 0.375E-05
CGA:   8    -0.664708091803E+03   -0.52827E-03   -0.52830E-03   768   0.130E-02-0.108E-05
CGA:   9    -0.664708343596E+03   -0.25179E-03   -0.25177E-03   768   0.513E-03-0.223E-05
CGA:  10    -0.664708460280E+03   -0.11668E-03   -0.11671E-03   768   0.198E-03-0.111E-05
CGA:  11    -0.664708505209E+03   -0.44929E-04   -0.44930E-04   768   0.844E-04-0.569E-08
  13 F= -.67124776E+03 E0= -.67122921E+03  d E =-.427923E-01  mag=     2.7071
       N       E                     dE             d eps       ncg     rms          ort
SDA:   1    -0.664345179716E+03    0.36328E+00    0.00000E+00   768   0.100E+01 0.000E+00
CGA:   2    -0.664551226128E+03   -0.20605E+00   -0.20604E+00   768   0.730E+00-0.343E-02
CGA:   3    -0.664673955045E+03   -0.12273E+00   -0.12269E+00   768   0.255E+00-0.751E-03
CGA:   4    -0.664717841888E+03   -0.43887E-01   -0.43894E-01   768   0.528E-01-0.702E-04
CGA:   5    -0.664727281865E+03   -0.94400E-02   -0.94400E-02   768   0.214E-01 0.660E-05
CGA:   6    -0.664731024790E+03   -0.37429E-02   -0.37429E-02   768   0.758E-02 0.126E-04
CGA:   7    -0.664732744433E+03   -0.17196E-02   -0.17195E-02   768   0.386E-02 0.693E-05
CGA:   8    -0.664733594812E+03   -0.85038E-03   -0.85041E-03   768   0.209E-02-0.116E-05
CGA:   9    -0.664733992642E+03   -0.39783E-03   -0.39780E-03   768   0.844E-03-0.254E-05
CGA:  10    -0.664734182644E+03   -0.19000E-03   -0.19004E-03   768   0.320E-03-0.148E-05
CGA:  11    -0.664734255759E+03   -0.73115E-04   -0.73117E-04   768   0.136E-03-0.262E-07
  14 F= -.67127503E+03 E0= -.67125659E+03  d E =-.700646E-01  mag=     2.6912
       N       E                     dE             d eps       ncg     rms          ort
SDA:   1    -0.664683063198E+03    0.51119E-01    0.00000E+00   768   0.137E+00 0.000E+00
CGA:   2    -0.664710907546E+03   -0.27844E-01   -0.27844E-01   768   0.989E-01-0.112E-03
CGA:   3    -0.664727696953E+03   -0.16789E-01   -0.16787E-01   768   0.346E-01-0.347E-04
CGA:   4    -0.664733716457E+03   -0.60195E-02   -0.60184E-02   768   0.713E-02-0.494E-04
CGA:   5    -0.664734997636E+03   -0.12812E-02   -0.12813E-02   768   0.281E-02 0.502E-05
CGA:   6    -0.664735496434E+03   -0.49880E-03   -0.49896E-03   768   0.101E-02 0.760E-05
CGA:   7    -0.664735731474E+03   -0.23504E-03   -0.23499E-03   768   0.527E-03 0.168E-05
CGA:   8    -0.664735850158E+03   -0.11868E-03   -0.11869E-03   768   0.295E-03-0.229E-06
CGA:   9    -0.664735906078E+03   -0.55920E-04   -0.55907E-04   768   0.127E-03-0.101E-05
  15 F= -.67127722E+03 E0= -.67125890E+03  d E =-.722613E-01  mag=     2.6842
       N       E                     dE             d eps       ncg     rms          ort
SDA:   1    -0.664199053887E+03    0.53680E+00    0.00000E+00   768   0.160E+01 0.000E+00
CGA:   2    -0.664476796644E+03   -0.27774E+00   -0.27801E+00   768   0.858E+00 0.868E-03
CGA:   3    -0.664647584665E+03   -0.17079E+00   -0.17076E+00   768   0.491E+00-0.713E-02
CGA:   4    -0.664724632277E+03   -0.77048E-01   -0.77083E-01   768   0.138E+00-0.563E-03
CGA:   5    -0.664748329198E+03   -0.23697E-01   -0.23698E-01   768   0.529E-01-0.991E-04
CGA:   6    -0.664758591061E+03   -0.10262E-01   -0.10261E-01   768   0.240E-01-0.156E-03
CGA:   7    -0.664763265435E+03   -0.46744E-02   -0.46745E-02   768   0.112E-01 0.184E-04
CGA:   8    -0.664765475968E+03   -0.22105E-02   -0.22105E-02   768   0.439E-02-0.238E-04
CGA:   9    -0.664766333866E+03   -0.85790E-03   -0.85790E-03   768   0.134E-02-0.347E-06
CGA:  10    -0.664766627751E+03   -0.29388E-03   -0.29390E-03   768   0.427E-03-0.124E-06
CGA:  11    -0.664766715248E+03   -0.87498E-04   -0.87491E-04   768   0.182E-03 0.988E-06
  16 F= -.67130887E+03 E0= -.67129092E+03  d E =-.316425E-01  mag=     2.6728
       N       E                     dE             d eps       ncg     rms          ort
SDA:   1    -0.663622332057E+03    0.11443E+01    0.00000E+00   768   0.328E+01 0.000E+00
CGA:   2    -0.664188593958E+03   -0.56626E+00   -0.56700E+00   768   0.175E+01 0.356E-02
CGA:   3    -0.664539390136E+03   -0.35080E+00   -0.35091E+00   768   0.101E+01-0.231E-01
CGA:   4    -0.664697716437E+03   -0.15833E+00   -0.15843E+00   768   0.281E+00-0.141E-02
CGA:   5    -0.664746111637E+03   -0.48395E-01   -0.48398E-01   768   0.107E+00-0.284E-03
CGA:   6    -0.664766734499E+03   -0.20623E-01   -0.20622E-01   768   0.496E-01-0.504E-03
CGA:   7    -0.664776267959E+03   -0.95335E-02   -0.95336E-02   768   0.229E-01 0.556E-04
CGA:   8    -0.664780798788E+03   -0.45308E-02   -0.45313E-02   768   0.904E-02-0.695E-04
CGA:   9    -0.664782567670E+03   -0.17689E-02   -0.17689E-02   768   0.271E-02 0.407E-05
CGA:  10    -0.664783171076E+03   -0.60341E-03   -0.60349E-03   768   0.871E-03-0.183E-05
CGA:  11    -0.664783349586E+03   -0.17851E-03   -0.17850E-03   768   0.384E-03 0.128E-05
CGA:  12    -0.664783419874E+03   -0.70287E-04   -0.70301E-04   768   0.171E-03 0.962E-06
  17 F= -.67132669E+03 E0= -.67130923E+03  d E =-.494691E-01  mag=     2.6623
       N       E                     dE             d eps       ncg     rms          ort
SDA:   1    -0.664000339985E+03    0.78301E+00    0.00000E+00   768   0.230E+01 0.000E+00
CGA:   2    -0.664378890851E+03   -0.37855E+00   -0.37900E+00   768   0.114E+01 0.303E-03
CGA:   3    -0.664620657776E+03   -0.24177E+00   -0.24208E+00   768   0.774E+00-0.138E-01
CGA:   4    -0.664744231803E+03   -0.12357E+00   -0.12361E+00   768   0.230E+00-0.999E-03
CGA:   5    -0.664783689675E+03   -0.39458E-01   -0.39461E-01   768   0.816E-01-0.145E-03
CGA:   6    -0.664799153609E+03   -0.15464E-01   -0.15462E-01   768   0.366E-01-0.297E-03
CGA:   7    -0.664806312000E+03   -0.71584E-02   -0.71581E-02   768   0.174E-01 0.423E-04
CGA:   8    -0.664809652711E+03   -0.33407E-02   -0.33405E-02   768   0.696E-02-0.437E-04
CGA:   9    -0.664810971086E+03   -0.13184E-02   -0.13184E-02   768   0.204E-02 0.389E-06
CGA:  10    -0.664811405838E+03   -0.43475E-03   -0.43481E-03   768   0.667E-03-0.199E-05
CGA:  11    -0.664811540835E+03   -0.13500E-03   -0.13499E-03   768   0.300E-03 0.372E-06
CGA:  12    -0.664811598572E+03   -0.57737E-04   -0.57739E-04   768   0.150E-03 0.518E-06
  18 F= -.67135571E+03 E0= -.67133723E+03  d E =-.290164E-01  mag=     2.7361
       N       E                     dE             d eps       ncg     rms          ort
SDA:   1    -0.664707840263E+03    0.10370E+00    0.00000E+00   768   0.297E+00 0.000E+00
CGA:   2    -0.664757450578E+03   -0.49610E-01   -0.49626E-01   768   0.149E+00 0.513E-04
CGA:   3    -0.664788822090E+03   -0.31372E-01   -0.31384E-01   768   0.994E-01-0.558E-03
CGA:   4    -0.664804864647E+03   -0.16043E-01   -0.16044E-01   768   0.298E-01-0.577E-04
CGA:   5    -0.664810021723E+03   -0.51571E-02   -0.51571E-02   768   0.104E-01-0.949E-05
CGA:   6    -0.664812017689E+03   -0.19960E-02   -0.19959E-02   768   0.460E-02-0.447E-05
CGA:   7    -0.664812953898E+03   -0.93621E-03   -0.93615E-03   768   0.227E-02 0.303E-05
CGA:   8    -0.664813382700E+03   -0.42880E-03   -0.42878E-03   768   0.947E-03-0.300E-05
CGA:   9    -0.664813554929E+03   -0.17223E-03   -0.17221E-03   768   0.288E-03-0.189E-05
CGA:  10    -0.664813615678E+03   -0.60750E-04   -0.60755E-04   768   0.970E-04-0.237E-06
  19 F= -.67135801E+03 E0= -.67133917E+03  d E =-.313183E-01  mag=     2.7699
       N       E                     dE             d eps       ncg     rms          ort
SDA:   1    -0.664444041030E+03    0.36951E+00    0.00000E+00   768   0.100E+01 0.000E+00
CGA:   2    -0.664648278771E+03   -0.20424E+00   -0.20422E+00   768   0.605E+00 0.434E-03
CGA:   3    -0.664760565032E+03   -0.11229E+00   -0.11226E+00   768   0.293E+00-0.151E-02
CGA:   4    -0.664804010368E+03   -0.43445E-01   -0.43457E-01   768   0.848E-01-0.116E-03
CGA:   5    -0.664819135488E+03   -0.15125E-01   -0.15125E-01   768   0.304E-01-0.184E-04
CGA:   6    -0.664825279695E+03   -0.61442E-02   -0.61450E-02   768   0.133E-01-0.498E-04
CGA:   7    -0.664828101179E+03   -0.28215E-02   -0.28214E-02   768   0.649E-02-0.180E-05
CGA:   8    -0.664829347148E+03   -0.12460E-02   -0.12459E-02   768   0.292E-02-0.149E-04
CGA:   9    -0.664829858208E+03   -0.51106E-03   -0.51110E-03   768   0.102E-02 0.115E-06
CGA:  10    -0.664830064757E+03   -0.20655E-03   -0.20653E-03   768   0.323E-03 0.207E-05
CGA:  11    -0.664830135038E+03   -0.70282E-04   -0.70257E-04   768   0.134E-03 0.999E-06
  20 F= -.67137479E+03 E0= -.67135519E+03  d E =-.167800E-01  mag=     2.8388
       N       E                     dE             d eps       ncg     rms          ort
SDA:   1    -0.664593288894E+03    0.23678E+00    0.00000E+00   768   0.625E+00 0.000E+00
CGA:   2    -0.664720578281E+03   -0.12729E+00   -0.12728E+00   768   0.378E+00 0.261E-03
CGA:   3    -0.664790670450E+03   -0.70092E-01   -0.70078E-01   768   0.183E+00-0.923E-03
CGA:   4    -0.664817972654E+03   -0.27302E-01   -0.27312E-01   768   0.527E-01-0.497E-04
CGA:   5    -0.664827456353E+03   -0.94837E-02   -0.94836E-02   768   0.187E-01-0.158E-04
CGA:   6    -0.664831245548E+03   -0.37892E-02   -0.37896E-02   768   0.828E-02-0.239E-04
CGA:   7    -0.664833005356E+03   -0.17598E-02   -0.17598E-02   768   0.410E-02-0.360E-05
CGA:   8    -0.664833777947E+03   -0.77259E-03   -0.77253E-03   768   0.188E-02-0.887E-05
CGA:   9    -0.664834102621E+03   -0.32467E-03   -0.32469E-03   768   0.651E-03-0.531E-06
CGA:  10    -0.664834236545E+03   -0.13392E-03   -0.13390E-03   768   0.207E-03 0.178E-05
CGA:  11    -0.664834282550E+03   -0.46006E-04   -0.45982E-04   768   0.912E-04 0.763E-06
  21 F= -.67137911E+03 E0= -.67135904E+03  d E =-.211029E-01  mag=     2.8995
       N       E                     dE             d eps       ncg     rms          ort
SDA:   1    -0.664516647637E+03    0.31759E+00    0.00000E+00   768   0.792E+00 0.000E+00
CGA:   2    -0.664712011344E+03   -0.19536E+00   -0.19537E+00   768   0.507E+00-0.207E-03
CGA:   3    -0.664802096552E+03   -0.90085E-01   -0.90064E-01   768   0.217E+00-0.650E-03
CGA:   4    -0.664833306930E+03   -0.31210E-01   -0.31219E-01   768   0.595E-01-0.561E-04
CGA:   5    -0.664843567657E+03   -0.10261E-01   -0.10260E-01   768   0.187E-01-0.210E-04
CGA:   6    -0.664847478575E+03   -0.39109E-02   -0.39114E-02   768   0.847E-02-0.189E-04
CGA:   7    -0.664849333403E+03   -0.18548E-02   -0.18550E-02   768   0.385E-02-0.979E-05
CGA:   8    -0.664850178070E+03   -0.84467E-03   -0.84496E-03   768   0.192E-02-0.938E-05
CGA:   9    -0.664850504496E+03   -0.32643E-03   -0.32644E-03   768   0.811E-03-0.596E-06
CGA:  10    -0.664850656443E+03   -0.15195E-03   -0.15195E-03   768   0.280E-03 0.136E-05
CGA:  11    -0.664850718589E+03   -0.62147E-04   -0.62136E-04   768   0.100E-03 0.323E-06
  22 F= -.67139622E+03 E0= -.67137582E+03  d E =-.171080E-01  mag=     2.9842
       N       E                     dE             d eps       ncg     rms          ort
SDA:   1    -0.664458475235E+03    0.39218E+00    0.00000E+00   768   0.942E+00 0.000E+00
CGA:   2    -0.664691184940E+03   -0.23271E+00   -0.23271E+00   768   0.603E+00-0.239E-03
CGA:   3    -0.664798433317E+03   -0.10725E+00   -0.10721E+00   768   0.257E+00-0.869E-03
CGA:   4    -0.664835386056E+03   -0.36953E-01   -0.36966E-01   768   0.705E-01-0.765E-04
CGA:   5    -0.664847608286E+03   -0.12222E-01   -0.12221E-01   768   0.222E-01-0.311E-04
CGA:   6    -0.664852224279E+03   -0.46160E-02   -0.46164E-02   768   0.101E-01-0.228E-04
CGA:   7    -0.664854434423E+03   -0.22101E-02   -0.22102E-02   768   0.454E-02-0.707E-05
CGA:   8    -0.664855437509E+03   -0.10031E-02   -0.10034E-02   768   0.226E-02-0.105E-04
CGA:   9    -0.664855820221E+03   -0.38271E-03   -0.38275E-03   768   0.970E-03-0.240E-06
CGA:  10    -0.664855998723E+03   -0.17850E-03   -0.17852E-03   768   0.333E-03 0.151E-05
CGA:  11    -0.664856072171E+03   -0.73448E-04   -0.73437E-04   768   0.116E-03 0.424E-06
  23 F= -.67140228E+03 E0= -.67138194E+03  d E =-.231621E-01  mag=     3.0703
       N       E                     dE             d eps       ncg     rms          ort
SDA:   1    -0.664601830180E+03    0.25417E+00    0.00000E+00   768   0.630E+00 0.000E+00
CGA:   2    -0.664773881140E+03   -0.17205E+00   -0.17203E+00   768   0.356E+00 0.162E-03
CGA:   3    -0.664836557470E+03   -0.62676E-01   -0.62683E-01   768   0.146E+00 0.329E-04
CGA:   4    -0.664857046918E+03   -0.20489E-01   -0.20487E-01   768   0.377E-01-0.467E-05
CGA:   5    -0.664863437460E+03   -0.63905E-02   -0.63908E-02   768   0.120E-01-0.294E-05
CGA:   6    -0.664865970223E+03   -0.25328E-02   -0.25331E-02   768   0.514E-02-0.159E-04
CGA:   7    -0.664867039430E+03   -0.10692E-02   -0.10693E-02   768   0.228E-02-0.774E-05
CGA:   8    -0.664867542158E+03   -0.50273E-03   -0.50287E-03   768   0.118E-02-0.539E-05
CGA:   9    -0.664867743574E+03   -0.20142E-03   -0.20142E-03   768   0.531E-03-0.430E-06
CGA:  10    -0.664867847087E+03   -0.10351E-03   -0.10352E-03   768   0.186E-03 0.104E-05
CGA:  11    -0.664867887696E+03   -0.40609E-04   -0.40606E-04   768   0.684E-04 0.166E-06
  24 F= -.67141470E+03 E0= -.67139455E+03  d E =-.124244E-01  mag=     3.1084
       N       E                     dE             d eps       ncg     rms          ort
SDA:   1    -0.664296489290E+03    0.57136E+00    0.00000E+00   768   0.137E+01 0.000E+00
CGA:   2    -0.664669511965E+03   -0.37302E+00   -0.37297E+00   768   0.774E+00 0.437E-03
CGA:   3    -0.664805709627E+03   -0.13620E+00   -0.13623E+00   768   0.317E+00 0.301E-03
CGA:   4    -0.664850223794E+03   -0.44514E-01   -0.44497E-01   768   0.827E-01-0.996E-05
CGA:   5    -0.664864196249E+03   -0.13972E-01   -0.13974E-01   768   0.264E-01 0.466E-05
CGA:   6    -0.664869741445E+03   -0.55452E-02   -0.55459E-02   768   0.114E-01-0.371E-04
CGA:   7    -0.664872079643E+03   -0.23382E-02   -0.23381E-02   768   0.507E-02-0.141E-05
CGA:   8    -0.664873157911E+03   -0.10783E-02   -0.10785E-02   768   0.271E-02-0.105E-04
CGA:   9    -0.664873611884E+03   -0.45397E-03   -0.45405E-03   768   0.113E-02-0.596E-07
CGA:  10    -0.664873841131E+03   -0.22925E-03   -0.22924E-03   768   0.396E-03 0.130E-05
CGA:  11    -0.664873926182E+03   -0.85051E-04   -0.85045E-04   768   0.150E-03 0.332E-06
  25 F= -.67142161E+03 E0= -.67140168E+03  d E =-.193316E-01  mag=     3.1543
       N       E                     dE             d eps       ncg     rms          ort
SDA:   1    -0.664724550022E+03    0.14929E+00    0.00000E+00   768   0.380E+00 0.000E+00
CGA:   2    -0.664820308422E+03   -0.95758E-01   -0.95756E-01   768   0.229E+00-0.387E-04
CGA:   3    -0.664861054911E+03   -0.40746E-01   -0.40730E-01   768   0.100E+00-0.386E-03
CGA:   4    -0.664875395447E+03   -0.14341E-01   -0.14348E-01   768   0.269E-01-0.462E-04
CGA:   5    -0.664880041307E+03   -0.46459E-02   -0.46449E-02   768   0.813E-02-0.210E-04
CGA:   6    -0.664881762416E+03   -0.17211E-02   -0.17212E-02   768   0.364E-02-0.534E-05
CGA:   7    -0.664882556710E+03   -0.79429E-03   -0.79441E-03   768   0.151E-02-0.480E-05
CGA:   8    -0.664882939873E+03   -0.38316E-03   -0.38340E-03   768   0.642E-03-0.408E-05
CGA:   9    -0.664883083964E+03   -0.14409E-03   -0.14411E-03   768   0.242E-03-0.718E-06
CGA:  10    -0.664883135038E+03   -0.51075E-04   -0.51072E-04   768   0.126E-03 0.308E-06
  26 F= -.67143149E+03 E0= -.67141181E+03  d E =-.987718E-02  mag=     3.1871
       N       E                     dE             d eps       ncg     rms          ort
SDA:   1    -0.664787480603E+03    0.95603E-01    0.00000E+00   768   0.233E+00 0.000E+00
CGA:   2    -0.664846517601E+03   -0.59037E-01   -0.59039E-01   768   0.140E+00-0.530E-04
CGA:   3    -0.664871526426E+03   -0.25009E-01   -0.25003E-01   768   0.605E-01-0.146E-03
CGA:   4    -0.664880221258E+03   -0.86948E-02   -0.86964E-02   768   0.165E-01-0.246E-04
CGA:   5    -0.664883033617E+03   -0.28124E-02   -0.28120E-02   768   0.504E-02-0.820E-05
CGA:   6    -0.664884105854E+03   -0.10722E-02   -0.10723E-02   768   0.224E-02-0.359E-05
CGA:   7    -0.664884595830E+03   -0.48998E-03   -0.49004E-03   768   0.957E-03-0.315E-05
CGA:   8    -0.664884825607E+03   -0.22978E-03   -0.22991E-03   768   0.468E-03-0.288E-05
CGA:   9    -0.664884911804E+03   -0.86197E-04   -0.86187E-04   768   0.221E-03-0.843E-06
  27 F= -.67143377E+03 E0= -.67141420E+03  d E =-.121630E-01  mag=     3.2081
       N       E                     dE             d eps       ncg     rms          ort
SDA:   1    -0.664688081064E+03    0.19674E+00    0.00000E+00   768   0.517E+00 0.000E+00
CGA:   2    -0.664809441287E+03   -0.12136E+00   -0.12133E+00   768   0.302E+00 0.487E-03
CGA:   3    -0.664861892374E+03   -0.52451E-01   -0.52416E-01   768   0.133E+00-0.632E-03
CGA:   4    -0.664881817640E+03   -0.19925E-01   -0.19934E-01   768   0.362E-01-0.567E-04
CGA:   5    -0.664887949387E+03   -0.61317E-02   -0.61302E-02   768   0.120E-01-0.333E-04
CGA:   6    -0.664890430051E+03   -0.24807E-02   -0.24808E-02   768   0.513E-02-0.116E-04
CGA:   7    -0.664891559064E+03   -0.11290E-02   -0.11291E-02   768   0.215E-02-0.600E-05
CGA:   8    -0.664892069271E+03   -0.51021E-03   -0.51041E-03   768   0.920E-03-0.441E-05
CGA:   9    -0.664892252648E+03   -0.18338E-03   -0.18338E-03   768   0.427E-03-0.298E-06
CGA:  10    -0.664892321389E+03   -0.68741E-04   -0.68749E-04   768   0.172E-03 0.514E-06
  28 F= -.67144171E+03 E0= -.67142208E+03  d E =-.794196E-02  mag=     3.2233
       N       E                     dE             d eps       ncg     rms          ort
SDA:   1    -0.664734121138E+03    0.15813E+00    0.00000E+00   768   0.404E+00 0.000E+00
CGA:   2    -0.664829285267E+03   -0.95164E-01   -0.95143E-01   768   0.236E+00 0.310E-03
CGA:   3    -0.664870164171E+03   -0.40879E-01   -0.40860E-01   768   0.104E+00-0.379E-03
CGA:   4    -0.664885716307E+03   -0.15552E-01   -0.15557E-01   768   0.286E-01-0.417E-04
CGA:   5    -0.664890570056E+03   -0.48537E-02   -0.48529E-02   768   0.910E-02-0.218E-04
CGA:   6    -0.664892507009E+03   -0.19370E-02   -0.19372E-02   768   0.396E-02-0.961E-05
CGA:   7    -0.664893376818E+03   -0.86981E-03   -0.86992E-03   768   0.169E-02-0.485E-05
CGA:   8    -0.664893770825E+03   -0.39401E-03   -0.39417E-03   768   0.742E-03-0.371E-05
CGA:   9    -0.664893911707E+03   -0.14088E-03   -0.14088E-03   768   0.356E-03-0.410E-06
CGA:  10    -0.664893969167E+03   -0.57460E-04   -0.57468E-04   768   0.134E-03 0.447E-06
  29 F= -.67144382E+03 E0= -.67142409E+03  d E =-.100435E-01  mag=     3.2343
       N       E                     dE             d eps       ncg     rms          ort
SDA:   1    -0.664686754991E+03    0.20716E+00    0.00000E+00   768   0.547E+00 0.000E+00
CGA:   2    -0.664803186268E+03   -0.11643E+00   -0.11641E+00   768   0.329E+00 0.479E-03
CGA:   3    -0.664862382010E+03   -0.59196E-01   -0.59156E-01   768   0.159E+00-0.121E-02
CGA:   4    -0.664886646136E+03   -0.24264E-01   -0.24282E-01   768   0.451E-01-0.453E-04
CGA:   5    -0.664894553959E+03   -0.79078E-02   -0.79058E-02   768   0.143E-01-0.604E-04
CGA:   6    -0.664897540122E+03   -0.29862E-02   -0.29863E-02   768   0.644E-02-0.857E-05
CGA:   7    -0.664898992559E+03   -0.14524E-02   -0.14525E-02   768   0.270E-02-0.307E-05
CGA:   8    -0.664899630680E+03   -0.63812E-03   -0.63836E-03   768   0.113E-02-0.488E-05
CGA:   9    -0.664899857740E+03   -0.22706E-03   -0.22706E-03   768   0.483E-03-0.818E-06
CGA:  10    -0.664899934592E+03   -0.76852E-04   -0.76846E-04   768   0.205E-03 0.225E-06
  30 F= -.67145050E+03 E0= -.67143079E+03  d E =-.668245E-02  mag=     3.2611
       N       E                     dE             d eps       ncg     rms          ort
SDA:   1    -0.664846337335E+03    0.53520E-01    0.00000E+00   768   0.139E+00 0.000E+00
CGA:   2    -0.664875964908E+03   -0.29628E-01   -0.29625E-01   768   0.834E-01 0.558E-04
CGA:   3    -0.664890956239E+03   -0.14991E-01   -0.14987E-01   768   0.400E-01-0.151E-03
CGA:   4    -0.664897087389E+03   -0.61312E-02   -0.61325E-02   768   0.114E-01-0.199E-04
CGA:   5    -0.664899074793E+03   -0.19874E-02   -0.19871E-02   768   0.359E-02-0.915E-05
CGA:   6    -0.664899842234E+03   -0.76744E-03   -0.76748E-03   768   0.164E-02-0.165E-05
CGA:   7    -0.664900214541E+03   -0.37231E-03   -0.37234E-03   768   0.704E-03-0.116E-05
CGA:   8    -0.664900378133E+03   -0.16359E-03   -0.16366E-03   768   0.315E-03-0.171E-05
CGA:   9    -0.664900437020E+03   -0.58887E-04   -0.58882E-04   768   0.147E-03-0.650E-06
  31 F= -.67145135E+03 E0= -.67143161E+03  d E =-.753680E-02  mag=     3.2727
       N       E                     dE             d eps       ncg     rms          ort
SDA:   1    -0.664761196397E+03    0.13918E+00    0.00000E+00   768   0.366E+00 0.000E+00
CGA:   2    -0.664841059968E+03   -0.79864E-01   -0.79851E-01   768   0.226E+00 0.261E-03
CGA:   3    -0.664881116837E+03   -0.40057E-01   -0.40038E-01   768   0.102E+00-0.499E-03
CGA:   4    -0.664896263045E+03   -0.15146E-01   -0.15153E-01   768   0.284E-01-0.251E-04
CGA:   5    -0.664901288143E+03   -0.50251E-02   -0.50245E-02   768   0.100E-01-0.222E-04
CGA:   6    -0.664903343757E+03   -0.20556E-02   -0.20558E-02   768   0.438E-02-0.865E-05
CGA:   7    -0.664904330116E+03   -0.98636E-03   -0.98643E-03   768   0.191E-02-0.326E-05
CGA:   8    -0.664904754046E+03   -0.42393E-03   -0.42407E-03   768   0.854E-03-0.397E-05
CGA:   9    -0.664904902316E+03   -0.14827E-03   -0.14828E-03   768   0.391E-03-0.289E-06
CGA:  10    -0.664904966229E+03   -0.63913E-04   -0.63924E-04   768   0.128E-03 0.620E-06
  32 F= -.67145631E+03 E0= -.67143647E+03  d E =-.495806E-02  mag=     3.2815
       N       E                     dE             d eps       ncg     rms          ort
SDA:   1    -0.664788387267E+03    0.11652E+00    0.00000E+00   768   0.299E+00 0.000E+00
CGA:   2    -0.664853841255E+03   -0.65454E-01   -0.65446E-01   768   0.184E+00 0.169E-03
CGA:   3    -0.664886514101E+03   -0.32673E-01   -0.32662E-01   768   0.829E-01-0.307E-03
CGA:   4    -0.664898856996E+03   -0.12343E-01   -0.12347E-01   768   0.234E-01-0.199E-04
CGA:   5    -0.664902986592E+03   -0.41296E-02   -0.41292E-02   768   0.796E-02-0.146E-04
CGA:   6    -0.664904662278E+03   -0.16757E-02   -0.16758E-02   768   0.355E-02-0.715E-05
CGA:   7    -0.664905461108E+03   -0.79883E-03   -0.79889E-03   768   0.157E-02-0.290E-05
CGA:   8    -0.664905805137E+03   -0.34403E-03   -0.34413E-03   768   0.714E-03-0.331E-05
CGA:   9    -0.664905926396E+03   -0.12126E-03   -0.12126E-03   768   0.326E-03-0.329E-06
CGA:  10    -0.664905980785E+03   -0.54389E-04   -0.54400E-04   768   0.106E-03 0.566E-06
  33 F= -.67145770E+03 E0= -.67143783E+03  d E =-.634726E-02  mag=     3.2857
       N       E                     dE             d eps       ncg     rms          ort
SDA:   1    -0.664796391276E+03    0.10954E+00    0.00000E+00   768   0.297E+00 0.000E+00
CGA:   2    -0.664855649642E+03   -0.59258E-01   -0.59256E-01   768   0.176E+00 0.137E-03
CGA:   3    -0.664888859559E+03   -0.33210E-01   -0.33206E-01   768   0.907E-01-0.426E-03
CGA:   4    -0.664902450344E+03   -0.13591E-01   -0.13597E-01   768   0.250E-01-0.127E-04
CGA:   5    -0.664906929586E+03   -0.44792E-02   -0.44789E-02   768   0.877E-02-0.167E-04
CGA:   6    -0.664908770755E+03   -0.18412E-02   -0.18413E-02   768   0.395E-02-0.432E-05
CGA:   7    -0.664909669012E+03   -0.89826E-03   -0.89827E-03   768   0.172E-02-0.101E-05
CGA:   8    -0.664910046092E+03   -0.37708E-03   -0.37717E-03   768   0.722E-03-0.309E-05
CGA:   9    -0.664910172416E+03   -0.12632E-03   -0.12632E-03   768   0.332E-03-0.486E-06
CGA:  10    -0.664910225387E+03   -0.52971E-04   -0.52981E-04   768   0.111E-03 0.450E-06
  34 F= -.67146235E+03 E0= -.67144260E+03  d E =-.464848E-02  mag=     3.2911
       N       E                     dE             d eps       ncg     rms          ort
SDA:   1    -0.663889480386E+03    0.10207E+01    0.00000E+00   768   0.268E+01 0.000E+00
CGA:   2    -0.664421592228E+03   -0.53211E+00   -0.53206E+00   768   0.158E+01 0.444E-02
CGA:   3    -0.664722233191E+03   -0.30064E+00   -0.30053E+00   768   0.828E+00-0.137E-01
CGA:   4    -0.664844930862E+03   -0.12270E+00   -0.12293E+00   768   0.224E+00-0.738E-05
CGA:   5    -0.664885490719E+03   -0.40560E-01   -0.40550E-01   768   0.793E-01-0.556E-03
CGA:   6    -0.664901883421E+03   -0.16393E-01   -0.16395E-01   768   0.354E-01-0.118E-03
CGA:   7    -0.664909896601E+03   -0.80132E-02   -0.80119E-02   768   0.151E-01 0.198E-04
CGA:   8    -0.664913237382E+03   -0.33408E-02   -0.33422E-02   768   0.630E-02-0.357E-04
CGA:   9    -0.664914353173E+03   -0.11158E-02   -0.11160E-02   768   0.281E-02 0.472E-05
CGA:  10    -0.664914802506E+03   -0.44933E-03   -0.44919E-03   768   0.943E-03-0.215E-06
CGA:  11    -0.664915005693E+03   -0.20319E-03   -0.20315E-03   768   0.322E-03 0.149E-05
CGA:  12    -0.664915091208E+03   -0.85515E-04   -0.85482E-04   768   0.202E-03 0.482E-06
  35 F= -.67146839E+03 E0= -.67144951E+03  d E =-.106896E-01  mag=     3.2800
       N       E                     dE             d eps       ncg     rms          ort
SDA:   1    -0.664871378633E+03    0.43627E-01    0.00000E+00   768   0.120E+00 0.000E+00
CGA:   2    -0.664896438575E+03   -0.25060E-01   -0.25059E-01   768   0.725E-01 0.271E-04
CGA:   3    -0.664909782032E+03   -0.13343E-01   -0.13342E-01   768   0.350E-01-0.614E-04
CGA:   4    -0.664914981953E+03   -0.51999E-02   -0.52005E-02   768   0.961E-02-0.640E-05
CGA:   5    -0.664916705547E+03   -0.17236E-02   -0.17236E-02   768   0.344E-02-0.245E-05
CGA:   6    -0.664917398930E+03   -0.69338E-03   -0.69340E-03   768   0.160E-02-0.175E-05
CGA:   7    -0.664917755890E+03   -0.35696E-03   -0.35695E-03   768   0.766E-03-0.349E-06
CGA:   8    -0.664917910953E+03   -0.15506E-03   -0.15507E-03   768   0.389E-03-0.870E-06
CGA:   9    -0.664917973781E+03   -0.62828E-04   -0.62823E-04   768   0.155E-03-0.331E-06
  36 F= -.67147148E+03 E0= -.67145268E+03  d E =-.308975E-02  mag=     3.2677
       N       E                     dE             d eps       ncg     rms          ort
SDA:   1    -0.664504771872E+03    0.41314E+00    0.00000E+00   768   0.109E+01 0.000E+00
CGA:   2    -0.664728943043E+03   -0.22417E+00   -0.22414E+00   768   0.656E+00 0.127E-02
CGA:   3    -0.664849861838E+03   -0.12092E+00   -0.12087E+00   768   0.318E+00-0.260E-02
CGA:   4    -0.664897113908E+03   -0.47252E-01   -0.47295E-01   768   0.854E-01-0.340E-04
CGA:   5    -0.664912480847E+03   -0.15367E-01   -0.15365E-01   768   0.312E-01-0.100E-03
CGA:   6    -0.664918926098E+03   -0.64453E-02   -0.64460E-02   768   0.139E-01-0.327E-04
CGA:   7    -0.664922026772E+03   -0.31007E-02   -0.31000E-02   768   0.613E-02 0.125E-04
CGA:   8    -0.664923321563E+03   -0.12948E-02   -0.12951E-02   768   0.280E-02-0.102E-04
CGA:   9    -0.664923779095E+03   -0.45753E-03   -0.45766E-03   768   0.117E-02 0.757E-06
CGA:  10    -0.664923984243E+03   -0.20515E-03   -0.20515E-03   768   0.363E-03 0.721E-06
CGA:  11    -0.664924066220E+03   -0.81977E-04   -0.81942E-04   768   0.132E-03 0.996E-06
  37 F= -.67147818E+03 E0= -.67145949E+03  d E =-.979301E-02  mag=     3.2270
       N       E                     dE             d eps       ncg     rms          ort
SDA:   1    -0.663248356566E+03    0.16756E+01    0.00000E+00   768   0.437E+01 0.000E+00
CGA:   2    -0.664141970755E+03   -0.89361E+00   -0.89339E+00   768   0.262E+01 0.105E-01
CGA:   3    -0.664626943702E+03   -0.48497E+00   -0.48450E+00   768   0.129E+01-0.224E-01
CGA:   4    -0.664816462799E+03   -0.18952E+00   -0.18990E+00   768   0.342E+00-0.515E-03
CGA:   5    -0.664878730971E+03   -0.62268E-01   -0.62253E-01   768   0.123E+00-0.929E-03
CGA:   6    -0.664904078406E+03   -0.25347E-01   -0.25354E-01   768   0.559E-01-0.347E-03
CGA:   7    -0.664916265334E+03   -0.12187E-01   -0.12181E-01   768   0.247E-01 0.131E-03
CGA:   8    -0.664921308146E+03   -0.50428E-02   -0.50438E-02   768   0.119E-01-0.650E-04
CGA:   9    -0.664923214637E+03   -0.19065E-02   -0.19077E-02   768   0.445E-02 0.944E-05
CGA:  10    -0.664924059053E+03   -0.84442E-03   -0.84440E-03   768   0.137E-02-0.110E-05
CGA:  11    -0.664924370639E+03   -0.31159E-03   -0.31151E-03   768   0.514E-03 0.195E-05
CGA:  12    -0.664924481768E+03   -0.11113E-03   -0.11111E-03   768   0.348E-03 0.824E-06
CGA:  13    -0.664924545219E+03   -0.63450E-04   -0.63462E-04   768   0.180E-03 0.971E-06
  38 F= -.67147983E+03 E0= -.67146058E+03  d E =-.114460E-01  mag=     3.1149
       N       E                     dE             d eps       ncg     rms          ort
SDA:   1    -0.664625231577E+03    0.29925E+00    0.00000E+00   768   0.780E+00 0.000E+00
CGA:   2    -0.664787100920E+03   -0.16187E+00   -0.16187E+00   768   0.474E+00-0.511E-03
CGA:   3    -0.664873122671E+03   -0.86022E-01   -0.86045E-01   768   0.227E+00 0.583E-03
CGA:   4    -0.664907144101E+03   -0.34021E-01   -0.34008E-01   768   0.615E-01 0.533E-05
CGA:   5    -0.664918182974E+03   -0.11039E-01   -0.11039E-01   768   0.220E-01 0.921E-05
CGA:   6    -0.664922783876E+03   -0.46009E-02   -0.46005E-02   768   0.101E-01 0.196E-04
CGA:   7    -0.664924959014E+03   -0.21751E-02   -0.21756E-02   768   0.466E-02-0.140E-04
CGA:   8    -0.664925865051E+03   -0.90604E-03   -0.90607E-03   768   0.218E-02 0.445E-05
CGA:   9    -0.664926216823E+03   -0.35177E-03   -0.35169E-03   768   0.776E-03-0.112E-06
CGA:  10    -0.664926365078E+03   -0.14826E-03   -0.14825E-03   768   0.226E-03-0.737E-06
CGA:  11    -0.664926413419E+03   -0.48341E-04   -0.48355E-04   768   0.813E-04-0.768E-06
  39 F= -.67148121E+03 E0= -.67146209E+03  d E =-.128251E-01  mag=     3.1564
       N       E                     dE             d eps       ncg     rms          ort
SDA:   1    -0.664915529266E+03    0.10836E-01    0.00000E+00   768   0.371E-01 0.000E+00
CGA:   2    -0.664926048551E+03   -0.10519E-01   -0.10518E-01   768   0.202E-01 0.100E-04
CGA:   3    -0.664929331323E+03   -0.32828E-02   -0.32815E-02   768   0.864E-02-0.118E-04
CGA:   4    -0.664930550184E+03   -0.12189E-02   -0.12187E-02   768   0.202E-02-0.716E-05
CGA:   5    -0.664930913641E+03   -0.36346E-03   -0.36350E-03   768   0.596E-03 0.286E-05
CGA:   6    -0.664931033250E+03   -0.11961E-03   -0.11961E-03   768   0.229E-03 0.204E-07
CGA:   7    -0.664931083324E+03   -0.50074E-04   -0.50091E-04   768   0.103E-03-0.755E-06
  40 F= -.67148601E+03 E0= -.67146682E+03  d E =-.479254E-02  mag=     3.1496
       N       E                     dE             d eps       ncg     rms          ort
SDA:   1    -0.664797198245E+03    0.13384E+00    0.00000E+00   768   0.334E+00 0.000E+00
CGA:   2    -0.664891285672E+03   -0.94087E-01   -0.94048E-01   768   0.189E+00 0.372E-03
CGA:   3    -0.664921069311E+03   -0.29784E-01   -0.29739E-01   768   0.797E-01-0.226E-03
CGA:   4    -0.664932504212E+03   -0.11435E-01   -0.11441E-01   768   0.181E-01-0.244E-04
CGA:   5    -0.664935884551E+03   -0.33803E-02   -0.33803E-02   768   0.535E-02 0.278E-05
CGA:   6    -0.664936961476E+03   -0.10769E-02   -0.10769E-02   768   0.217E-02 0.498E-06
CGA:   7    -0.664937433523E+03   -0.47205E-03   -0.47209E-03   768   0.976E-03-0.178E-05
CGA:   8    -0.664937678967E+03   -0.24544E-03   -0.24548E-03   768   0.431E-03-0.797E-06
CGA:   9    -0.664937783262E+03   -0.10430E-03   -0.10424E-03   768   0.197E-03 0.133E-05
CGA:  10    -0.664937819828E+03   -0.36565E-04   -0.36576E-04   768   0.105E-03 0.529E-06
  41 F= -.67149308E+03 E0= -.67147360E+03  d E =-.118678E-01  mag=     3.1158
       N       E                     dE             d eps       ncg     rms          ort
SDA:   1    -0.664910769244E+03    0.27014E-01    0.00000E+00   768   0.826E-01 0.000E+00
CGA:   2    -0.664928352545E+03   -0.17583E-01   -0.17582E-01   768   0.504E-01 0.368E-04
CGA:   3    -0.664936810193E+03   -0.84576E-02   -0.84539E-02   768   0.240E-01-0.387E-04
CGA:   4    -0.664940526335E+03   -0.37161E-02   -0.37167E-02   768   0.616E-02-0.116E-04
CGA:   5    -0.664941652855E+03   -0.11265E-02   -0.11265E-02   768   0.198E-02 0.344E-05
CGA:   6    -0.664942060022E+03   -0.40717E-03   -0.40713E-03   768   0.850E-03 0.417E-05
CGA:   7    -0.664942256667E+03   -0.19665E-03   -0.19659E-03   768   0.404E-03 0.158E-05
CGA:   8    -0.664942355139E+03   -0.98473E-04   -0.98466E-04   768   0.171E-03 0.184E-06
  42 F= -.67149785E+03 E0= -.67147819E+03  d E =-.476693E-02  mag=     3.0983
       N       E                     dE             d eps       ncg     rms          ort
SDA:   1    -0.664871366250E+03    0.70890E-01    0.00000E+00   768   0.191E+00 0.000E+00
CGA:   2    -0.664912402705E+03   -0.41036E-01   -0.41034E-01   768   0.115E+00 0.103E-03
CGA:   3    -0.664931984688E+03   -0.19582E-01   -0.19570E-01   768   0.554E-01-0.141E-03
CGA:   4    -0.664940396862E+03   -0.84122E-02   -0.84153E-02   768   0.140E-01-0.168E-04
CGA:   5    -0.664942978143E+03   -0.25813E-02   -0.25812E-02   768   0.491E-02 0.208E-05
CGA:   6    -0.664943939217E+03   -0.96107E-03   -0.96109E-03   768   0.206E-02 0.609E-05
CGA:   7    -0.664944411834E+03   -0.47262E-03   -0.47253E-03   768   0.979E-03 0.255E-05
CGA:   8    -0.664944641567E+03   -0.22973E-03   -0.22973E-03   768   0.462E-03 0.385E-06
CGA:   9    -0.664944730438E+03   -0.88871E-04   -0.88873E-04   768   0.224E-03 0.781E-07
  43 F= -.67150057E+03 E0= -.67148066E+03  d E =-.748426E-02  mag=     3.0664
       N       E                     dE             d eps       ncg     rms          ort
SDA:   1    -0.664931350420E+03    0.13291E-01    0.00000E+00   768   0.410E-01 0.000E+00
CGA:   2    -0.664940969880E+03   -0.96195E-02   -0.96190E-02   768   0.257E-01 0.703E-05
CGA:   3    -0.664945157278E+03   -0.41874E-02   -0.41862E-02   768   0.114E-01-0.825E-05
CGA:   4    -0.664946864450E+03   -0.17072E-02   -0.17072E-02   768   0.277E-02-0.721E-05
CGA:   5    -0.664947350764E+03   -0.48631E-03   -0.48635E-03   768   0.102E-02 0.218E-05
CGA:   6    -0.664947551157E+03   -0.20039E-03   -0.20039E-03   768   0.424E-03 0.169E-05
CGA:   7    -0.664947647404E+03   -0.96247E-04   -0.96253E-04   768   0.217E-03-0.230E-06
  44 F= -.67150359E+03 E0= -.67148358E+03  d E =-.302725E-02  mag=     3.0417
       N       E                     dE             d eps       ncg     rms          ort
SDA:   1    -0.664806561484E+03    0.14099E+00    0.00000E+00   768   0.365E+00 0.000E+00
CGA:   2    -0.664893257396E+03   -0.86696E-01   -0.86678E-01   768   0.228E+00 0.268E-03
CGA:   3    -0.664930776354E+03   -0.37519E-01   -0.37490E-01   768   0.100E+00-0.288E-03
CGA:   4    -0.664945551593E+03   -0.14775E-01   -0.14784E-01   768   0.253E-01-0.159E-04
CGA:   5    -0.664950189921E+03   -0.46383E-02   -0.46382E-02   768   0.841E-02-0.259E-05
CGA:   6    -0.664951893492E+03   -0.17036E-02   -0.17036E-02   768   0.363E-02 0.264E-05
CGA:   7    -0.664952695220E+03   -0.80173E-03   -0.80169E-03   768   0.176E-02 0.712E-06
CGA:   8    -0.664953087170E+03   -0.39195E-03   -0.39194E-03   768   0.900E-03 0.477E-06
CGA:   9    -0.664953248532E+03   -0.16136E-03   -0.16138E-03   768   0.415E-03 0.726E-06
CGA:  10    -0.664953327656E+03   -0.79125E-04   -0.79134E-04   768   0.143E-03 0.128E-05
  45 F= -.67150959E+03 E0= -.67148951E+03  d E =-.902706E-02  mag=     2.9634
       N       E                     dE             d eps       ncg     rms          ort
SDA:   1    -0.664366022827E+03    0.58723E+00    0.00000E+00   768   0.145E+01 0.000E+00
CGA:   2    -0.664713904790E+03   -0.34788E+00   -0.34777E+00   768   0.895E+00 0.170E-02
CGA:   3    -0.664863269714E+03   -0.14936E+00   -0.14922E+00   768   0.396E+00-0.169E-02
CGA:   4    -0.664921394875E+03   -0.58125E-01   -0.58191E-01   768   0.987E-01-0.316E-04
CGA:   5    -0.664939044315E+03   -0.17649E-01   -0.17648E-01   768   0.327E-01-0.561E-04
CGA:   6    -0.664945636998E+03   -0.65927E-02   -0.65928E-02   768   0.141E-01-0.156E-04
CGA:   7    -0.664948720463E+03   -0.30835E-02   -0.30831E-02   768   0.696E-02 0.873E-05
CGA:   8    -0.664950226498E+03   -0.15060E-02   -0.15058E-02   768   0.351E-02 0.847E-05
CGA:   9    -0.664950877379E+03   -0.65088E-03   -0.65091E-03   768   0.149E-02 0.154E-05
CGA:  10    -0.664951179267E+03   -0.30189E-03   -0.30187E-03   768   0.514E-03 0.363E-05
CGA:  11    -0.664951304461E+03   -0.12519E-03   -0.12519E-03   768   0.224E-03 0.154E-06
CGA:  12    -0.664951356537E+03   -0.52075E-04   -0.52055E-04   768   0.154E-03 0.313E-06
  46 F= -.67150821E+03 E0= -.67148931E+03  d E =-.764286E-02  mag=     2.7934
       N       E                     dE             d eps       ncg     rms          ort
SDA:   1    -0.664759879035E+03    0.19143E+00    0.00000E+00   768   0.486E+00 0.000E+00
CGA:   2    -0.664875317104E+03   -0.11544E+00   -0.11545E+00   768   0.299E+00-0.243E-03
CGA:   3    -0.664924770233E+03   -0.49453E-01   -0.49478E-01   768   0.133E+00 0.224E-03
CGA:   4    -0.664944637053E+03   -0.19867E-01   -0.19855E-01   768   0.332E-01 0.167E-04
CGA:   5    -0.664950559867E+03   -0.59228E-02   -0.59229E-02   768   0.113E-01 0.133E-05
CGA:   6    -0.664952821525E+03   -0.22617E-02   -0.22617E-02   768   0.483E-02 0.694E-07
CGA:   7    -0.664953839546E+03   -0.10180E-02   -0.10181E-02   768   0.243E-02-0.931E-06
CGA:   8    -0.664954329837E+03   -0.49029E-03   -0.49029E-03   768   0.119E-02-0.313E-06
CGA:   9    -0.664954551043E+03   -0.22121E-03   -0.22119E-03   768   0.450E-03-0.610E-06
CGA:  10    -0.664954645055E+03   -0.94011E-04   -0.94025E-04   768   0.144E-03-0.128E-05
  47 F= -.67151117E+03 E0= -.67149160E+03  d E =-.106012E-01  mag=     2.8641
       N       E                     dE             d eps       ncg     rms          ort
SDA:   1    -0.664912836817E+03    0.41714E-01    0.00000E+00   768   0.107E+00 0.000E+00
CGA:   2    -0.664946462038E+03   -0.33625E-01   -0.33627E-01   768   0.595E-01-0.151E-04
CGA:   3    -0.664955165841E+03   -0.87038E-02   -0.87053E-02   768   0.221E-01-0.146E-06
CGA:   4    -0.664958636297E+03   -0.34705E-02   -0.34707E-02   768   0.541E-02-0.977E-05
CGA:   5    -0.664959584940E+03   -0.94864E-03   -0.94868E-03   768   0.163E-02 0.216E-05
CGA:   6    -0.664959886410E+03   -0.30147E-03   -0.30150E-03   768   0.663E-03 0.197E-05
CGA:   7    -0.664960021375E+03   -0.13496E-03   -0.13496E-03   768   0.321E-03 0.339E-06
CGA:   8    -0.664960089025E+03   -0.67650E-04   -0.67634E-04   768   0.180E-03 0.121E-05
  48 F= -.67151682E+03 E0= -.67149775E+03  d E =-.565174E-02  mag=     2.8183
       N       E                     dE             d eps       ncg     rms          ort
SDA:   1    -0.664545049665E+03    0.41497E+00    0.00000E+00   768   0.958E+00 0.000E+00
CGA:   2    -0.664849422403E+03   -0.30437E+00   -0.30447E+00   768   0.507E+00-0.699E-03
CGA:   3    -0.664927025266E+03   -0.77603E-01   -0.77640E-01   768   0.191E+00-0.219E-04
CGA:   4    -0.664956184809E+03   -0.29160E-01   -0.29176E-01   768   0.473E-01-0.454E-04
CGA:   5    -0.664964471387E+03   -0.82866E-02   -0.82858E-02   768   0.146E-01-0.177E-04
CGA:   6    -0.664967195748E+03   -0.27244E-02   -0.27244E-02   768   0.613E-02 0.378E-05
CGA:   7    -0.664968435405E+03   -0.12397E-02   -0.12397E-02   768   0.293E-02 0.175E-05
CGA:   8    -0.664969075129E+03   -0.63972E-03   -0.63935E-03   768   0.152E-02 0.128E-04
CGA:   9    -0.664969404704E+03   -0.32958E-03   -0.32960E-03   768   0.643E-03-0.328E-06
CGA:  10    -0.664969555721E+03   -0.15102E-03   -0.15095E-03   768   0.238E-03 0.151E-05
CGA:  11    -0.664969611950E+03   -0.56228E-04   -0.56232E-04   768   0.111E-03 0.149E-08
  49 F= -.67152694E+03 E0= -.67151018E+03  d E =-.157773E-01  mag=     2.6817
       N       E                     dE             d eps       ncg     rms          ort
SDA:   1    -0.664907256893E+03    0.62299E-01    0.00000E+00   768   0.143E+00 0.000E+00
CGA:   2    -0.664951834438E+03   -0.44578E-01   -0.44582E-01   768   0.797E-01-0.335E-04
CGA:   3    -0.664963701970E+03   -0.11868E-01   -0.11871E-01   768   0.284E-01 0.341E-05
CGA:   4    -0.664968240362E+03   -0.45384E-02   -0.45386E-02   768   0.704E-02-0.135E-04
CGA:   5    -0.664969434406E+03   -0.11940E-02   -0.11941E-02   768   0.217E-02 0.929E-06
CGA:   6    -0.664969826522E+03   -0.39212E-03   -0.39219E-03   768   0.902E-03 0.362E-05
CGA:   7    -0.664970007690E+03   -0.18117E-03   -0.18117E-03   768   0.415E-03 0.230E-06
CGA:   8    -0.664970100837E+03   -0.93146E-04   -0.93111E-04   768   0.209E-03 0.134E-05
  50 F= -.67152766E+03 E0= -.67151152E+03  d E =-.164903E-01  mag=     2.6537
       N       E                     dE             d eps       ncg     rms          ort
SDA:   1    -0.664896043702E+03    0.73964E-01    0.00000E+00   768   0.185E+00 0.000E+00
CGA:   2    -0.664951085131E+03   -0.55041E-01   -0.55042E-01   768   0.100E+00-0.111E-04
CGA:   3    -0.664966879404E+03   -0.15794E-01   -0.15790E-01   768   0.378E-01-0.312E-04
CGA:   4    -0.664972748113E+03   -0.58687E-02   -0.58692E-02   768   0.962E-02-0.179E-04
CGA:   5    -0.664974401322E+03   -0.16532E-02   -0.16532E-02   768   0.299E-02 0.106E-05
CGA:   6    -0.664974922087E+03   -0.52077E-03   -0.52090E-03   768   0.120E-02 0.569E-05
CGA:   7    -0.664975168666E+03   -0.24658E-03   -0.24657E-03   768   0.519E-03 0.200E-05
CGA:   8    -0.664975285861E+03   -0.11720E-03   -0.11715E-03   768   0.262E-03 0.156E-05
CGA:   9    -0.664975346413E+03   -0.60552E-04   -0.60553E-04   768   0.105E-03-0.102E-07
  51 F= -.67153320E+03 E0= -.67151746E+03  d E =-.554565E-02  mag=     2.6351
       N       E                     dE             d eps       ncg     rms          ort
SDA:   1    -0.664912278351E+03    0.63008E-01    0.00000E+00   768   0.151E+00 0.000E+00
CGA:   2    -0.664956576104E+03   -0.44298E-01   -0.44297E-01   768   0.841E-01 0.578E-05
CGA:   3    -0.664969513257E+03   -0.12937E-01   -0.12931E-01   768   0.313E-01-0.263E-04
CGA:   4    -0.664974452345E+03   -0.49391E-02   -0.49392E-02   768   0.822E-02-0.165E-04
CGA:   5    -0.664975768827E+03   -0.13165E-02   -0.13165E-02   768   0.264E-02 0.729E-06
CGA:   6    -0.664976220277E+03   -0.45145E-03   -0.45159E-03   768   0.969E-03 0.521E-05
CGA:   7    -0.664976423905E+03   -0.20363E-03   -0.20361E-03   768   0.432E-03 0.176E-05
CGA:   8    -0.664976518657E+03   -0.94752E-04   -0.94726E-04   768   0.212E-03 0.146E-05
  52 F= -.67153464E+03 E0= -.67151908E+03  d E =-.698537E-02  mag=     2.6239
       N       E                     dE             d eps       ncg     rms          ort
SDA:   1    -0.664930110921E+03    0.46313E-01    0.00000E+00   768   0.122E+00 0.000E+00
CGA:   2    -0.664968110915E+03   -0.38000E-01   -0.38002E-01   768   0.499E-01-0.570E-05
CGA:   3    -0.664977033233E+03   -0.89223E-02   -0.89219E-02   768   0.222E-01-0.708E-05
CGA:   4    -0.664980127102E+03   -0.30939E-02   -0.30940E-02   768   0.545E-02-0.167E-05
CGA:   5    -0.664981077352E+03   -0.95025E-03   -0.95031E-03   768   0.154E-02 0.174E-05
CGA:   6    -0.664981364501E+03   -0.28715E-03   -0.28716E-03   768   0.565E-03 0.852E-06
CGA:   7    -0.664981486377E+03   -0.12188E-03   -0.12188E-03   768   0.241E-03-0.607E-06
CGA:   8    -0.664981546549E+03   -0.60173E-04   -0.60178E-04   768   0.119E-03-0.115E-06
  53 F= -.67153977E+03 E0= -.67152422E+03  d E =-.513075E-02  mag=     2.6220
       N       E                     dE             d eps       ncg     rms          ort
SDA:   1    -0.664919987112E+03    0.61499E-01    0.00000E+00   768   0.150E+00 0.000E+00
CGA:   2    -0.664966864049E+03   -0.46877E-01   -0.46879E-01   768   0.615E-01-0.635E-05
CGA:   3    -0.664977823565E+03   -0.10960E-01   -0.10959E-01   768   0.275E-01-0.835E-05
CGA:   4    -0.664981703554E+03   -0.38800E-02   -0.38801E-02   768   0.652E-02-0.167E-05
CGA:   5    -0.664982841667E+03   -0.11381E-02   -0.11382E-02   768   0.195E-02 0.225E-05
CGA:   6    -0.664983193678E+03   -0.35201E-03   -0.35203E-03   768   0.698E-03 0.732E-06
CGA:   7    -0.664983347740E+03   -0.15406E-03   -0.15407E-03   768   0.296E-03-0.662E-06
CGA:   8    -0.664983422318E+03   -0.74578E-04   -0.74583E-04   768   0.145E-03-0.107E-06
  54 F= -.67154176E+03 E0= -.67152618E+03  d E =-.711204E-02  mag=     2.6218
       N       E                     dE             d eps       ncg     rms          ort
SDA:   1    -0.664965446433E+03    0.17901E-01    0.00000E+00   768   0.540E-01 0.000E+00
CGA:   2    -0.664979118665E+03   -0.13672E-01   -0.13673E-01   768   0.283E-01-0.838E-05
CGA:   3    -0.664983629414E+03   -0.45107E-02   -0.45113E-02   768   0.121E-01 0.154E-05
CGA:   4    -0.664985454406E+03   -0.18250E-02   -0.18248E-02   768   0.341E-02-0.156E-05
CGA:   5    -0.664986051764E+03   -0.59736E-03   -0.59743E-03   768   0.106E-02 0.256E-05
CGA:   6    -0.664986250201E+03   -0.19844E-03   -0.19845E-03   768   0.404E-03 0.600E-06
CGA:   7    -0.664986339811E+03   -0.89611E-04   -0.89621E-04   768   0.186E-03-0.553E-06
  55 F= -.67154474E+03 E0= -.67152916E+03  d E =-.298418E-02  mag=     2.6204
       N       E                     dE             d eps       ncg     rms          ort
SDA:   1    -0.664824977989E+03    0.16127E+00    0.00000E+00   768   0.423E+00 0.000E+00
CGA:   2    -0.664932458105E+03   -0.10748E+00   -0.10749E+00   768   0.223E+00-0.144E-03
CGA:   3    -0.664967759287E+03   -0.35301E-01   -0.35311E-01   768   0.952E-01 0.460E-04
CGA:   4    -0.664982069713E+03   -0.14310E-01   -0.14309E-01   768   0.272E-01-0.528E-05
CGA:   5    -0.664986935963E+03   -0.48662E-02   -0.48662E-02   768   0.813E-02 0.428E-05
CGA:   6    -0.664988463789E+03   -0.15278E-02   -0.15279E-02   768   0.312E-02 0.480E-05
CGA:   7    -0.664989158620E+03   -0.69483E-03   -0.69489E-03   768   0.142E-02-0.207E-05
CGA:   8    -0.664989496769E+03   -0.33815E-03   -0.33817E-03   768   0.640E-03-0.101E-05
CGA:   9    -0.664989642408E+03   -0.14564E-03   -0.14562E-03   768   0.273E-03 0.993E-06
CGA:  10    -0.664989697952E+03   -0.55544E-04   -0.55544E-04   768   0.105E-03 0.122E-06
  56 F= -.67154827E+03 E0= -.67153271E+03  d E =-.651529E-02  mag=     2.6152
       N       E                     dE             d eps       ncg     rms          ort
SDA:   1    -0.664947752703E+03    0.41890E-01    0.00000E+00   768   0.122E+00 0.000E+00
CGA:   2    -0.664974226898E+03   -0.26474E-01   -0.26475E-01   768   0.658E-01-0.235E-04
CGA:   3    -0.664985008626E+03   -0.10782E-01   -0.10783E-01   768   0.303E-01 0.667E-05
CGA:   4    -0.664989714126E+03   -0.47055E-02   -0.47053E-02   768   0.905E-02-0.380E-05
CGA:   5    -0.664991338529E+03   -0.16244E-02   -0.16244E-02   768   0.302E-02 0.230E-05
CGA:   6    -0.664991936524E+03   -0.59799E-03   -0.59800E-03   768   0.123E-02 0.169E-05
CGA:   7    -0.664992214611E+03   -0.27809E-03   -0.27813E-03   768   0.569E-03-0.146E-05
CGA:   8    -0.664992345587E+03   -0.13098E-03   -0.13101E-03   768   0.226E-03-0.115E-05
CGA:   9    -0.664992395106E+03   -0.49519E-04   -0.49513E-04   768   0.868E-04 0.398E-06
  57 F= -.67155105E+03 E0= -.67153554E+03  d E =-.277773E-02  mag=     2.6118
       N       E                     dE             d eps       ncg     rms          ort
SDA:   1    -0.664860236148E+03    0.13211E+00    0.00000E+00   768   0.367E+00 0.000E+00
CGA:   2    -0.664939529180E+03   -0.79293E-01   -0.79296E-01   768   0.197E+00-0.133E-03
CGA:   3    -0.664971985442E+03   -0.32456E-01   -0.32464E-01   768   0.903E-01 0.641E-04
CGA:   4    -0.664986078174E+03   -0.14093E-01   -0.14092E-01   768   0.269E-01-0.411E-05
CGA:   5    -0.664990889573E+03   -0.48114E-02   -0.48112E-02   768   0.938E-02 0.872E-06
CGA:   6    -0.664992698934E+03   -0.18094E-02   -0.18094E-02   768   0.372E-02 0.641E-05
CGA:   7    -0.664993541605E+03   -0.84267E-03   -0.84280E-03   768   0.173E-02-0.351E-05
CGA:   8    -0.664993935024E+03   -0.39342E-03   -0.39345E-03   768   0.694E-03-0.151E-05
CGA:   9    -0.664994085884E+03   -0.15086E-03   -0.15085E-03   768   0.263E-03 0.478E-06
CGA:  10    -0.664994138654E+03   -0.52771E-04   -0.52771E-04   768   0.960E-04 0.464E-07
  58 F= -.67155292E+03 E0= -.67153750E+03  d E =-.465295E-02  mag=     2.6060
       N       E                     dE             d eps       ncg     rms          ort
SDA:   1    -0.664952121764E+03    0.41964E-01    0.00000E+00   768   0.117E+00 0.000E+00
CGA:   2    -0.664980072902E+03   -0.27951E-01   -0.27952E-01   768   0.626E-01-0.133E-04
CGA:   3    -0.664990119843E+03   -0.10047E-01   -0.10050E-01   768   0.264E-01 0.213E-04
CGA:   4    -0.664994173516E+03   -0.40537E-02   -0.40536E-02   768   0.790E-02 0.234E-05
CGA:   5    -0.664995543894E+03   -0.13704E-02   -0.13704E-02   768   0.253E-02 0.162E-05
CGA:   6    -0.664996039169E+03   -0.49528E-03   -0.49528E-03   768   0.106E-02-0.894E-06
CGA:   7    -0.664996268825E+03   -0.22966E-03   -0.22968E-03   768   0.484E-03-0.113E-05
CGA:   8    -0.664996377162E+03   -0.10834E-03   -0.10835E-03   768   0.212E-03-0.735E-06
CGA:   9    -0.664996423315E+03   -0.46153E-04   -0.46145E-04   768   0.828E-04 0.498E-06
  59 F= -.67155517E+03 E0= -.67153975E+03  d E =-.224489E-02  mag=     2.6065
       N       E                     dE             d eps       ncg     rms          ort
SDA:   1    -0.664955082562E+03    0.41295E-01    0.00000E+00   768   0.111E+00 0.000E+00
CGA:   2    -0.664981595690E+03   -0.26513E-01   -0.26514E-01   768   0.595E-01-0.171E-04
CGA:   3    -0.664991210937E+03   -0.96152E-02   -0.96185E-02   768   0.247E-01 0.263E-04
CGA:   4    -0.664995055468E+03   -0.38445E-02   -0.38444E-02   768   0.742E-02 0.382E-05
CGA:   5    -0.664996328598E+03   -0.12731E-02   -0.12731E-02   768   0.254E-02 0.229E-05
CGA:   6    -0.664996808196E+03   -0.47960E-03   -0.47960E-03   768   0.103E-02-0.889E-06
CGA:   7    -0.664997033256E+03   -0.22506E-03   -0.22509E-03   768   0.471E-03-0.109E-05
CGA:   8    -0.664997137969E+03   -0.10471E-03   -0.10473E-03   768   0.207E-03-0.797E-06
CGA:   9    -0.664997183298E+03   -0.45329E-04   -0.45320E-04   768   0.791E-04 0.447E-06
  60 F= -.67155588E+03 E0= -.67154046E+03  d E =-.296138E-02  mag=     2.6075
       N       E                     dE             d eps       ncg     rms          ort
SDA:   1    -0.664978548996E+03    0.18589E-01    0.00000E+00   768   0.515E-01 0.000E+00
CGA:   2    -0.664992552040E+03   -0.14003E-01   -0.14004E-01   768   0.246E-01-0.609E-05
CGA:   3    -0.664996517041E+03   -0.39650E-02   -0.39656E-02   768   0.973E-02 0.631E-05
CGA:   4    -0.664997974959E+03   -0.14579E-02   -0.14579E-02   768   0.276E-02 0.179E-05
CGA:   5    -0.664998434600E+03   -0.45964E-03   -0.45968E-03   768   0.878E-03 0.147E-05
CGA:   6    -0.664998601257E+03   -0.16666E-03   -0.16666E-03   768   0.341E-03 0.292E-06
CGA:   7    -0.664998675565E+03   -0.74307E-04   -0.74296E-04   768   0.149E-03 0.595E-06
  61 F= -.67155736E+03 E0= -.67154194E+03  d E =-.147684E-02  mag=     2.6069
       N       E                     dE             d eps       ncg     rms          ort
SDA:   1    -0.664868709441E+03    0.12989E+00    0.00000E+00   768   0.335E+00 0.000E+00
CGA:   2    -0.664959838333E+03   -0.91129E-01   -0.91144E-01   768   0.162E+00-0.148E-03
CGA:   3    -0.664985555077E+03   -0.25717E-01   -0.25725E-01   768   0.647E-01 0.607E-04
CGA:   4    -0.664995099921E+03   -0.95448E-02   -0.95443E-02   768   0.186E-01 0.816E-05
CGA:   5    -0.664998338647E+03   -0.32387E-02   -0.32387E-02   768   0.548E-02 0.404E-05
CGA:   6    -0.664999411948E+03   -0.10733E-02   -0.10733E-02   768   0.226E-02 0.260E-05
CGA:   7    -0.664999891191E+03   -0.47924E-03   -0.47923E-03   768   0.976E-03 0.126E-05
CGA:   8    -0.665000117790E+03   -0.22660E-03   -0.22657E-03   768   0.463E-03 0.769E-06
CGA:   9    -0.665000219102E+03   -0.10131E-03   -0.10130E-03   768   0.195E-03 0.633E-06
CGA:  10    -0.665000259746E+03   -0.40644E-04   -0.40646E-04   768   0.727E-04-0.217E-06
  62 F= -.67155890E+03 E0= -.67154349E+03  d E =-.301675E-02  mag=     2.6055
       N       E                     dE             d eps       ncg     rms          ort
SDA:   1    -0.664968464033E+03    0.31755E-01    0.00000E+00   768   0.853E-01 0.000E+00
CGA:   2    -0.664993202677E+03   -0.24739E-01   -0.24739E-01   768   0.357E-01 0.268E-06
CGA:   3    -0.664999155331E+03   -0.59527E-02   -0.59539E-02   768   0.142E-01 0.125E-04
CGA:   4    -0.665001237836E+03   -0.20825E-02   -0.20825E-02   768   0.396E-02 0.593E-05
CGA:   5    -0.665001890627E+03   -0.65279E-03   -0.65277E-03   768   0.108E-02-0.585E-06
CGA:   6    -0.665002105708E+03   -0.21508E-03   -0.21508E-03   768   0.438E-03-0.123E-05
CGA:   7    -0.665002192196E+03   -0.86487E-04   -0.86489E-04   768   0.190E-03 0.102E-05
  63 F= -.67156075E+03 E0= -.67154533E+03  d E =-.184800E-02  mag=     2.6053
       N       E                     dE             d eps       ncg     rms          ort
SDA:   1    -0.664702092051E+03    0.30001E+00    0.00000E+00   768   0.767E+00 0.000E+00
CGA:   2    -0.664923713323E+03   -0.22162E+00   -0.22164E+00   768   0.327E+00-0.999E-04
CGA:   3    -0.664977510881E+03   -0.53798E-01   -0.53838E-01   768   0.128E+00 0.341E-03
CGA:   4    -0.664996497977E+03   -0.18987E-01   -0.18979E-01   768   0.359E-01 0.408E-04
CGA:   5    -0.665002597073E+03   -0.60991E-02   -0.60995E-02   768   0.100E-01 0.106E-04
CGA:   6    -0.665004514659E+03   -0.19176E-02   -0.19176E-02   768   0.421E-02 0.233E-05
CGA:   7    -0.665005332544E+03   -0.81789E-03   -0.81789E-03   768   0.177E-02 0.286E-05
CGA:   8    -0.665005732119E+03   -0.39958E-03   -0.39951E-03   768   0.886E-03 0.196E-05
CGA:   9    -0.665005931541E+03   -0.19942E-03   -0.19940E-03   768   0.365E-03 0.104E-05
CGA:  10    -0.665006018144E+03   -0.86603E-04   -0.86609E-04   768   0.137E-03-0.168E-06
  64 F= -.67156432E+03 E0= -.67154886E+03  d E =-.541445E-02  mag=     2.6065
       N       E                     dE             d eps       ncg     rms          ort
SDA:   1    -0.663788401905E+03    0.12175E+01    0.00000E+00   768   0.307E+01 0.000E+00
CGA:   2    -0.664677154169E+03   -0.88875E+00   -0.88893E+00   768   0.129E+01-0.940E-03
CGA:   3    -0.664891453619E+03   -0.21430E+00   -0.21461E+00   768   0.507E+00 0.246E-02
CGA:   4    -0.664967098458E+03   -0.75645E-01   -0.75578E-01   768   0.140E+00 0.199E-03
CGA:   5    -0.664990520143E+03   -0.23422E-01   -0.23425E-01   768   0.392E-01 0.819E-04
CGA:   6    -0.664998083543E+03   -0.75634E-02   -0.75639E-02   768   0.158E-01 0.356E-04
CGA:   7    -0.665001220260E+03   -0.31367E-02   -0.31367E-02   768   0.673E-02 0.161E-05
CGA:   8    -0.665002719774E+03   -0.14995E-02   -0.14992E-02   768   0.339E-02 0.933E-05
CGA:   9    -0.665003468389E+03   -0.74861E-03   -0.74861E-03   768   0.144E-02 0.128E-05
CGA:  10    -0.665003798628E+03   -0.33024E-03   -0.33023E-03   768   0.546E-03 0.243E-06
CGA:  11    -0.665003919966E+03   -0.12134E-03   -0.12134E-03   768   0.208E-03-0.151E-06
CGA:  12    -0.665003961837E+03   -0.41870E-04   -0.41870E-04   768   0.871E-04 0.360E-07
  65 F= -.67156171E+03 E0= -.67154620E+03  d E =-.281020E-02  mag=     2.6079
       N       E                     dE             d eps       ncg     rms          ort
SDA:   1    -0.664414165126E+03    0.58975E+00    0.00000E+00   768   0.150E+01 0.000E+00
CGA:   2    -0.664846049049E+03   -0.43188E+00   -0.43183E+00   768   0.637E+00 0.263E-03
CGA:   3    -0.664951688471E+03   -0.10564E+00   -0.10553E+00   768   0.250E+00-0.773E-03
CGA:   4    -0.664988787764E+03   -0.37099E-01   -0.37128E-01   768   0.686E-01-0.689E-04
CGA:   5    -0.665000289519E+03   -0.11502E-01   -0.11500E-01   768   0.193E-01-0.251E-04
CGA:   6    -0.665003963488E+03   -0.36740E-02   -0.36737E-02   768   0.778E-02-0.733E-05
CGA:   7    -0.665005480645E+03   -0.15172E-02   -0.15172E-02   768   0.324E-02-0.156E-05
CGA:   8    -0.665006200005E+03   -0.71936E-03   -0.71943E-03   768   0.161E-02-0.258E-05
CGA:   9    -0.665006558842E+03   -0.35884E-03   -0.35884E-03   768   0.662E-03-0.594E-06
CGA:  10    -0.665006714707E+03   -0.15586E-03   -0.15585E-03   768   0.248E-03 0.418E-06
CGA:  11    -0.665006769488E+03   -0.54781E-04   -0.54779E-04   768   0.950E-04 0.148E-06
  66 F= -.67156491E+03 E0= -.67154943E+03  d E =-.600468E-02  mag=     2.6075
       N       E                     dE             d eps       ncg     rms          ort
SDA:   1    -0.664888231096E+03    0.11848E+00    0.00000E+00   768   0.308E+00 0.000E+00
CGA:   2    -0.664982230683E+03   -0.94000E-01   -0.94004E-01   768   0.105E+00-0.206E-05
CGA:   3    -0.665002090401E+03   -0.19860E-01   -0.19861E-01   768   0.402E-01 0.221E-04
CGA:   4    -0.665007891812E+03   -0.58014E-02   -0.58014E-02   768   0.105E-01 0.203E-04
CGA:   5    -0.665009646404E+03   -0.17546E-02   -0.17544E-02   768   0.257E-02-0.676E-05
CGA:   6    -0.665010160455E+03   -0.51405E-03   -0.51405E-03   768   0.967E-03-0.655E-06
CGA:   7    -0.665010331470E+03   -0.17101E-03   -0.17105E-03   768   0.363E-03 0.157E-05
CGA:   8    -0.665010416538E+03   -0.85068E-04   -0.85046E-04   768   0.184E-03 0.732E-06
  67 F= -.67156840E+03 E0= -.67155290E+03  d E =-.349000E-02  mag=     2.6073
       N       E                     dE             d eps       ncg     rms          ort
SDA:   1    -0.664461899220E+03    0.54843E+00    0.00000E+00   768   0.139E+01 0.000E+00
CGA:   2    -0.664885977346E+03   -0.42408E+00   -0.42414E+00   768   0.476E+00-0.196E-03
CGA:   3    -0.664975898242E+03   -0.89921E-01   -0.89933E-01   768   0.180E+00 0.244E-03
CGA:   4    -0.665002402640E+03   -0.26504E-01   -0.26502E-01   768   0.462E-01 0.511E-04
CGA:   5    -0.665010328785E+03   -0.79261E-02   -0.79265E-02   768   0.110E-01-0.403E-05
CGA:   6    -0.665012706779E+03   -0.23780E-02   -0.23780E-02   768   0.388E-02 0.207E-05
CGA:   7    -0.665013459851E+03   -0.75307E-03   -0.75310E-03   768   0.162E-02 0.264E-05
CGA:   8    -0.665013867491E+03   -0.40764E-03   -0.40749E-03   768   0.718E-03 0.300E-05
CGA:   9    -0.665014045287E+03   -0.17780E-03   -0.17776E-03   768   0.439E-03 0.872E-06
CGA:  10    -0.665014127871E+03   -0.82584E-04   -0.82574E-04   768   0.176E-03-0.447E-06
  68 F= -.67157176E+03 E0= -.67155622E+03  d E =-.685665E-02  mag=     2.6077
       N       E                     dE             d eps       ncg     rms          ort
SDA:   1    -0.664803392146E+03    0.21065E+00    0.00000E+00   768   0.537E+00 0.000E+00
CGA:   2    -0.664968158597E+03   -0.16477E+00   -0.16484E+00   768   0.184E+00-0.585E-03
CGA:   3    -0.665004187715E+03   -0.36029E-01   -0.36034E-01   768   0.642E-01 0.139E-03
CGA:   4    -0.665013610519E+03   -0.94228E-02   -0.94190E-02   768   0.190E-01 0.240E-04
CGA:   5    -0.665016543348E+03   -0.29328E-02   -0.29330E-02   768   0.437E-02-0.253E-05
CGA:   6    -0.665017512141E+03   -0.96879E-03   -0.96877E-03   768   0.149E-02 0.137E-05
CGA:   7    -0.665017796785E+03   -0.28464E-03   -0.28469E-03   768   0.666E-03 0.340E-05
CGA:   8    -0.665017944517E+03   -0.14773E-03   -0.14771E-03   768   0.307E-03 0.154E-05
CGA:   9    -0.665018013882E+03   -0.69365E-04   -0.69351E-04   768   0.167E-03 0.765E-06
  69 F= -.67157556E+03 E0= -.67156005E+03  d E =-.379804E-02  mag=     2.6052
       N       E                     dE             d eps       ncg     rms          ort
SDA:   1    -0.664972297415E+03    0.45647E-01    0.00000E+00   768   0.116E+00 0.000E+00
CGA:   2    -0.665007692376E+03   -0.35395E-01   -0.35402E-01   768   0.404E-01-0.507E-04
CGA:   3    -0.665015331125E+03   -0.76387E-02   -0.76395E-02   768   0.155E-01 0.117E-04
CGA:   4    -0.665017501634E+03   -0.21705E-02   -0.21706E-02   768   0.421E-02 0.117E-04
CGA:   5    -0.665018168455E+03   -0.66682E-03   -0.66675E-03   768   0.112E-02-0.166E-05
CGA:   6    -0.665018385098E+03   -0.21664E-03   -0.21664E-03   768   0.443E-03-0.264E-06
CGA:   7    -0.665018463629E+03   -0.78531E-04   -0.78580E-04   768   0.172E-03 0.180E-05
  70 F= -.67157597E+03 E0= -.67156047E+03  d E =-.420529E-02  mag=     2.6038
       N       E                     dE             d eps       ncg     rms          ort
SDA:   1    -0.664921819957E+03    0.96565E-01    0.00000E+00   768   0.248E+00 0.000E+00
CGA:   2    -0.664998136507E+03   -0.76317E-01   -0.76309E-01   768   0.856E-01 0.869E-04
CGA:   3    -0.665014490129E+03   -0.16354E-01   -0.16353E-01   768   0.307E-01-0.109E-04
CGA:   4    -0.665019016402E+03   -0.45263E-02   -0.45263E-02   768   0.898E-02 0.138E-04
CGA:   5    -0.665020421074E+03   -0.14047E-02   -0.14046E-02   768   0.216E-02-0.519E-05
CGA:   6    -0.665020868876E+03   -0.44780E-03   -0.44781E-03   768   0.877E-03-0.105E-05
CGA:   7    -0.665021017598E+03   -0.14872E-03   -0.14876E-03   768   0.345E-03 0.113E-05
CGA:   8    -0.665021098945E+03   -0.81347E-04   -0.81329E-04   768   0.180E-03 0.530E-06
  71 F= -.67157853E+03 E0= -.67156301E+03  d E =-.255893E-02  mag=     2.6046
       N       E                     dE             d eps       ncg     rms          ort
SDA:   1    -0.664834986601E+03    0.18603E+00    0.00000E+00   768   0.469E+00 0.000E+00
CGA:   2    -0.664979656006E+03   -0.14467E+00   -0.14465E+00   768   0.155E+00 0.218E-03
CGA:   3    -0.665011038911E+03   -0.31383E-01   -0.31383E-01   768   0.506E-01-0.229E-04
CGA:   4    -0.665018909998E+03   -0.78711E-02   -0.78702E-02   768   0.149E-01 0.951E-05
CGA:   5    -0.665021178296E+03   -0.22683E-02   -0.22683E-02   768   0.383E-02-0.608E-05
CGA:   6    -0.665021990026E+03   -0.81173E-03   -0.81174E-03   768   0.135E-02-0.103E-05
CGA:   7    -0.665022236918E+03   -0.24689E-03   -0.24692E-03   768   0.605E-03 0.164E-05
CGA:   8    -0.665022375177E+03   -0.13826E-03   -0.13824E-03   768   0.288E-03 0.966E-06
CGA:   9    -0.665022436605E+03   -0.61428E-04   -0.61420E-04   768   0.163E-03 0.858E-06
  72 F= -.67157975E+03 E0= -.67156421E+03  d E =-.378658E-02  mag=     2.6057
       N       E                     dE             d eps       ncg     rms          ort
SDA:   1    -0.664997603484E+03    0.24772E-01    0.00000E+00   768   0.663E-01 0.000E+00
CGA:   2    -0.665016920913E+03   -0.19317E-01   -0.19316E-01   768   0.286E-01 0.121E-04
CGA:   3    -0.665021645522E+03   -0.47246E-02   -0.47244E-02   768   0.106E-01 0.341E-06
CGA:   4    -0.665023256608E+03   -0.16111E-02   -0.16110E-02   768   0.294E-02-0.224E-05
CGA:   5    -0.665023727164E+03   -0.47056E-03   -0.47057E-03   768   0.828E-03 0.578E-06
CGA:   6    -0.665023891802E+03   -0.16464E-03   -0.16464E-03   768   0.318E-03 0.670E-06
CGA:   7    -0.665023959092E+03   -0.67291E-04   -0.67287E-04   768   0.122E-03 0.388E-06
  73 F= -.67158134E+03 E0= -.67156578E+03  d E =-.158707E-02  mag=     2.6056
       N       E                     dE             d eps       ncg     rms          ort
SDA:   1    -0.664947285673E+03    0.76606E-01    0.00000E+00   768   0.195E+00 0.000E+00
CGA:   2    -0.665003873692E+03   -0.56588E-01   -0.56581E-01   768   0.853E-01 0.630E-04
CGA:   3    -0.665017757168E+03   -0.13883E-01   -0.13881E-01   768   0.327E-01-0.107E-04
CGA:   4    -0.665022478945E+03   -0.47218E-02   -0.47222E-02   768   0.934E-02-0.645E-05
CGA:   5    -0.665024049765E+03   -0.15708E-02   -0.15708E-02   768   0.241E-02-0.214E-06
CGA:   6    -0.665024529482E+03   -0.47972E-03   -0.47972E-03   768   0.991E-03 0.142E-05
CGA:   7    -0.665024729430E+03   -0.19995E-03   -0.19995E-03   768   0.382E-03 0.613E-06
CGA:   8    -0.665024824189E+03   -0.94759E-04   -0.94727E-04   768   0.190E-03 0.729E-06
  74 F= -.67158231E+03 E0= -.67156672E+03  d E =-.255799E-02  mag=     2.6049
       N       E                     dE             d eps       ncg     rms          ort
SDA:   1    -0.664982841320E+03    0.41888E-01    0.00000E+00   768   0.110E+00 0.000E+00
CGA:   2    -0.665014368731E+03   -0.31527E-01   -0.31528E-01   768   0.482E-01-0.117E-04
CGA:   3    -0.665022184484E+03   -0.78158E-02   -0.78133E-02   768   0.179E-01-0.109E-04
CGA:   4    -0.665024920074E+03   -0.27356E-02   -0.27355E-02   768   0.439E-02-0.115E-04
CGA:   5    -0.665025702769E+03   -0.78269E-03   -0.78275E-03   768   0.122E-02 0.305E-05
CGA:   6    -0.665025938178E+03   -0.23541E-03   -0.23544E-03   768   0.501E-03 0.299E-05
CGA:   7    -0.665026035794E+03   -0.97616E-04   -0.97624E-04   768   0.190E-03 0.972E-06
  75 F= -.67158367E+03 E0= -.67156811E+03  d E =-.135770E-02  mag=     2.6024
       N       E                     dE             d eps       ncg     rms          ort
SDA:   1    -0.665006568277E+03    0.19370E-01    0.00000E+00   768   0.504E-01 0.000E+00
CGA:   2    -0.665020644232E+03   -0.14076E-01   -0.14076E-01   768   0.243E-01-0.171E-05
CGA:   3    -0.665024285315E+03   -0.36411E-02   -0.36403E-02   768   0.872E-02 0.346E-05
CGA:   4    -0.665025643317E+03   -0.13580E-02   -0.13577E-02   768   0.228E-02-0.914E-05
CGA:   5    -0.665026048970E+03   -0.40565E-03   -0.40569E-03   768   0.660E-03 0.141E-05
CGA:   6    -0.665026166983E+03   -0.11801E-03   -0.11807E-03   768   0.287E-03 0.273E-05
CGA:   7    -0.665026222905E+03   -0.55922E-04   -0.55926E-04   768   0.109E-03 0.727E-06
  76 F= -.67158395E+03 E0= -.67156842E+03  d E =-.164219E-02  mag=     2.6003
       N       E                     dE             d eps       ncg     rms          ort
SDA:   1    -0.665002360719E+03    0.23806E-01    0.00000E+00   768   0.638E-01 0.000E+00
CGA:   2    -0.665021047814E+03   -0.18687E-01   -0.18684E-01   768   0.259E-01 0.234E-04
CGA:   3    -0.665025313851E+03   -0.42660E-02   -0.42654E-02   768   0.102E-01-0.101E-05
CGA:   4    -0.665026766119E+03   -0.14523E-02   -0.14520E-02   768   0.261E-02-0.911E-05
CGA:   5    -0.665027215483E+03   -0.44936E-03   -0.44939E-03   768   0.678E-03 0.863E-06
CGA:   6    -0.665027341675E+03   -0.12619E-03   -0.12621E-03   768   0.294E-03 0.153E-05
CGA:   7    -0.665027393962E+03   -0.52287E-04   -0.52280E-04   768   0.104E-03-0.318E-06
  77 F= -.67158519E+03 E0= -.67156967E+03  d E =-.123699E-02  mag=     2.5993
       N       E                     dE             d eps       ncg     rms          ort
SDA:   1    -0.664884976930E+03    0.14236E+00    0.00000E+00   768   0.365E+00 0.000E+00
CGA:   2    -0.664992644842E+03   -0.10767E+00   -0.10763E+00   768   0.141E+00 0.339E-03
CGA:   3    -0.665017321055E+03   -0.24676E-01   -0.24670E-01   768   0.538E-01-0.784E-04
CGA:   4    -0.665025038602E+03   -0.77175E-02   -0.77190E-02   768   0.141E-01-0.236E-04
CGA:   5    -0.665027389912E+03   -0.23513E-02   -0.23513E-02   768   0.358E-02 0.147E-05
CGA:   6    -0.665028079807E+03   -0.68989E-03   -0.68990E-03   768   0.147E-02 0.228E-05
CGA:   7    -0.665028341602E+03   -0.26179E-03   -0.26179E-03   768   0.535E-03-0.502E-06
CGA:   8    -0.665028461323E+03   -0.11972E-03   -0.11971E-03   768   0.277E-03 0.421E-06
CGA:   9    -0.665028522008E+03   -0.60686E-04   -0.60687E-04   768   0.122E-03-0.106E-06
  78 F= -.67158647E+03 E0= -.67157099E+03  d E =-.251924E-02  mag=     2.5974
