  71  71   0   0
  0.4011563E+02  0.1487831E-08  0.1477209E-08  0.1500000E-08  0.3000000E-15
  1.000000000000000E-004
  CAR 
 unknown system                          
      5.25954874    -48.64624851  301     -2.06964140      1.00000000
    -48.646  0.0000E+00  0.0000E+00  0.0000E+00  0.0000E+00
    -48.467  0.0000E+00  0.0000E+00  0.0000E+00  0.0000E+00
    -48.287  0.0000E+00  0.0000E+00  0.0000E+00  0.0000E+00
    -48.107  0.0000E+00  0.0000E+00  0.0000E+00  0.0000E+00
    -47.928  0.0000E+00  0.0000E+00  0.0000E+00  0.0000E+00
    -47.748  0.0000E+00  0.0000E+00  0.0000E+00  0.0000E+00
    -47.568  0.0000E+00  0.0000E+00  0.0000E+00  0.0000E+00
    -47.388  0.0000E+00  0.0000E+00  0.0000E+00  0.0000E+00
    -47.209  0.0000E+00  0.0000E+00  0.0000E+00  0.0000E+00
    -47.029  0.0000E+00  0.0000E+00  0.0000E+00  0.0000E+00
    -46.849  0.0000E+00  0.0000E+00  0.0000E+00  0.0000E+00
    -46.670  0.1456E-12  0.0000E+00  0.2616E-13  0.0000E+00
    -46.490  0.2231E-06  0.0000E+00  0.4009E-07  0.0000E+00
    -46.310  0.7362E-03  0.0000E+00  0.1323E-03  0.0000E+00
    -46.131  0.1074E-01  0.0000E+00  0.2062E-02  0.0000E+00
    -45.951  0.9331E-02  0.0000E+00  0.3739E-02  0.0000E+00
    -45.771  0.1925E-01  0.0000E+00  0.7199E-02  0.0000E+00
    -45.592  0.1675E-02  0.0000E+00  0.7500E-02  0.0000E+00
    -45.412  0.1143E-05  0.0000E+00  0.7500E-02  0.0000E+00
    -45.232  0.1922E-11  0.0000E+00  0.7500E-02  0.0000E+00
    -45.053  0.0000E+00  0.0000E+00  0.7500E-02  0.0000E+00
    -44.873  0.0000E+00  0.0000E+00  0.7500E-02  0.0000E+00
    -44.693  0.0000E+00  0.0000E+00  0.7500E-02  0.0000E+00
    -44.513  0.0000E+00  0.2920E-14  0.7500E-02  0.5247E-15
    -44.334  0.0000E+00  0.1741E-07  0.7500E-02  0.3129E-08
    -44.154  0.0000E+00  0.2105E-03  0.7500E-02  0.3782E-04
    -43.974  0.0000E+00  0.8805E-02  0.7500E-02  0.1620E-02
    -43.795  0.0000E+00  0.1018E-01  0.7500E-02  0.3448E-02
    -43.615  0.0000E+00  0.1689E-01  0.7500E-02  0.6484E-02
    -43.435  0.0000E+00  0.5622E-02  0.7500E-02  0.7494E-02
    -43.256  0.0000E+00  0.3417E-04  0.7500E-02  0.7500E-02
    -43.076  0.0000E+00  0.5983E-09  0.7500E-02  0.7500E-02
    -42.896  0.0000E+00  0.2008E-16  0.7500E-02  0.7500E-02
    -42.717  0.0000E+00  0.0000E+00  0.7500E-02  0.7500E-02
    -42.537  0.0000E+00  0.0000E+00  0.7500E-02  0.7500E-02
    -42.357  0.0000E+00  0.0000E+00  0.7500E-02  0.7500E-02
    -42.178  0.0000E+00  0.0000E+00  0.7500E-02  0.7500E-02
    -41.998  0.0000E+00  0.0000E+00  0.7500E-02  0.7500E-02
    -41.818  0.0000E+00  0.0000E+00  0.7500E-02  0.7500E-02
    -41.638  0.0000E+00  0.0000E+00  0.7500E-02  0.7500E-02
    -41.459  0.0000E+00  0.0000E+00  0.7500E-02  0.7500E-02
    -41.279  0.0000E+00  0.0000E+00  0.7500E-02  0.7500E-02
    -41.099  0.0000E+00  0.0000E+00  0.7500E-02  0.7500E-02
    -40.920  0.0000E+00  0.0000E+00  0.7500E-02  0.7500E-02
    -40.740  0.0000E+00  0.0000E+00  0.7500E-02  0.7500E-02
    -40.560  0.0000E+00  0.0000E+00  0.7500E-02  0.7500E-02
    -40.381  0.0000E+00  0.0000E+00  0.7500E-02  0.7500E-02
    -40.201  0.0000E+00  0.0000E+00  0.7500E-02  0.7500E-02
    -40.021  0.0000E+00  0.0000E+00  0.7500E-02  0.7500E-02
    -39.842  0.0000E+00  0.0000E+00  0.7500E-02  0.7500E-02
    -39.662  0.0000E+00  0.0000E+00  0.7500E-02  0.7500E-02
    -39.482  0.0000E+00  0.0000E+00  0.7500E-02  0.7500E-02
    -39.303  0.0000E+00  0.0000E+00  0.7500E-02  0.7500E-02
    -39.123  0.0000E+00  0.0000E+00  0.7500E-02  0.7500E-02
    -38.943  0.0000E+00  0.0000E+00  0.7500E-02  0.7500E-02
    -38.764  0.0000E+00  0.0000E+00  0.7500E-02  0.7500E-02
    -38.584  0.0000E+00  0.0000E+00  0.7500E-02  0.7500E-02
    -38.404  0.0000E+00  0.0000E+00  0.7500E-02  0.7500E-02
    -38.224  0.0000E+00  0.0000E+00  0.7500E-02  0.7500E-02
    -38.045  0.0000E+00  0.0000E+00  0.7500E-02  0.7500E-02
    -37.865  0.0000E+00  0.0000E+00  0.7500E-02  0.7500E-02
    -37.685  0.0000E+00  0.0000E+00  0.7500E-02  0.7500E-02
    -37.506  0.0000E+00  0.0000E+00  0.7500E-02  0.7500E-02
    -37.326  0.0000E+00  0.0000E+00  0.7500E-02  0.7500E-02
    -37.146  0.0000E+00  0.0000E+00  0.7500E-02  0.7500E-02
    -36.967  0.0000E+00  0.0000E+00  0.7500E-02  0.7500E-02
    -36.787  0.0000E+00  0.0000E+00  0.7500E-02  0.7500E-02
    -36.607  0.0000E+00  0.0000E+00  0.7500E-02  0.7500E-02
    -36.428  0.0000E+00  0.0000E+00  0.7500E-02  0.7500E-02
    -36.248  0.0000E+00  0.0000E+00  0.7500E-02  0.7500E-02
    -36.068  0.0000E+00  0.0000E+00  0.7500E-02  0.7500E-02
    -35.889  0.0000E+00  0.0000E+00  0.7500E-02  0.7500E-02
    -35.709  0.0000E+00  0.0000E+00  0.7500E-02  0.7500E-02
    -35.529  0.0000E+00  0.0000E+00  0.7500E-02  0.7500E-02
    -35.349  0.0000E+00  0.0000E+00  0.7500E-02  0.7500E-02
    -35.170  0.0000E+00  0.0000E+00  0.7500E-02  0.7500E-02
    -34.990  0.0000E+00  0.0000E+00  0.7500E-02  0.7500E-02
    -34.810  0.0000E+00  0.0000E+00  0.7500E-02  0.7500E-02
    -34.631  0.0000E+00  0.0000E+00  0.7500E-02  0.7500E-02
    -34.451  0.0000E+00  0.0000E+00  0.7500E-02  0.7500E-02
    -34.271  0.0000E+00  0.0000E+00  0.7500E-02  0.7500E-02
    -34.092  0.0000E+00  0.0000E+00  0.7500E-02  0.7500E-02
    -33.912  0.0000E+00  0.0000E+00  0.7500E-02  0.7500E-02
    -33.732  0.0000E+00  0.0000E+00  0.7500E-02  0.7500E-02
    -33.553  0.0000E+00  0.0000E+00  0.7500E-02  0.7500E-02
    -33.373  0.0000E+00  0.0000E+00  0.7500E-02  0.7500E-02
    -33.193  0.0000E+00  0.0000E+00  0.7500E-02  0.7500E-02
    -33.014  0.0000E+00  0.0000E+00  0.7500E-02  0.7500E-02
    -32.834  0.0000E+00  0.0000E+00  0.7500E-02  0.7500E-02
    -32.654  0.0000E+00  0.0000E+00  0.7500E-02  0.7500E-02
    -32.475  0.0000E+00  0.0000E+00  0.7500E-02  0.7500E-02
    -32.295  0.0000E+00  0.0000E+00  0.7500E-02  0.7500E-02
    -32.115  0.0000E+00  0.0000E+00  0.7500E-02  0.7500E-02
    -31.935  0.0000E+00  0.0000E+00  0.7500E-02  0.7500E-02
    -31.756  0.0000E+00  0.0000E+00  0.7500E-02  0.7500E-02
    -31.576  0.0000E+00  0.0000E+00  0.7500E-02  0.7500E-02
    -31.396  0.0000E+00  0.0000E+00  0.7500E-02  0.7500E-02
    -31.217  0.0000E+00  0.0000E+00  0.7500E-02  0.7500E-02
    -31.037  0.0000E+00  0.0000E+00  0.7500E-02  0.7500E-02
    -30.857  0.0000E+00  0.0000E+00  0.7500E-02  0.7500E-02
    -30.678  0.0000E+00  0.0000E+00  0.7500E-02  0.7500E-02
    -30.498  0.0000E+00  0.0000E+00  0.7500E-02  0.7500E-02
    -30.318  0.0000E+00  0.0000E+00  0.7500E-02  0.7500E-02
    -30.139  0.0000E+00  0.0000E+00  0.7500E-02  0.7500E-02
    -29.959  0.0000E+00  0.0000E+00  0.7500E-02  0.7500E-02
    -29.779  0.0000E+00  0.0000E+00  0.7500E-02  0.7500E-02
    -29.600  0.0000E+00  0.0000E+00  0.7500E-02  0.7500E-02
    -29.420  0.0000E+00  0.0000E+00  0.7500E-02  0.7500E-02
    -29.240  0.0000E+00  0.0000E+00  0.7500E-02  0.7500E-02
    -29.060  0.0000E+00  0.0000E+00  0.7500E-02  0.7500E-02
    -28.881  0.0000E+00  0.0000E+00  0.7500E-02  0.7500E-02
    -28.701  0.0000E+00  0.0000E+00  0.7500E-02  0.7500E-02
    -28.521  0.0000E+00  0.0000E+00  0.7500E-02  0.7500E-02
    -28.342  0.0000E+00  0.0000E+00  0.7500E-02  0.7500E-02
    -28.162  0.0000E+00  0.0000E+00  0.7500E-02  0.7500E-02
    -27.982  0.0000E+00  0.0000E+00  0.7500E-02  0.7500E-02
    -27.803  0.0000E+00  0.0000E+00  0.7500E-02  0.7500E-02
    -27.623  0.0000E+00  0.0000E+00  0.7500E-02  0.7500E-02
    -27.443  0.0000E+00  0.0000E+00  0.7500E-02  0.7500E-02
    -27.264  0.0000E+00  0.0000E+00  0.7500E-02  0.7500E-02
    -27.084  0.0000E+00  0.0000E+00  0.7500E-02  0.7500E-02
    -26.904  0.0000E+00  0.0000E+00  0.7500E-02  0.7500E-02
    -26.725  0.0000E+00  0.0000E+00  0.7500E-02  0.7500E-02
    -26.545  0.0000E+00  0.0000E+00  0.7500E-02  0.7500E-02
    -26.365  0.0000E+00  0.0000E+00  0.7500E-02  0.7500E-02
    -26.185  0.0000E+00  0.0000E+00  0.7500E-02  0.7500E-02
    -26.006  0.0000E+00  0.0000E+00  0.7500E-02  0.7500E-02
    -25.826  0.0000E+00  0.0000E+00  0.7500E-02  0.7500E-02
    -25.646  0.0000E+00  0.0000E+00  0.7500E-02  0.7500E-02
    -25.467  0.0000E+00  0.0000E+00  0.7500E-02  0.7500E-02
    -25.287  0.0000E+00  0.0000E+00  0.7500E-02  0.7500E-02
    -25.107  0.0000E+00  0.0000E+00  0.7500E-02  0.7500E-02
    -24.928  0.0000E+00  0.0000E+00  0.7500E-02  0.7500E-02
    -24.748  0.6569E-14  0.8209E-14  0.7500E-02  0.7500E-02
    -24.568  0.2978E-07  0.3449E-07  0.7500E-02  0.7500E-02
    -24.389  0.2767E-03  0.2979E-03  0.7550E-02  0.7554E-02
    -24.209  0.9270E-02  0.9399E-02  0.9215E-02  0.9242E-02
    -24.029  0.4349E-02  0.4200E-02  0.9997E-02  0.9997E-02
    -23.850  0.1723E-04  0.1556E-04  0.1000E-01  0.1000E-01
    -23.670  0.1800E-09  0.1508E-09  0.1000E-01  0.1000E-01
    -23.490  0.3089E-17  0.3089E-17  0.1000E-01  0.1000E-01
    -23.311  0.0000E+00  0.0000E+00  0.1000E-01  0.1000E-01
    -23.131  0.0000E+00  0.0000E+00  0.1000E-01  0.1000E-01
    -22.951  0.0000E+00  0.0000E+00  0.1000E-01  0.1000E-01
    -22.771  0.0000E+00  0.0000E+00  0.1000E-01  0.1000E-01
    -22.592  0.0000E+00  0.0000E+00  0.1000E-01  0.1000E-01
    -22.412  0.0000E+00  0.0000E+00  0.1000E-01  0.1000E-01
    -22.232  0.0000E+00  0.0000E+00  0.1000E-01  0.1000E-01
    -22.053  0.9654E-18  0.1545E-17  0.1000E-01  0.1000E-01
    -21.873  0.5607E-10  0.7138E-10  0.1000E-01  0.1000E-01
    -21.693  0.6176E-05  0.7169E-05  0.1000E-01  0.1000E-01
    -21.514  0.2356E-02  0.2514E-02  0.1042E-01  0.1045E-01
    -21.334  0.1442E-01  0.1459E-01  0.1301E-01  0.1308E-01
    -21.154  0.1843E-01  0.1857E-01  0.1633E-01  0.1641E-01
    -20.975  0.9238E-02  0.9022E-02  0.1799E-01  0.1803E-01
    -20.795  0.1163E-01  0.1170E-01  0.2008E-01  0.2014E-01
    -20.615  0.1522E-01  0.1540E-01  0.2281E-01  0.2290E-01
    -20.436  0.1475E-01  0.1450E-01  0.2546E-01  0.2551E-01
    -20.256  0.9456E-02  0.9509E-02  0.2716E-01  0.2722E-01
    -20.076  0.8910E-02  0.9084E-02  0.2876E-01  0.2885E-01
    -19.896  0.1752E-01  0.1793E-01  0.3191E-01  0.3207E-01
    -19.717  0.1877E-01  0.1839E-01  0.3528E-01  0.3538E-01
    -19.537  0.1097E-01  0.1093E-01  0.3725E-01  0.3734E-01
    -19.357  0.1093E-01  0.1095E-01  0.3922E-01  0.3931E-01
    -19.178  0.1386E-01  0.1416E-01  0.4171E-01  0.4185E-01
    -18.998  0.1818E-01  0.1799E-01  0.4498E-01  0.4508E-01
    -18.818  0.1121E-01  0.1125E-01  0.4699E-01  0.4711E-01
    -18.639  0.1546E-01  0.1532E-01  0.4977E-01  0.4986E-01
    -18.459  0.1314E-01  0.1331E-01  0.5213E-01  0.5225E-01
    -18.279  0.1697E-01  0.1720E-01  0.5518E-01  0.5534E-01
    -18.100  0.1257E-01  0.1236E-01  0.5744E-01  0.5756E-01
    -17.920  0.1236E-01  0.1208E-01  0.5966E-01  0.5973E-01
    -17.740  0.1103E-01  0.1106E-01  0.6164E-01  0.6172E-01
    -17.561  0.1887E-01  0.1909E-01  0.6503E-01  0.6515E-01
    -17.381  0.1453E-01  0.1466E-01  0.6764E-01  0.6778E-01
    -17.201  0.1609E-01  0.1657E-01  0.7053E-01  0.7076E-01
    -17.022  0.1749E-01  0.1680E-01  0.7368E-01  0.7378E-01
    -16.842  0.1432E-01  0.1450E-01  0.7625E-01  0.7639E-01
    -16.662  0.1799E-01  0.1786E-01  0.7948E-01  0.7960E-01
    -16.482  0.1269E-01  0.1270E-01  0.8176E-01  0.8188E-01
    -16.303  0.1416E-01  0.1466E-01  0.8431E-01  0.8451E-01
    -16.123  0.1422E-01  0.1352E-01  0.8686E-01  0.8694E-01
    -15.943  0.1188E-01  0.1246E-01  0.8900E-01  0.8918E-01
    -15.764  0.1435E-01  0.1460E-01  0.9157E-01  0.9181E-01
    -15.584  0.1124E-01  0.1055E-01  0.9359E-01  0.9370E-01
    -15.404  0.8000E-02  0.8028E-02  0.9503E-01  0.9514E-01
    -15.225  0.1094E-01  0.1074E-01  0.9700E-01  0.9707E-01
    -15.045  0.1473E-01  0.1471E-01  0.9964E-01  0.9972E-01
    -14.865  0.1461E-01  0.1452E-01  0.1023E+00  0.1023E+00
    -14.686  0.1285E-01  0.1401E-01  0.1046E+00  0.1048E+00
    -14.506  0.2429E-01  0.2358E-01  0.1089E+00  0.1091E+00
    -14.326  0.1054E-01  0.1037E-01  0.1108E+00  0.1109E+00
    -14.147  0.1634E-01  0.1662E-01  0.1138E+00  0.1139E+00
    -13.967  0.1350E-01  0.1332E-01  0.1162E+00  0.1163E+00
    -13.787  0.2166E-01  0.2213E-01  0.1201E+00  0.1203E+00
    -13.607  0.9815E-02  0.8925E-02  0.1219E+00  0.1219E+00
    -13.428  0.1557E-01  0.1639E-01  0.1247E+00  0.1248E+00
    -13.248  0.1299E-01  0.1259E-01  0.1270E+00  0.1271E+00
    -13.068  0.1300E-01  0.1299E-01  0.1293E+00  0.1294E+00
    -12.889  0.1519E-01  0.1507E-01  0.1321E+00  0.1322E+00
    -12.709  0.1266E-01  0.1299E-01  0.1343E+00  0.1345E+00
    -12.529  0.2476E-01  0.2478E-01  0.1388E+00  0.1389E+00
    -12.350  0.1027E-01  0.9392E-02  0.1406E+00  0.1406E+00
    -12.170  0.5542E-02  0.5815E-02  0.1416E+00  0.1417E+00
    -11.990  0.1392E-01  0.1430E-01  0.1441E+00  0.1442E+00
    -11.811  0.1654E-01  0.1666E-01  0.1471E+00  0.1472E+00
    -11.631  0.2846E-01  0.2908E-01  0.1522E+00  0.1525E+00
    -11.451  0.2308E-01  0.2211E-01  0.1563E+00  0.1564E+00
    -11.272  0.4739E-02  0.4497E-02  0.1572E+00  0.1572E+00
    -11.092  0.1299E-01  0.1341E-01  0.1595E+00  0.1597E+00
    -10.912  0.1815E-01  0.1833E-01  0.1628E+00  0.1629E+00
    -10.733  0.2195E-01  0.2178E-01  0.1667E+00  0.1669E+00
    -10.553  0.2088E-01  0.2119E-01  0.1705E+00  0.1707E+00
    -10.373  0.2607E-01  0.2558E-01  0.1752E+00  0.1753E+00
    -10.193  0.1860E-01  0.1854E-01  0.1785E+00  0.1786E+00
    -10.014  0.2274E-01  0.2318E-01  0.1826E+00  0.1828E+00
     -9.834  0.2262E-01  0.2232E-01  0.1867E+00  0.1868E+00
     -9.654  0.2052E-01  0.2087E-01  0.1904E+00  0.1905E+00
     -9.475  0.3696E-01  0.3703E-01  0.1970E+00  0.1972E+00
     -9.295  0.3087E-01  0.3054E-01  0.2025E+00  0.2027E+00
     -9.115  0.3040E-01  0.3055E-01  0.2080E+00  0.2082E+00
     -8.936  0.2397E-01  0.2371E-01  0.2123E+00  0.2124E+00
     -8.756  0.3475E-01  0.3553E-01  0.2186E+00  0.2188E+00
     -8.576  0.4878E-01  0.4909E-01  0.2273E+00  0.2276E+00
     -8.397  0.5687E-01  0.5642E-01  0.2375E+00  0.2378E+00
     -8.217  0.3035E-01  0.2983E-01  0.2430E+00  0.2431E+00
     -8.037  0.2499E-01  0.2561E-01  0.2475E+00  0.2477E+00
     -7.858  0.3477E-01  0.3429E-01  0.2537E+00  0.2539E+00
     -7.678  0.2877E-01  0.2873E-01  0.2589E+00  0.2590E+00
     -7.498  0.3282E-01  0.3305E-01  0.2648E+00  0.2650E+00
     -7.318  0.3334E-01  0.3306E-01  0.2708E+00  0.2709E+00
     -7.139  0.3200E-01  0.3138E-01  0.2765E+00  0.2766E+00
     -6.959  0.3713E-01  0.3757E-01  0.2832E+00  0.2833E+00
     -6.779  0.1998E-01  0.2015E-01  0.2868E+00  0.2869E+00
     -6.600  0.1850E-01  0.1800E-01  0.2901E+00  0.2902E+00
     -6.420  0.2169E-01  0.2025E-01  0.2940E+00  0.2938E+00
     -6.240  0.3658E-01  0.3754E-01  0.3006E+00  0.3005E+00
     -6.061  0.2840E-01  0.2915E-01  0.3057E+00  0.3058E+00
     -5.881  0.2815E-01  0.2766E-01  0.3108E+00  0.3108E+00
     -5.701  0.2142E-01  0.1996E-01  0.3146E+00  0.3143E+00
     -5.522  0.2139E-01  0.2211E-01  0.3185E+00  0.3183E+00
     -5.342  0.1493E-01  0.1429E-01  0.3211E+00  0.3209E+00
     -5.162  0.2040E-01  0.1817E-01  0.3248E+00  0.3242E+00
     -4.983  0.3040E-01  0.2403E-01  0.3303E+00  0.3285E+00
     -4.803  0.2704E-01  0.2933E-01  0.3351E+00  0.3337E+00
     -4.623  0.3291E-01  0.3678E-01  0.3410E+00  0.3403E+00
     -4.443  0.1837E-01  0.2100E-01  0.3443E+00  0.3441E+00
     -4.264  0.4195E-02  0.2810E-02  0.3451E+00  0.3446E+00
     -4.084  0.1720E-01  0.1496E-01  0.3482E+00  0.3473E+00
     -3.904  0.2541E-01  0.1418E-01  0.3527E+00  0.3499E+00
     -3.725  0.1321E-01  0.1464E-01  0.3551E+00  0.3525E+00
     -3.545  0.9801E-02  0.1842E-01  0.3569E+00  0.3558E+00
     -3.365  0.1307E-01  0.1276E-01  0.3592E+00  0.3581E+00
     -3.186  0.1635E-01  0.8238E-02  0.3622E+00  0.3596E+00
     -3.006  0.8722E-02  0.9726E-02  0.3637E+00  0.3613E+00
     -2.826  0.1061E-01  0.3049E-02  0.3656E+00  0.3619E+00
     -2.647  0.5691E-02  0.2091E-04  0.3667E+00  0.3619E+00
     -2.467  0.1169E-02  0.1333E-06  0.3669E+00  0.3619E+00
     -2.287  0.1039E-02  0.3392E-03  0.3671E+00  0.3619E+00
     -2.108  0.6552E-02  0.8596E-02  0.3682E+00  0.3635E+00
     -1.928  0.2797E-02  0.1115E-01  0.3687E+00  0.3655E+00
     -1.748  0.4002E-02  0.7800E-03  0.3695E+00  0.3656E+00
     -1.569  0.1996E-01  0.4886E-03  0.3730E+00  0.3657E+00
     -1.389  0.1789E-01  0.9190E-02  0.3763E+00  0.3674E+00
     -1.209  0.6796E-02  0.4250E-02  0.3775E+00  0.3681E+00
     -1.029  0.2929E-02  0.4326E-02  0.3780E+00  0.3689E+00
     -0.850  0.1718E-01  0.2897E-01  0.3811E+00  0.3741E+00
     -0.670  0.1571E-01  0.2692E-01  0.3839E+00  0.3789E+00
     -0.490  0.1229E-01  0.2338E-01  0.3861E+00  0.3831E+00
     -0.311  0.1655E-01  0.2372E-01  0.3891E+00  0.3874E+00
     -0.131  0.1644E-01  0.1801E-01  0.3921E+00  0.3906E+00
      0.049  0.1185E-01  0.1368E-01  0.3942E+00  0.3931E+00
      0.228  0.2069E-01  0.1787E-01  0.3979E+00  0.3963E+00
      0.408  0.1800E-01  0.2759E-01  0.4011E+00  0.4013E+00
      0.588  0.1655E-01  0.1640E-01  0.4041E+00  0.4042E+00
      0.767  0.7888E-02  0.4775E-02  0.4055E+00  0.4051E+00
      0.947  0.2136E-01  0.1111E-01  0.4094E+00  0.4071E+00
      1.127  0.1254E-01  0.2109E-01  0.4116E+00  0.4109E+00
      1.306  0.1629E-01  0.1597E-01  0.4145E+00  0.4137E+00
      1.486  0.1847E-01  0.1919E-01  0.4179E+00  0.4172E+00
      1.666  0.2343E-01  0.2168E-01  0.4221E+00  0.4211E+00
      1.846  0.2402E-01  0.2538E-01  0.4264E+00  0.4256E+00
      2.025  0.3427E-01  0.2946E-01  0.4325E+00  0.4309E+00
      2.205  0.2889E-01  0.2752E-01  0.4377E+00  0.4359E+00
      2.385  0.2147E-01  0.1925E-01  0.4416E+00  0.4393E+00
      2.564  0.3575E-01  0.3625E-01  0.4480E+00  0.4459E+00
      2.744  0.5080E-01  0.5696E-01  0.4571E+00  0.4561E+00
      2.924  0.1546E-01  0.2112E-01  0.4599E+00  0.4599E+00
      3.103  0.4164E-03  0.6680E-03  0.4600E+00  0.4600E+00
      3.283  0.7977E-07  0.1605E-06  0.4600E+00  0.4600E+00
      3.463  0.3819E-13  0.9060E-13  0.4600E+00  0.4600E+00
      3.642  0.0000E+00  0.0000E+00  0.4600E+00  0.4600E+00
      3.822  0.0000E+00  0.0000E+00  0.4600E+00  0.4600E+00
      4.002  0.0000E+00  0.0000E+00  0.4600E+00  0.4600E+00
      4.181  0.0000E+00  0.0000E+00  0.4600E+00  0.4600E+00
      4.361  0.0000E+00  0.0000E+00  0.4600E+00  0.4600E+00
      4.541  0.0000E+00  0.0000E+00  0.4600E+00  0.4600E+00
      4.720  0.0000E+00  0.0000E+00  0.4600E+00  0.4600E+00
      4.900  0.0000E+00  0.0000E+00  0.4600E+00  0.4600E+00
      5.080  0.0000E+00  0.0000E+00  0.4600E+00  0.4600E+00
      5.260  0.0000E+00  0.0000E+00  0.4600E+00  0.4600E+00
