       N       E                     dE             d eps       ncg     rms          rms(c)
DAV:   1     0.274370251611E+04    0.27437E+04   -0.11731E+05  3248   0.127E+03
DAV:   2    -0.171252505640E+03   -0.29150E+04   -0.27857E+04  4304   0.296E+02
DAV:   3    -0.684219048054E+03   -0.51297E+03   -0.51004E+03  3560   0.129E+02
DAV:   4    -0.703726831820E+03   -0.19508E+02   -0.19356E+02  3544   0.312E+01
DAV:   5    -0.704356126407E+03   -0.62929E+00   -0.62729E+00  4024   0.481E+00    0.465E+01
RMM:   6    -0.732030575887E+03   -0.27674E+02   -0.52820E+02  4034   0.388E+01    0.840E+01
RMM:   7    -0.662610567129E+03    0.69420E+02   -0.58597E+01  3088   0.138E+01    0.324E+01
RMM:   8    -0.662590675432E+03    0.19892E-01   -0.22409E+01  3126   0.699E+00    0.284E+01
RMM:   9    -0.647236778272E+03    0.15354E+02   -0.19858E+01  2967   0.839E+00    0.119E+01
RMM:  10    -0.647651136814E+03   -0.41436E+00   -0.33573E+00  2991   0.314E+00    0.145E+01
RMM:  11    -0.646551682925E+03    0.10995E+01   -0.40113E-01  3144   0.103E+00    0.777E+00
RMM:  12    -0.646405490515E+03    0.14619E+00   -0.14800E-01  2944   0.889E-01    0.649E+00
RMM:  13    -0.646513064388E+03   -0.10757E+00   -0.28325E-02  2990   0.319E-01    0.728E+00
RMM:  14    -0.646318015380E+03    0.19505E+00   -0.31170E-02  2969   0.387E-01    0.689E+00
RMM:  15    -0.646325174761E+03   -0.71594E-02   -0.74747E-03  3020   0.115E-01    0.532E+00
RMM:  16    -0.646348988335E+03   -0.23814E-01   -0.20178E-02  2945   0.352E-01    0.435E+00
RMM:  17    -0.646353544946E+03   -0.45566E-02   -0.28130E-02  2996   0.256E-01    0.371E+00
RMM:  18    -0.646381594293E+03   -0.28049E-01   -0.80991E-03  3091   0.145E-01    0.438E+00
RMM:  19    -0.646382953682E+03   -0.13594E-02   -0.40741E-03  2993   0.859E-02    0.422E+00
RMM:  20    -0.646375299126E+03    0.76546E-02   -0.57434E-04  2272   0.312E-02    0.420E+00
RMM:  21    -0.646484544940E+03   -0.10925E+00   -0.82164E-02  2956   0.435E-01    0.233E+00
RMM:  22    -0.646479912897E+03    0.46320E-02   -0.30633E-02  3022   0.204E-01    0.176E+00
RMM:  23    -0.646467802396E+03    0.12111E-01   -0.65412E-03  2982   0.138E-01    0.196E+00
RMM:  24    -0.646450100297E+03    0.17702E-01   -0.11903E-02  2979   0.163E-01    0.188E+00
RMM:  25    -0.646444681431E+03    0.54189E-02   -0.28903E-02  2958   0.242E-01    0.210E+00
RMM:  26    -0.646448682911E+03   -0.40015E-02   -0.59421E-03  3234   0.103E-01    0.221E+00
RMM:  27    -0.646456142408E+03   -0.74595E-02   -0.23755E-03  2981   0.855E-02    0.205E+00
RMM:  28    -0.646456858541E+03   -0.71613E-03   -0.62523E-04  2223   0.185E-02    0.207E+00
RMM:  29    -0.646456087821E+03    0.77072E-03   -0.28973E-04  2435   0.273E-02    0.215E+00
RMM:  30    -0.646455239560E+03    0.84826E-03   -0.53224E-04  2761   0.426E-02    0.214E+00
RMM:  31    -0.646439043376E+03    0.16196E-01   -0.56330E-03  2982   0.118E-01    0.233E+00
RMM:  32    -0.646403588924E+03    0.35454E-01   -0.10397E-02  3011   0.148E-01    0.314E+00
RMM:  33    -0.646407169464E+03   -0.35805E-02   -0.97866E-04  3081   0.423E-02    0.307E+00
RMM:  34    -0.646408392629E+03   -0.12232E-02   -0.64851E-05  2091   0.129E-02    0.304E+00
RMM:  35    -0.646417497792E+03   -0.91052E-02   -0.50925E-04  2785   0.338E-02    0.278E+00
RMM:  36    -0.646441682540E+03   -0.24185E-01   -0.75811E-03  2965   0.126E-01    0.201E+00
RMM:  37    -0.646462143467E+03   -0.20461E-01   -0.17838E-02  2993   0.177E-01    0.170E+00
RMM:  38    -0.646467537397E+03   -0.53939E-02   -0.41210E-03  3120   0.826E-02    0.174E+00
RMM:  39    -0.646486317764E+03   -0.18780E-01   -0.84157E-03  3032   0.131E-01    0.219E+00
RMM:  40    -0.646488814795E+03   -0.24970E-02   -0.22475E-03  3115   0.622E-02    0.233E+00
RMM:  41    -0.646489404272E+03   -0.58948E-03   -0.27202E-04  2361   0.297E-02    0.234E+00
RMM:  42    -0.646490892896E+03   -0.14886E-02   -0.81382E-04  2829   0.389E-02    0.253E+00
RMM:  43    -0.646506893421E+03   -0.16001E-01   -0.10182E-02  2998   0.140E-01    0.342E+00
RMM:  44    -0.646509495811E+03   -0.26024E-02   -0.38391E-03  3160   0.791E-02    0.363E+00
RMM:  45    -0.646510371449E+03   -0.87564E-03   -0.10783E-03  2956   0.437E-02    0.367E+00
RMM:  46    -0.646507115237E+03    0.32562E-02   -0.11697E-03  2805   0.467E-02    0.387E+00
RMM:  47    -0.646510070693E+03   -0.29555E-02   -0.16333E-03  2857   0.637E-02    0.341E+00
RMM:  48    -0.646510991866E+03   -0.92117E-03   -0.21194E-04  2062   0.177E-02    0.340E+00
RMM:  49    -0.646494880885E+03    0.16111E-01   -0.14345E-02  2981   0.164E-01    0.204E+00
RMM:  50    -0.646496360154E+03   -0.14793E-02   -0.11655E-02  3016   0.128E-01
   1 F= -.65289283E+03 E0= -.65286802E+03  d E =-.652893E+03  mag=     0.3022
       N       E                     dE             d eps       ncg     rms          rms(c)
DAV:   1    -0.646517979074E+03   -0.23098E-01   -0.11202E+01  3184   0.933E+00    0.236E+00
RMM:   2    -0.646570528453E+03   -0.52549E-01   -0.41110E-01  3012   0.159E+00    0.189E+00
RMM:   3    -0.646535462635E+03    0.35066E-01   -0.90482E-02  3104   0.507E-01    0.218E+00
RMM:   4    -0.646482185896E+03    0.53277E-01   -0.64438E-02  3201   0.374E-01    0.219E+00
RMM:   5    -0.646407344165E+03    0.74842E-01   -0.56626E-02  3000   0.325E-01    0.161E+00
RMM:   6    -0.646456765637E+03   -0.49421E-01   -0.22393E-02  3024   0.202E-01    0.191E+00
RMM:   7    -0.646382987207E+03    0.73778E-01   -0.10069E-01  2984   0.487E-01    0.180E+00
RMM:   8    -0.646410384187E+03   -0.27397E-01   -0.64868E-02  2991   0.339E-01    0.160E+00
RMM:   9    -0.646277421377E+03    0.13296E+00   -0.18438E-01  3031   0.543E-01    0.192E+00
RMM:  10    -0.646447652029E+03   -0.17023E+00   -0.12986E-01  3009   0.431E-01    0.141E+00
RMM:  11    -0.646510850066E+03   -0.63198E-01   -0.78004E-01  2988   0.101E+00    0.204E+00
RMM:  12    -0.646678630391E+03   -0.16778E+00   -0.30464E-01  3064   0.630E-01    0.197E+00
RMM:  13    -0.646675017085E+03    0.36133E-02   -0.49711E-02  3403   0.241E-01    0.209E+00
RMM:  14    -0.646696869413E+03   -0.21852E-01   -0.75451E-03  2993   0.113E-01    0.202E+00
RMM:  15    -0.646694844661E+03    0.20248E-02   -0.52149E-03  2975   0.104E-01    0.186E+00
RMM:  16    -0.646674431526E+03    0.20413E-01   -0.44005E-02  3027   0.289E-01    0.158E+00
RMM:  17    -0.646741873191E+03   -0.67442E-01   -0.27852E-02  3032   0.245E-01    0.108E+00
RMM:  18    -0.646825784005E+03   -0.83911E-01   -0.34101E-02  3042   0.241E-01    0.125E+00
RMM:  19    -0.646889684495E+03   -0.63900E-01   -0.10937E-02  3014   0.129E-01    0.103E+00
RMM:  20    -0.646924941024E+03   -0.35257E-01   -0.81987E-03  2966   0.114E-01    0.626E-01
RMM:  21    -0.646942417866E+03   -0.17477E-01   -0.91303E-03  3001   0.124E-01    0.334E-01
RMM:  22    -0.646946534106E+03   -0.41162E-02   -0.31880E-03  2989   0.590E-02    0.333E-01
RMM:  23    -0.646947665572E+03   -0.11315E-02   -0.47778E-04  2417   0.297E-02    0.219E-01
RMM:  24    -0.646951978581E+03   -0.43130E-02   -0.77037E-04  2853   0.440E-02    0.151E-01
RMM:  25    -0.646954604736E+03   -0.26262E-02   -0.37528E-04  2528   0.271E-02    0.813E-02
RMM:  26    -0.646957125678E+03   -0.25209E-02   -0.57514E-04  2553   0.309E-02    0.111E-01
RMM:  27    -0.646957811824E+03   -0.68615E-03   -0.18030E-04  2251   0.157E-02    0.122E-01
RMM:  28    -0.646957659338E+03    0.15249E-03   -0.25998E-04  2274   0.247E-02    0.123E-01
RMM:  29    -0.646957843333E+03   -0.18400E-03   -0.33819E-05  1883   0.117E-02    0.796E-02
RMM:  30    -0.646957933998E+03   -0.90665E-04   -0.75737E-06  1645   0.453E-03    0.775E-02
RMM:  31    -0.646958009690E+03   -0.75692E-04   -0.94721E-06  1666   0.517E-03    0.585E-02
RMM:  32    -0.646958046475E+03   -0.36785E-04   -0.88331E-06  1577   0.456E-03    0.533E-02
RMM:  33    -0.646958106843E+03   -0.60368E-04   -0.68342E-06  1619   0.450E-03    0.376E-02
RMM:  34    -0.646958166707E+03   -0.59864E-04   -0.96649E-06  1673   0.424E-03    0.204E-02
RMM:  35    -0.646958187787E+03   -0.21079E-04   -0.52773E-06  1225   0.293E-03    0.129E-02
RMM:  36    -0.646958203294E+03   -0.15507E-04   -0.36667E-06  1445   0.289E-03    0.482E-03
RMM:  37    -0.646958212954E+03   -0.96604E-05   -0.17644E-06  1050   0.216E-03
   2 F= -.65336092E+03 E0= -.65333891E+03  d E =-.468093E+00  mag=     1.6161
       N       E                     dE             d eps       ncg     rms          rms(c)
DAV:   1    -0.646964881551E+03   -0.66783E-02   -0.25550E-02  3304   0.445E-01    0.506E-02
RMM:   2    -0.646964862545E+03    0.19005E-04   -0.77813E-04  3047   0.715E-02    0.336E-02
RMM:   3    -0.646964813586E+03    0.48959E-04   -0.82239E-05  2337   0.195E-02    0.285E-02
RMM:   4    -0.646964795690E+03    0.17897E-04   -0.39385E-05  1953   0.124E-02    0.270E-02
RMM:   5    -0.646964795419E+03    0.27056E-06   -0.13619E-05  1804   0.906E-03
   3 F= -.65336724E+03 E0= -.65334531E+03  d E =-.474410E+00  mag=     1.6231
       N       E                     dE             d eps       ncg     rms          rms(c)
DAV:   1    -0.646998135385E+03   -0.33340E-01   -0.21502E+00  3120   0.408E+00    0.460E-01
RMM:   2    -0.647000008605E+03   -0.18732E-02   -0.64373E-02  3035   0.654E-01    0.305E-01
RMM:   3    -0.646997715168E+03    0.22934E-02   -0.69977E-03  3139   0.176E-01    0.258E-01
RMM:   4    -0.646997046350E+03    0.66882E-03   -0.30164E-03  3256   0.971E-02    0.240E-01
RMM:   5    -0.646996889460E+03    0.15689E-03   -0.92541E-04  2949   0.601E-02    0.512E-02
RMM:   6    -0.646998132212E+03   -0.12428E-02   -0.12447E-04  2671   0.214E-02    0.232E-02
RMM:   7    -0.646998987671E+03   -0.85546E-03   -0.45528E-05  2011   0.105E-02    0.108E-02
RMM:   8    -0.646999522349E+03   -0.53468E-03   -0.21034E-05  1859   0.679E-03    0.511E-03
RMM:   9    -0.646999827860E+03   -0.30551E-03   -0.13907E-05  1800   0.448E-03    0.259E-03
RMM:  10    -0.646999954422E+03   -0.12656E-03   -0.68078E-06  1330   0.296E-03    0.162E-03
RMM:  11    -0.647000010778E+03   -0.56357E-04   -0.40141E-06  1190   0.257E-03    0.885E-04
RMM:  12    -0.647000017485E+03   -0.67065E-05   -0.14264E-06  1044   0.199E-03
   4 F= -.65339987E+03 E0= -.65337916E+03  d E =-.507040E+00  mag=     1.7062
       N       E                     dE             d eps       ncg     rms          rms(c)
DAV:   1    -0.647001246524E+03   -0.12357E-02   -0.58031E-02  3264   0.671E-01    0.756E-02
RMM:   2    -0.647001246932E+03   -0.40844E-06   -0.17280E-03  3037   0.107E-01    0.478E-02
RMM:   3    -0.647001147486E+03    0.99447E-04   -0.17611E-04  3053   0.283E-02    0.348E-02
RMM:   4    -0.647001134560E+03    0.12926E-04   -0.73381E-05  2075   0.156E-02    0.441E-02
RMM:   5    -0.647001123137E+03    0.11422E-04   -0.29543E-05  1863   0.124E-02    0.830E-03
RMM:   6    -0.647001186568E+03   -0.63430E-04   -0.42207E-06  1755   0.543E-03    0.411E-03
RMM:   7    -0.647001241156E+03   -0.54588E-04   -0.24672E-06  1738   0.314E-03    0.179E-03
RMM:   8    -0.647001269877E+03   -0.28722E-04   -0.87674E-07  1071   0.197E-03    0.925E-04
RMM:   9    -0.647001293535E+03   -0.23657E-04   -0.87540E-07   857   0.171E-03    0.407E-04
RMM:  10    -0.647001300821E+03   -0.72865E-05   -0.32482E-07   689   0.152E-03
   5 F= -.65340070E+03 E0= -.65338026E+03  d E =-.507872E+00  mag=     1.7186
       N       E                     dE             d eps       ncg     rms          rms(c)
DAV:   1    -0.647006836164E+03   -0.55426E-02   -0.18095E+00  3040   0.388E+00    0.468E-01
RMM:   2    -0.647016077420E+03   -0.92413E-02   -0.71345E-02  2991   0.625E-01    0.810E-01
RMM:   3    -0.647009707124E+03    0.63703E-02   -0.11258E-02  3253   0.195E-01    0.244E-01
RMM:   4    -0.647009012042E+03    0.69508E-03   -0.14531E-03  3186   0.762E-02    0.125E-01
RMM:   5    -0.647008816507E+03    0.19553E-03   -0.68855E-04  2959   0.531E-02    0.426E-02
RMM:   6    -0.647008848931E+03   -0.32424E-04   -0.57003E-05  2167   0.169E-02    0.235E-02
RMM:   7    -0.647008905310E+03   -0.56379E-04   -0.23372E-05  1892   0.953E-03    0.105E-02
RMM:   8    -0.647008946415E+03   -0.41105E-04   -0.65667E-06  1786   0.546E-03    0.797E-03
RMM:   9    -0.647008972736E+03   -0.26320E-04   -0.30471E-06  1764   0.371E-03    0.370E-03
RMM:  10    -0.647008978367E+03   -0.56316E-05   -0.75199E-07  1232   0.220E-03
   6 F= -.65341051E+03 E0= -.65339043E+03  d E =-.980276E-02  mag=     1.7325
       N       E                     dE             d eps       ncg     rms          rms(c)
DAV:   1    -0.647010291448E+03   -0.13187E-02   -0.95572E-02  3208   0.892E-01    0.107E-01
RMM:   2    -0.647010765816E+03   -0.47437E-03   -0.37970E-03  2993   0.144E-01    0.185E-01
RMM:   3    -0.647010434473E+03    0.33134E-03   -0.58661E-04  3051   0.448E-02    0.550E-02
RMM:   4    -0.647010402922E+03    0.31551E-04   -0.73594E-05  2440   0.175E-02    0.293E-02
RMM:   5    -0.647010389098E+03    0.13824E-04   -0.39461E-05  2034   0.136E-02    0.958E-03
RMM:   6    -0.647010395894E+03   -0.67968E-05   -0.42379E-06  1734   0.596E-03
   7 F= -.65341147E+03 E0= -.65339131E+03  d E =-.107671E-01  mag=     1.7299
       N       E                     dE             d eps       ncg     rms          rms(c)
DAV:   1    -0.647014482923E+03   -0.40938E-02   -0.51877E-01  3064   0.206E+00    0.232E-01
RMM:   2    -0.647016165302E+03   -0.16824E-02   -0.16127E-02  3032   0.304E-01    0.330E-01
RMM:   3    -0.647015021111E+03    0.11442E-02   -0.25820E-03  3176   0.999E-02    0.143E-01
RMM:   4    -0.647014742588E+03    0.27852E-03   -0.48926E-04  3039   0.443E-02    0.631E-02
RMM:   5    -0.647014719734E+03    0.22853E-04   -0.13567E-04  2928   0.251E-02    0.221E-02
RMM:   6    -0.647014782487E+03   -0.62753E-04   -0.11683E-05  1803   0.831E-03    0.938E-03
RMM:   7    -0.647014831808E+03   -0.49321E-04   -0.53613E-06  1768   0.502E-03    0.360E-03
RMM:   8    -0.647014858313E+03   -0.26505E-04   -0.18378E-06  1718   0.306E-03    0.204E-03
RMM:   9    -0.647014876493E+03   -0.18180E-04   -0.91627E-07  1097   0.197E-03    0.107E-03
RMM:  10    -0.647014882801E+03   -0.63072E-05   -0.38277E-07   803   0.167E-03
   8 F= -.65341493E+03 E0= -.65339473E+03  d E =-.346202E-02  mag=     1.7417
       N       E                     dE             d eps       ncg     rms          rms(c)
DAV:   1    -0.647014817065E+03    0.59428E-04   -0.44718E-03  3224   0.192E-01    0.215E-02
RMM:   2    -0.647014833129E+03   -0.16063E-04   -0.13752E-04  2914   0.283E-02    0.305E-02
RMM:   3    -0.647014823805E+03    0.93239E-05   -0.20064E-05  1814   0.952E-03
   9 F= -.65341497E+03 E0= -.65339478E+03  d E =-.350208E-02  mag=     1.7411
       N       E                     dE             d eps       ncg     rms          rms(c)
DAV:   1    -0.647016304357E+03   -0.14712E-02   -0.23693E-01  3016   0.133E+00    0.108E-01
RMM:   2    -0.647016597813E+03   -0.29346E-03   -0.46047E-03  2973   0.174E-01    0.675E-02
RMM:   3    -0.647016508382E+03    0.89431E-04   -0.33456E-04  3165   0.417E-02    0.615E-02
RMM:   4    -0.647016492647E+03    0.15735E-04   -0.15772E-04  2447   0.228E-02    0.502E-02
RMM:   5    -0.647016472898E+03    0.19749E-04   -0.37287E-05  1941   0.138E-02    0.112E-02
RMM:   6    -0.647016497984E+03   -0.25086E-04   -0.56639E-06  1758   0.640E-03    0.533E-03
RMM:   7    -0.647016520847E+03   -0.22863E-04   -0.23023E-06  1734   0.370E-03    0.211E-03
RMM:   8    -0.647016532498E+03   -0.11650E-04   -0.65691E-07  1184   0.227E-03    0.125E-03
RMM:   9    -0.647016542000E+03   -0.95021E-05   -0.44178E-07   902   0.178E-03
  10 F= -.65341635E+03 E0= -.65339635E+03  d E =-.137904E-02  mag=     1.7468
       N       E                     dE             d eps       ncg     rms          rms(c)
DAV:   1    -0.647016527031E+03    0.54663E-05   -0.90623E-04  3224   0.823E-02    0.675E-03
RMM:   2    -0.647016528862E+03   -0.18309E-05   -0.14528E-05  1675   0.108E-02
  11 F= -.65341636E+03 E0= -.65339634E+03  d E =-.138781E-02  mag=     1.7467
       N       E                     dE             d eps       ncg     rms          rms(c)
DAV:   1    -0.647016946342E+03   -0.41931E-03   -0.12587E-01  3072   0.100E+00    0.970E-02
RMM:   2    -0.647017299432E+03   -0.35309E-03   -0.36745E-03  2981   0.146E-01    0.138E-01
RMM:   3    -0.647017111205E+03    0.18823E-03   -0.43775E-04  3220   0.418E-02    0.564E-02
RMM:   4    -0.647017072969E+03    0.38236E-04   -0.77287E-05  2815   0.182E-02    0.263E-02
RMM:   5    -0.647017065238E+03    0.77315E-05   -0.33344E-05  1963   0.126E-02
  12 F= -.65341698E+03 E0= -.65339718E+03  d E =-.621051E-03  mag=     1.7459
