 vasp.5.4.4.18Apr17-6-g9f103f2a35 (build Sep 02 2021 13:24:58) complex          
  
 executed on             LinuxIFC date 2023.01.15  13:02:11
 running on   48 total cores
 distrk:  each k-point on   48 cores,    1 groups
 distr:  one band on NCORES_PER_BAND=  12 cores,    4 groups


--------------------------------------------------------------------------------------------------------


 INCAR:
 POTCAR:    PAW_PBE C 08Apr2002                   
 POTCAR:    PAW_PBE N 08Apr2002                   
 POTCAR:    PAW_PBE C 08Apr2002                   
 POTCAR:    PAW_PBE Cr_pv 02Aug2007               
 POTCAR:    PAW_PBE C 08Apr2002                   
   SHA256 =  253f7b50bb8d59471dbedb8285d89021f4a42ed1a2c5d38a03a736e69125dd95 C/
   COPYR  = (c) Copyright 08Apr2002 Georg Kresse                                
   COPYR  = This file is part of the software VASP. Any use, copying, and all ot
   COPYR  = If you do not have a valid VASP license, you may not use, copy or di
   VRHFIN =C: s2p2                                                              
   LEXCH  = PE                                                                  
   EATOM  =   147.1560 eV,   10.8157 Ry                                         
                                                                                
   TITEL  = PAW_PBE C 08Apr2002                                                 
   LULTRA =        F    use ultrasoft PP ?                                      
   IUNSCR =        1    unscreen: 0-lin 1-nonlin 2-no                           
   RPACOR =    1.200    partial core radius                                     
   POMASS =   12.011; ZVAL   =    4.000    mass and valenz                      
   RCORE  =    1.500    outmost cutoff radius                                   
   RWIGS  =    1.630; RWIGS  =    0.863    wigner-seitz radius (au A)           
   ENMAX  =  400.000; ENMIN  =  300.000 eV                                      
   ICORE  =        2    local potential                                         
   LCOR   =        T    correct aug charges                                     
   LPAW   =        T    paw PP                                                  
   EAUG   =  644.873                                                            
   DEXC   =    0.000                                                            
   RMAX   =    1.529    core radius for proj-oper                               
   RAUG   =    1.300    factor for augmentation sphere                          
   RDEP   =    1.501    radius for radial grids                                 
   RDEPT  =    1.300    core radius for aug-charge                              
                                                                                
   Atomic configuration                                                         
    4 entries                                                                   
     n  l   j            E        occ.                                          
     1  0  0.50      -273.3789   2.0000                                         
     2  0  0.50       -13.7508   2.0000                                         
     2  1  0.50        -5.2854   2.0000                                         
     3  2  1.50        -5.4423   0.0000                                         
   Description                                                                  
     l       E           TYP  RCUT    TYP  RCUT                                 
     0    -13.7508458     23  1.200                                             
     0     -8.2022199     23  1.200                                             
     1     -5.2854383     23  1.500                                             
     1     34.0145650     23  1.500                                             
     2     -5.4423304      7  1.500                                             
  local pseudopotential read in
  partial core-charges read in
  partial kinetic energy density read in
  atomic valenz-charges read in
  non local Contribution for L=           0  read in
    real space projection operators read in
  non local Contribution for L=           0  read in
    real space projection operators read in
  non local Contribution for L=           1  read in
    real space projection operators read in
  non local Contribution for L=           1  read in
    real space projection operators read in
    PAW grid and wavefunctions read in
 
   number of l-projection  operators is LMAX  =           4
   number of lm-projection operators is LMMAX =           8
 
 POTCAR:    PAW_PBE N 08Apr2002                   
   SHA256 =  e053789ff3a61a86a1b75d8a110fcc91f86041011e7b0817c7c99e4e8a6349d7 N/
   COPYR  = (c) Copyright 08Apr2002 Georg Kresse                                
   COPYR  = This file is part of the software VASP. Any use, copying, and all ot
   COPYR  = If you do not have a valid VASP license, you may not use, copy or di
   VRHFIN =N: s2p3                                                              
   LEXCH  = PE                                                                  
   EATOM  =   264.5486 eV,   19.4438 Ry                                         
                                                                                
   TITEL  = PAW_PBE N 08Apr2002                                                 
   LULTRA =        F    use ultrasoft PP ?                                      
   IUNSCR =        1    unscreen: 0-lin 1-nonlin 2-no                           
   RPACOR =    1.200    partial core radius                                     
   POMASS =   14.001; ZVAL   =    5.000    mass and valenz                      
   RCORE  =    1.500    outmost cutoff radius                                   
   RWIGS  =    1.400; RWIGS  =    0.741    wigner-seitz radius (au A)           
   ENMAX  =  400.000; ENMIN  =  300.000 eV                                      
   ICORE  =        2    local potential                                         
   LCOR   =        T    correct aug charges                                     
   LPAW   =        T    paw PP                                                  
   EAUG   =  627.112                                                            
   DEXC   =    0.000                                                            
   RMAX   =    1.529    core radius for proj-oper                               
   RAUG   =    1.300    factor for augmentation sphere                          
   RDEP   =    1.514    radius for radial grids                                 
   RDEPT  =    1.338    core radius for aug-charge                              
                                                                                
   Atomic configuration                                                         
    4 entries                                                                   
     n  l   j            E        occ.                                          
     1  0  0.50      -384.7179   2.0000                                         
     2  0  0.50       -18.5828   2.0000                                         
     2  1  0.50        -7.0898   3.0000                                         
     3  2  1.50        -6.8029   0.0000                                         
   Description                                                                  
     l       E           TYP  RCUT    TYP  RCUT                                 
     0    -18.5828119     23  1.200                                             
     0    -13.5018863     23  1.200                                             
     1     -7.0897853     23  1.500                                             
     1      9.5240782     23  1.500                                             
     2     -6.8029130      7  1.500                                             
  local pseudopotential read in
  partial core-charges read in
  partial kinetic energy density read in
  atomic valenz-charges read in
  non local Contribution for L=           0  read in
    real space projection operators read in
  non local Contribution for L=           0  read in
    real space projection operators read in
  non local Contribution for L=           1  read in
    real space projection operators read in
  non local Contribution for L=           1  read in
    real space projection operators read in
    PAW grid and wavefunctions read in
 
   number of l-projection  operators is LMAX  =           4
   number of lm-projection operators is LMMAX =           8
 
 POTCAR:    PAW_PBE C 08Apr2002                   
   SHA256 =  253f7b50bb8d59471dbedb8285d89021f4a42ed1a2c5d38a03a736e69125dd95 C/
   COPYR  = (c) Copyright 08Apr2002 Georg Kresse                                
   COPYR  = This file is part of the software VASP. Any use, copying, and all ot
   COPYR  = If you do not have a valid VASP license, you may not use, copy or di
   VRHFIN =C: s2p2                                                              
   LEXCH  = PE                                                                  
   EATOM  =   147.1560 eV,   10.8157 Ry                                         
                                                                                
   TITEL  = PAW_PBE C 08Apr2002                                                 
   LULTRA =        F    use ultrasoft PP ?                                      
   IUNSCR =        1    unscreen: 0-lin 1-nonlin 2-no                           
   RPACOR =    1.200    partial core radius                                     
   POMASS =   12.011; ZVAL   =    4.000    mass and valenz                      
   RCORE  =    1.500    outmost cutoff radius                                   
   RWIGS  =    1.630; RWIGS  =    0.863    wigner-seitz radius (au A)           
   ENMAX  =  400.000; ENMIN  =  300.000 eV                                      
   ICORE  =        2    local potential                                         
   LCOR   =        T    correct aug charges                                     
   LPAW   =        T    paw PP                                                  
   EAUG   =  644.873                                                            
   DEXC   =    0.000                                                            
   RMAX   =    1.529    core radius for proj-oper                               
   RAUG   =    1.300    factor for augmentation sphere                          
   RDEP   =    1.501    radius for radial grids                                 
   RDEPT  =    1.300    core radius for aug-charge                              
                                                                                
   Atomic configuration                                                         
    4 entries                                                                   
     n  l   j            E        occ.                                          
     1  0  0.50      -273.3789   2.0000                                         
     2  0  0.50       -13.7508   2.0000                                         
     2  1  0.50        -5.2854   2.0000                                         
     3  2  1.50        -5.4423   0.0000                                         
   Description                                                                  
     l       E           TYP  RCUT    TYP  RCUT                                 
     0    -13.7508458     23  1.200                                             
     0     -8.2022199     23  1.200                                             
     1     -5.2854383     23  1.500                                             
     1     34.0145650     23  1.500                                             
     2     -5.4423304      7  1.500                                             
  local pseudopotential read in
  partial core-charges read in
  partial kinetic energy density read in
  atomic valenz-charges read in
  non local Contribution for L=           0  read in
    real space projection operators read in
  non local Contribution for L=           0  read in
    real space projection operators read in
  non local Contribution for L=           1  read in
    real space projection operators read in
  non local Contribution for L=           1  read in
    real space projection operators read in
    PAW grid and wavefunctions read in
 
   number of l-projection  operators is LMAX  =           4
   number of lm-projection operators is LMMAX =           8
 
 POTCAR:    PAW_PBE Cr_pv 02Aug2007               
   SHA256 =  c9a7df34d3cdbacf1090e328ef39c0b420964e11c23f63548d1ac9dd218cdba0 Cr
   COPYR  = (c) Copyright 02Aug2007 Georg Kresse                                
   COPYR  = This file is part of the software VASP. Any use, copying, and all ot
   COPYR  = If you do not have a valid VASP license, you may not use, copy or di
   VRHFIN =Cr : p6d5s1                                                          
   LEXCH  = PE                                                                  
   EATOM  =  1647.9177 eV,  121.1185 Ry                                         
                                                                                
   TITEL  = PAW_PBE Cr_pv 02Aug2007                                             
   LULTRA =        F    use ultrasoft PP ?                                      
   IUNSCR =        1    unscreen: 0-lin 1-nonlin 2-no                           
   RPACOR =    2.080    partial core radius                                     
   POMASS =   51.996; ZVAL   =   12.000    mass and valenz                      
   RCORE  =    2.300    outmost cutoff radius                                   
   RWIGS  =    2.500; RWIGS  =    1.323    wigner-seitz radius (au A)           
   ENMAX  =  265.681; ENMIN  =  199.261 eV                                      
   ICORE  =        3    local potential                                         
   LCOR   =        T    correct aug charges                                     
   LPAW   =        T    paw PP                                                  
   EAUG   =  519.424                                                            
   DEXC   =    0.000                                                            
   RMAX   =    2.356    core radius for proj-oper                               
   RAUG   =    1.300    factor for augmentation sphere                          
   RDEP   =    2.447    radius for radial grids                                 
   RDEPT  =    1.882    core radius for aug-charge                              
                                                                                
   Atomic configuration                                                         
    8 entries                                                                   
     n  l   j            E        occ.                                          
     1  0  0.50     -5880.4963   2.0000                                         
     2  0  0.50      -667.0865   2.0000                                         
     2  1  1.50      -560.6250   6.0000                                         
     3  0  0.50       -73.9860   2.0000                                         
     3  1  1.50       -45.4378   6.0000                                         
     3  2  2.50        -2.9137   5.0000                                         
     4  0  0.50        -4.0071   1.0000                                         
     4  3  2.50        -1.3606   0.0000                                         
   Description                                                                  
     l       E           TYP  RCUT    TYP  RCUT                                 
     1    -45.4377911     23  2.000                                             
     1      1.3605826     23  2.000                                             
     2     -2.9136672     23  2.300                                             
     2     -4.2742498     23  2.300                                             
     0     -4.0071320     23  2.300                                             
     0      9.4498803     23  2.300                                             
     3      2.7211652     23  2.300                                             
  local pseudopotential read in
  partial core-charges read in
  partial kinetic energy density read in
  atomic valenz-charges read in
  non local Contribution for L=           1  read in
    real space projection operators read in
  non local Contribution for L=           1  read in
    real space projection operators read in
  non local Contribution for L=           2  read in
    real space projection operators read in
  non local Contribution for L=           2  read in
    real space projection operators read in
  non local Contribution for L=           0  read in
    real space projection operators read in
  non local Contribution for L=           0  read in
    real space projection operators read in
    PAW grid and wavefunctions read in
 
   number of l-projection  operators is LMAX  =           6
   number of lm-projection operators is LMMAX =          18
 
 Optimization of the real space projectors (new method)

 maximal supplied QI-value         = 25.13
 optimisation between [QCUT,QGAM] = [ 11.81, 23.88] = [ 39.08,159.64] Ry 
 Optimized for a Real-space Cutoff    1.18 Angstroem

   l    n(q)    QCUT    max X(q) W(low)/X(q) W(high)/X(q)  e(spline) 
   0      8    11.813   115.676    0.10E-03    0.16E-03    0.35E-06
   0      8    11.813    87.132    0.10E-03    0.16E-03    0.35E-06
   1      8    11.813     4.429    0.16E-03    0.13E-04    0.22E-06
   1      8    11.813     2.733    0.13E-03    0.10E-04    0.18E-06
 Optimization of the real space projectors (new method)

 maximal supplied QI-value         = 25.13
 optimisation between [QCUT,QGAM] = [ 11.81, 23.88] = [ 39.08,159.64] Ry 
 Optimized for a Real-space Cutoff    1.41 Angstroem

   l    n(q)    QCUT    max X(q) W(low)/X(q) W(high)/X(q)  e(spline) 
   0     10    11.813    79.467    0.48E-04    0.30E-04    0.67E-06
   0     10    11.813    66.151    0.47E-04    0.30E-04    0.67E-06
   1     10    11.813    20.169    0.11E-03    0.17E-03    0.11E-05
   1     10    11.813    14.454    0.11E-03    0.17E-03    0.11E-05
 Optimization of the real space projectors (new method)

 maximal supplied QI-value         = 25.13
 optimisation between [QCUT,QGAM] = [ 11.81, 23.88] = [ 39.08,159.64] Ry 
 Optimized for a Real-space Cutoff    1.18 Angstroem

   l    n(q)    QCUT    max X(q) W(low)/X(q) W(high)/X(q)  e(spline) 
   0      8    11.813   115.676    0.10E-03    0.16E-03    0.35E-06
   0      8    11.813    87.132    0.10E-03    0.16E-03    0.35E-06
   1      8    11.813     4.429    0.16E-03    0.13E-04    0.22E-06
   1      8    11.813     2.733    0.13E-03    0.10E-04    0.18E-06
 Optimization of the real space projectors (new method)

 maximal supplied QI-value         = 16.25
 optimisation between [QCUT,QGAM] = [ 11.86, 23.89] = [ 39.41,159.82] Ry 
 Optimized for a Real-space Cutoff    1.33 Angstroem

   l    n(q)    QCUT    max X(q) W(low)/X(q) W(high)/X(q)  e(spline) 
   1      9    11.864     3.262    0.48E-04    0.16E-03    0.14E-06
   1      9    11.864     5.741    0.74E-04    0.40E-03    0.35E-06
   2      9    11.864    60.438    0.17E-03    0.21E-03    0.26E-06
   2      9    11.864    55.380    0.17E-03    0.21E-03    0.27E-06
   0      9    11.864    80.273    0.40E-04    0.47E-04    0.12E-06
   0      9    11.864    36.654    0.35E-04    0.41E-04    0.11E-06
  PAW_PBE C 08Apr2002                   :
 energy of atom  1       EATOM= -147.1560
 kinetic energy error for atom=    0.0066 (will be added to EATOM!!)
  PAW_PBE N 08Apr2002                   :
 energy of atom  2       EATOM= -264.5486
 kinetic energy error for atom=    0.0116 (will be added to EATOM!!)
  PAW_PBE C 08Apr2002                   :
 energy of atom  3       EATOM= -147.1560
 kinetic energy error for atom=    0.0066 (will be added to EATOM!!)
  PAW_PBE Cr_pv 02Aug2007               :
 energy of atom  4       EATOM=-1647.9177
 kinetic energy error for atom=    0.0054 (will be added to EATOM!!)
 
 
 POSCAR: POSCAR-clean                            
  positions in cartesian coordinates
  No initial velocities read in
 exchange correlation table for  LEXCH =        8
   RHO(1)=    0.500       N(1)  =     2000
   RHO(2)=  100.500       N(2)  =     4000
 


--------------------------------------------------------------------------------------------------------


 ion  position               nearest neighbor table
   1  0.000  1.000  0.498-   2 1.42  60 1.42  70 1.43
   2  0.056  0.111  0.498-   1 1.42  13 1.42  15 1.43
   3  0.168  0.002  0.498-   4 1.42  62 1.43  60 1.43
   4  0.224  0.113  0.498-   3 1.42  15 1.42  17 1.44
   5  0.334  0.002  0.498-   6 1.42  62 1.43  64 1.43
   6  0.390  0.113  0.498-   5 1.42  19 1.42  17 1.44
   7  0.500  1.000  0.498-   8 1.42  64 1.42  66 1.43
   8  0.556  0.111  0.498-   7 1.42  21 1.42  19 1.43
   9  0.666  0.998  0.498-  10 1.42  66 1.42  68 1.44
  10  0.722  0.109  0.498-   9 1.42  23 1.43  21 1.43
  11  0.832  0.998  0.498-  12 1.42  70 1.42  68 1.44
  12  0.888  0.109  0.498-  11 1.42  23 1.43  13 1.43
  13  0.999  0.165  0.498-  14 1.42   2 1.42  12 1.43
  14  0.054  0.277  0.499-  13 1.42  25 1.42  27 1.43
  15  0.167  0.168  0.498-  16 1.42   4 1.42   2 1.43
  16  0.223  0.280  0.500-  15 1.42  27 1.43  29 1.44
  17  0.335  0.170  0.499-  18 1.42   4 1.44   6 1.44
  18  0.391  0.281  0.503-  17 1.42  31 1.44  29 1.44
  19  0.501  0.168  0.498-  20 1.42   6 1.42   8 1.43
  20  0.557  0.280  0.500-  19 1.42  33 1.43  31 1.44
  21  0.667  0.165  0.498-  22 1.42   8 1.42  10 1.43
  22  0.723  0.277  0.498-  21 1.42  35 1.42  33 1.43
  23  0.833  0.165  0.498-  24 1.42  10 1.43  12 1.43
  24  0.888  0.276  0.498-  23 1.42  25 1.42  35 1.43
  25  0.999  0.332  0.498-  14 1.42  26 1.42  24 1.42
  26  0.054  0.444  0.499-  39 1.42  37 1.42  25 1.42
  27  0.165  0.333  0.500-  28 1.42  16 1.43  14 1.43
  28  0.219  0.444  0.502-  41 1.41  27 1.42  39 1.42
  29  0.335  0.338  0.503-  30 1.41  18 1.44  16 1.44
  30  0.387  0.448  0.510-  41 1.41  29 1.41  71 2.00
  31  0.503  0.338  0.504-  32 1.41  18 1.44  20 1.44
  32  0.562  0.448  0.510-  43 1.41  31 1.41  71 2.00
  33  0.668  0.333  0.500-  34 1.42  20 1.43  22 1.43
  34  0.725  0.444  0.501-  43 1.41  33 1.42  45 1.42
  35  0.833  0.332  0.498-  22 1.42  36 1.42  24 1.43
  36  0.890  0.444  0.498-  45 1.42  37 1.42  35 1.42
  37  0.000  0.500  0.498-  36 1.42  26 1.42  38 1.42
  38  0.056  0.611  0.498-  47 1.42  49 1.42  37 1.42
  39  0.165  0.500  0.500-  26 1.42  28 1.42  40 1.42
  40  0.220  0.611  0.500-  49 1.42  51 1.42  39 1.42
  41  0.329  0.499  0.505-  30 1.41  28 1.41  42 1.44
  42  0.385  0.612  0.505-  53 1.41  51 1.41  41 1.44
  43  0.671  0.499  0.505-  32 1.41  34 1.41  44 1.44
  44  0.727  0.612  0.505-  55 1.41  57 1.41  43 1.44
  45  0.836  0.500  0.499-  36 1.42  34 1.42  46 1.42
  46  0.891  0.611  0.499-  47 1.42  57 1.42  45 1.42
  47  0.001  0.667  0.498-  46 1.42  38 1.42  48 1.42
  48  0.057  0.779  0.498-  59 1.42  47 1.42  61 1.43
  49  0.166  0.667  0.499-  40 1.42  38 1.42  50 1.42
  50  0.222  0.779  0.498-  63 1.42  49 1.42  61 1.42
  51  0.331  0.667  0.502-  42 1.41  52 1.42  40 1.42
  52  0.388  0.778  0.500-  51 1.42  65 1.43  63 1.43
  53  0.494  0.663  0.510-  42 1.41  54 1.41  71 2.00
  54  0.553  0.773  0.503-  53 1.41  67 1.44  65 1.44
  55  0.669  0.663  0.510-  44 1.41  56 1.41  71 2.00
  56  0.721  0.773  0.504-  55 1.41  67 1.44  69 1.44
  57  0.837  0.667  0.501-  44 1.41  58 1.42  46 1.42
  58  0.891  0.778  0.500-  57 1.42  69 1.42  59 1.43
  59  0.002  0.835  0.498-  60 1.42  48 1.42  58 1.43
  60  0.057  0.946  0.498-  59 1.42   1 1.42   3 1.43
  61  0.168  0.835  0.498-  62 1.42  50 1.42  48 1.43
  62  0.223  0.946  0.498-  61 1.42   3 1.43   5 1.43
  63  0.333  0.835  0.499-  64 1.42  50 1.42  52 1.43
  64  0.389  0.946  0.498-  63 1.42   7 1.42   5 1.43
  65  0.499  0.832  0.500-  66 1.42  52 1.43  54 1.44
  66  0.555  0.943  0.498-  65 1.42   9 1.42   7 1.43
  67  0.665  0.830  0.503-  68 1.42  56 1.44  54 1.44
  68  0.721  0.941  0.499-  67 1.42   9 1.44  11 1.44
  69  0.833  0.832  0.500-  70 1.42  58 1.42  56 1.44
  70  0.889  0.943  0.498-  69 1.42  11 1.42   1 1.43
  71  0.528  0.556  0.554-  55 2.00  32 2.00  53 2.00  30 2.00
 

IMPORTANT INFORMATION: All symmetrisations will be switched off!
NOSYMM: (Re-)initialisation of all symmetry stuff for point group C_1.

 
 
 KPOINTS: K-Points                                

Automatic generation of k-mesh.
Space group operators:
 irot       det(A)        alpha          n_x          n_y          n_z        tau_x        tau_y        tau_z
    1     1.000000     0.000000     1.000000     0.000000     0.000000     0.000000     0.000000     0.000000
 
 Subroutine IBZKPT returns following result:
 ===========================================
 
 Found      4 irreducible k-points:
 
 Following reciprocal coordinates:
            Coordinates               Weight
  0.000000  0.000000  0.000000      1.000000
  0.500000  0.000000  0.000000      1.000000
 -0.000000  0.500000  0.000000      1.000000
  0.500000  0.500000  0.000000      1.000000
 
 Following cartesian coordinates:
            Coordinates               Weight
  0.000000  0.000000  0.000000      1.000000
  0.033606  0.019589  0.000000      1.000000
 -0.000000  0.039178  0.000000      1.000000
  0.033606  0.058767  0.000000      1.000000
 


--------------------------------------------------------------------------------------------------------




 Dimension of arrays:
   k-points           NKPTS =      4   k-points in BZ     NKDIM =      4   number of bands    NBANDS=    184
   number of dos      NEDOS =    301   number of ions     NIONS =     71
   non local maximal  LDIM  =      6   non local SUM 2l+1 LMDIM =     18
   total plane-waves  NPLWV = ******
   max r-space proj   IRMAX =   7110   max aug-charges    IRDMAX=  21308
   dimension x,y,z NGX =   120 NGY =  120 NGZ =  120
   dimension x,y,z NGXF=   240 NGYF=  240 NGZF=  240
   support grid    NGXF=   240 NGYF=  240 NGZF=  240
   ions per type =              56   1  13   1
   NGX,Y,Z   is equivalent  to a cutoff of  13.41, 13.50, 13.30 a.u.
   NGXF,Y,Z  is equivalent  to a cutoff of  26.82, 27.01, 26.60 a.u.

 SYSTEM =  unknown system                          
 POSCAR =  POSCAR-clean                            

 Startparameter for this run:
   NWRITE =      2    write-flag & timer
   PREC   = accura    normal or accurate (medium, high low for compatibility)
   ISTART =      0    job   : 0-new  1-cont  2-samecut
   ICHARG =      2    charge: 1-file 2-atom 10-const
   ISPIN  =      2    spin polarized calculation?
   LNONCOLLINEAR =      F non collinear calculations
   LSORBIT =      F    spin-orbit coupling
   INIWAV =      1    electr: 0-lowe 1-rand  2-diag
   LASPH  =      F    aspherical Exc in radial PAW
   METAGGA=      F    non-selfconsistent MetaGGA calc.

 Electronic Relaxation 1
   ENCUT  =  550.0 eV  40.42 Ry    6.36 a.u.  28.45 28.25 28.68*2*pi/ulx,y,z
   ENINI  =  550.0     initial cutoff
   ENAUG  =  644.9 eV  augmentation charge cutoff
   NELM   =     50;   NELMIN=  2; NELMDL= -5     # of ELM steps 
   EDIFF  = 0.1E-04   stopping-criterion for ELM
   LREAL  =      T    real-space projection
   NLSPLINE    = F    spline interpolate recip. space projectors
   LCOMPAT=      F    compatible to vasp.4.4
   GGA_COMPAT  = T    GGA compatible to vasp.4.4-vasp.4.6
   LMAXPAW     = -100 max onsite density
   LMAXMIX     =    2 max onsite mixed and CHGCAR
   VOSKOWN=      0    Vosko Wilk Nusair interpolation
   ROPT   =   -0.00025  -0.00025  -0.00025  -0.00025
 Ionic relaxation
   EDIFFG = -.5E-01   stopping-criterion for IOM
   NSW    =    400    number of steps for IOM
   NBLOCK =      1;   KBLOCK =    400    inner block; outer block 
   IBRION =      2    ionic relax: 0-MD 1-quasi-New 2-CG
   NFREE  =      1    steps in history (QN), initial steepest desc. (CG)
   ISIF   =      3    stress and relaxation
   IWAVPR =     11    prediction:  0-non 1-charg 2-wave 3-comb
   ISYM   =      0    0-nonsym 1-usesym 2-fastsym
   LCORR  =      T    Harris-Foulkes like correction to forces

   POTIM  = 0.3000    time-step for ionic-motion
   TEIN   =    0.0    initial temperature
   TEBEG  =    0.0;   TEEND  =   0.0 temperature during run
   SMASS  =  -3.00    Nose mass-parameter (am)
   estimated Nose-frequenzy (Omega)   =  0.10E-29 period in steps =****** mass=  -0.506E-26a.u.
   SCALEE = 1.0000    scale energy and forces
   NPACO  =    256;   APACO  = 16.0  distance and # of slots for P.C.
   PSTRESS=    0.0 pullay stress

  Mass of Ions in am
   POMASS =  12.01 14.00 12.01 52.00
  Ionic Valenz
   ZVAL   =   4.00  5.00  4.00 12.00
  Atomic Wigner-Seitz radii
   RWIGS  =  -1.00 -1.00 -1.00 -1.00
  virtual crystal weights 
   VCA    =   1.00  1.00  1.00  1.00
   NELECT =     293.0000    total number of electrons
   NUPDOWN=      -1.0000    fix difference up-down

 DOS related values:
   EMIN   =  10.00;   EMAX   =-10.00  energy-range for DOS
   EFERMI =   0.00
   ISMEAR =     0;   SIGMA  =   0.10  broadening in eV -4-tet -1-fermi 0-gaus

 Electronic relaxation 2 (details)
   IALGO  =     68    algorithm
   LDIAG  =      T    sub-space diagonalisation (order eigenvalues)
   LSUBROT=      F    optimize rotation matrix (better conditioning)
   TURBO    =      0    0=normal 1=particle mesh
   IRESTART =      0    0=no restart 2=restart with 2 vectors
   NREBOOT  =      0    no. of reboots
   NMIN     =      0    reboot dimension
   EREF     =   0.00    reference energy to select bands
   IMIX   =      4    mixing-type and parameters
     AMIX     =   0.40;   BMIX     =  1.00
     AMIX_MAG =   1.60;   BMIX_MAG =  1.00
     AMIN     =   0.10
     WC   =   100.;   INIMIX=   1;  MIXPRE=   1;  MAXMIX= -45

 Intra band minimization:
   WEIMIN = 0.0010     energy-eigenvalue tresh-hold
   EBREAK =  0.14E-07  absolut break condition
   DEPER  =   0.30     relativ break condition  

   TIME   =   0.40     timestep for ELM

  volume/ion in A,a.u.               =      40.12       270.71
  Fermi-wavevector in a.u.,A,eV,Ry     =   0.767079  1.449569  8.005805  0.588410
  Thomas-Fermi vector in A             =   1.867557
 
 Write flags
   LWAVE        =      F    write WAVECAR
   LDOWNSAMPLE  =      F    k-point downsampling of WAVECAR
   LCHARG       =      F    write CHGCAR
   LVTOT        =      F    write LOCPOT, total local potential
   LVHAR        =      F    write LOCPOT, Hartree potential only
   LELF         =      F    write electronic localiz. function (ELF)
   LORBIT       =      0    0 simple, 1 ext, 2 COOP (PROOUT), +10 PAW based schemes


 Dipole corrections
   LMONO  =      F    monopole corrections only (constant potential shift)
   LDIPOL =      F    correct potential (dipole corrections)
   IDIPOL =      0    1-x, 2-y, 3-z, 4-all directions 
   EPSILON=  1.0000000 bulk dielectric constant

 Exchange correlation treatment:
   GGA     =    --    GGA type
   LEXCH   =     8    internal setting for exchange type
   VOSKOWN=      0    Vosko Wilk Nusair interpolation
   LHFCALC =     F    Hartree Fock is set to
   LHFONE  =     F    Hartree Fock one center treatment
   AEXX    =    0.0000 exact exchange contribution

 Linear response parameters
   LEPSILON=     F    determine dielectric tensor
   LRPA    =     F    only Hartree local field effects (RPA)
   LNABLA  =     F    use nabla operator in PAW spheres
   LVEL    =     F    velocity operator in full k-point grid
   LINTERFAST=   F  fast interpolation
   KINTER  =     0    interpolate to denser k-point grid
   CSHIFT  =0.1000    complex shift for real part using Kramers Kronig
   OMEGAMAX=  -1.0    maximum frequency
   DEG_THRESHOLD= 0.2000000E-02 threshold for treating states as degnerate
   RTIME   =   -0.100 relaxation time in fs
  (WPLASMAI=    0.000 imaginary part of plasma frequency in eV, 0.658/RTIME)
   DFIELD  = 0.0000000 0.0000000 0.0000000 field for delta impulse in time
 
 Orbital magnetization related:
   ORBITALMAG=     F  switch on orbital magnetization
   LCHIMAG   =     F  perturbation theory with respect to B field
   DQ        =  0.001000  dq finite difference perturbation B field
   LLRAUG    =     F  two centre corrections for induced B field



--------------------------------------------------------------------------------------------------------


 conjugate gradient relaxation of ions
 charge density and potential will be updated during run
 spin polarized calculation
 RMM-DIIS sequential band-by-band and
  variant of blocked Davidson during initial phase
 perform sub-space diagonalisation
    before iterative eigenvector-optimisation
 modified Broyden-mixing scheme, WC =      100.0
 initial mixing is a Kerker type mixing with AMIX =  0.4000 and BMIX =      1.0000
 Hartree-type preconditioning will be used
 using additional bands           37
 real space projection scheme for non local part
 use partial core corrections
 calculate Harris-corrections to forces 
   (improved forces if not selfconsistent)
 use gradient corrections 
 use of overlap-Matrix (Vanderbilt PP)
 Gauss-broadening in eV      SIGMA  =   0.10


--------------------------------------------------------------------------------------------------------


  energy-cutoff  :      550.00
  volume of cell :     2848.21
      direct lattice vectors                 reciprocal lattice vectors
    14.878307727  0.000105424  0.000000000     0.067211667  0.039178051  0.000000000
    -7.439153864 12.762195204  0.000000000    -0.000000555  0.078356102  0.000000000
     0.000000000  0.000000000 15.000000000     0.000000000  0.000000000  0.066666667

  length of vectors
    14.878307728 14.772089786 15.000000000     0.077796709  0.078356102  0.066666667


 
 k-points in units of 2pi/SCALE and weight: K-Points                                
   0.00000000  0.00000000  0.00000000       0.250
   0.03360583  0.01958903  0.00000000       0.250
  -0.00000028  0.03917805  0.00000000       0.250
   0.03360556  0.05876708  0.00000000       0.250
 
 k-points in reciprocal lattice and weights: K-Points                                
   0.00000000  0.00000000  0.00000000       0.250
   0.50000000  0.00000000  0.00000000       0.250
  -0.00000000  0.50000000  0.00000000       0.250
   0.50000000  0.50000000  0.00000000       0.250
 
 position of ions in fractional coordinates (direct lattice) 
   0.00014703  0.99993181  0.49766807
   0.05571316  0.11129367  0.49774774
   0.16803225  0.00210520  0.49753985
   0.22355821  0.11343998  0.49825115
   0.33432830  0.00207694  0.49777234
   0.39014706  0.11341551  0.49841838
   0.50002407  0.99989044  0.49775648
   0.55582710  0.11125266  0.49767590
   0.66571506  0.99774295  0.49825147
   0.72152612  0.10907882  0.49753824
   0.83231512  0.99776674  0.49841003
   0.88783929  0.10910686  0.49776801
   0.99908442  0.16549374  0.49784405
   0.05430809  0.27667161  0.49853746
   0.16734775  0.16806595  0.49834347
   0.22284185  0.27957445  0.49997583
   0.33528932  0.17029644  0.49941211
   0.39084341  0.28141813  0.50254970
   0.50097822  0.16802960  0.49842000
   0.55697129  0.27954076  0.49998817
   0.66664919  0.16545038  0.49752014
   0.72257294  0.27663324  0.49802908
   0.83255361  0.16485921  0.49764969
   0.88821716  0.27620991  0.49780056
   0.99906908  0.33222521  0.49838447
   0.05442247  0.44382388  0.49884723
   0.16531768  0.33288444  0.50001215
   0.21898612  0.44382270  0.50165224
   0.33514858  0.33773328  0.50339031
   0.38694525  0.44827387  0.50958670
   0.50284791  0.33770682  0.50360105
   0.56160602  0.44823797  0.50998391
   0.66778145  0.33285443  0.49963749
   0.72504010  0.44380782  0.50114295
   0.83335701  0.33221195  0.49791518
   0.88957865  0.44380677  0.49825237
   0.00003314  0.49990030  0.49835048
   0.05573614  0.61130743  0.49834565
   0.16452790  0.49985599  0.50032235
   0.22027264  0.61134265  0.50031499
   0.32877881  0.49923631  0.50514604
   0.38513300  0.61194665  0.50514739
   0.67071104  0.49923365  0.50517220
   0.72707059  0.61195035  0.50517224
   0.83551700  0.49986026  0.49948453
   0.89125350  0.61133457  0.49948422
   0.00136430  0.66739252  0.49824937
   0.05673614  0.77898562  0.49790902
   0.16620335  0.66738054  0.49883406
   0.22244721  0.77897560  0.49837060
   0.33076298  0.66736579  0.50164604
   0.38803591  0.77830247  0.50000539
   0.49425975  0.66291375  0.50958718
   0.55300964  0.77344715  0.50338828
   0.66896610  0.66295341  0.50998288
   0.72073432  0.77348097  0.50359479
   0.83682433  0.66738081  0.50114212
   0.89051054  0.77833045  0.49963539
   0.00151950  0.83455528  0.49802741
   0.05677874  0.94573836  0.49751926
   0.16759972  0.83498348  0.49779087
   0.22328727  0.94632847  0.49764984
   0.33324173  0.83452222  0.49853136
   0.38919606  0.94569806  0.49784785
   0.49886656  0.83160652  0.49997424
   0.55488261  0.94311446  0.49834783
   0.66501623  0.82976534  0.50254304
   0.72058356  0.94088512  0.49940688
   0.83301728  0.83164625  0.49998031
   0.88852543  0.94315192  0.49840894
   0.52788678  0.55561308  0.55407295
 
 position of ions in cartesian coordinates  (Angst):
  -7.43645893 12.76132490  7.46502101
   0.00098677  1.42035737  7.46621609
   2.48437460  0.02688469  7.46309769
   2.48227038  1.44776676  7.47376727
   4.95878870  0.02654158  7.46658504
   4.96101252  1.44747206  7.47627575
   0.00117320 12.76084966  7.46634727
   7.44214093  1.41988678  7.46513856
   2.48235028 12.73346045  7.47377203
   9.92363354  1.39216125  7.46307356
   4.96090025 12.73378160  7.47615045
  12.39788345  1.39253665  7.46652020
  13.63355202  2.11216869  7.46766080
  -1.25019027  3.53094287  7.47806186
   1.23958287  2.14490807  7.47515208
   1.23571236  3.56800714  7.49963746
   3.72167632  2.17339173  7.49118168
   3.72157576  3.59155433  7.53824552
   6.20371007  2.14447940  7.47630003
   6.20724356  3.56761241  7.49982262
   8.68780104  2.11158030  7.46280215
   8.69274532  3.53052356  7.47043619
  11.16057575  2.10405319  7.46474541
  11.16040021  3.52513843  7.46700843
  12.39298273  4.24002833  7.47576708
  -2.49195986  5.66417272  7.48270852
  -0.01673121  4.24835367  7.50018218
  -0.04352248  5.66417505  7.52478359
   2.47399392  4.31025334  7.55085470
   2.42231217  5.72099937  7.64380057
   4.96927299  4.30993342  7.55401582
   5.02123589  5.72055973  7.64975858
   7.45930259  4.24802358  7.49456242
   7.48581505  5.66403852  7.51714419
   9.92756627  4.23984160  7.46872767
   9.93387816  5.66404236  7.47378561
  -3.71834223  6.37982525  7.47525727
  -3.71835051  7.80163060  7.47518475
  -1.27060894  6.37927707  7.50483528
  -1.27058799  7.80209747  7.50472492
   1.17777658  6.37138591  7.57719062
   1.17776199  7.80982318  7.57721079
   6.26516932  6.37138797  7.57758296
   6.26518706  7.80990654  7.57758361
   8.71254167  6.37940228  7.49226792
   8.71253189  7.80206507  7.49226324
  -4.94453714  8.51739379  7.47374059
  -4.95085604  9.94157246  7.46863529
  -2.49192199  8.51725823  7.48251084
  -2.48528121  9.94146208  7.47555906
  -0.04344336  8.51708741  7.52469062
  -0.01659412  9.93288892  7.50008080
   2.42223119  8.46028680  7.64380763
   2.47405524  9.87094181  7.55082413
   5.02127100  8.46081135  7.64974323
   4.96926315  9.87139105  7.55392179
   7.48578134  8.51733237  7.51713176
   7.45916989  9.93329897  7.49453080
  -6.18577746 10.65075751  7.47041111
  -6.19072161 12.06970350  7.46278894
  -3.71797037 10.65623981  7.46686302
  -3.71774635 12.07725221  7.46474766
  -1.25006613 10.65037063  7.47797042
  -1.24461459 12.06922431  7.46771775
   1.23584141 10.61317732  7.49961357
   1.23974067 12.03626939  7.47521740
   3.72156413 10.58969736  7.53814562
   3.72167477 12.00783549  7.49110317
   6.20714301 10.61371955  7.49970466
   6.20350242 12.03678263  7.47613410
   3.72077071  7.09089829  8.31109430
 


--------------------------------------------------------------------------------------------------------


 k-point  1 :   0.0000 0.0000 0.0000  plane waves:   83445
 k-point  2 :   0.5000 0.0000 0.0000  plane waves:   83448
 k-point  3 :  -0.0000 0.5000 0.0000  plane waves:   83436
 k-point  4 :   0.5000 0.5000 0.0000  plane waves:   83444

 maximum and minimum number of plane-waves per node :      6984     6935

 maximum number of plane-waves:     83448
 maximum index in each direction: 
   IXMAX=   28   IYMAX=   28   IZMAX=   28
   IXMIN=  -28   IYMIN=  -28   IZMIN=  -28


 real space projection operators:
  total allocation   :      18579.36 KBytes
  max/ min on nodes  :       1558.48       1535.03


 parallel 3D FFT for wavefunctions:
    minimum data exchange during FFTs selected (reduces bandwidth)
 parallel 3D FFT for charge:
    minimum data exchange during FFTs selected (reduces bandwidth)


 total amount of memory used by VASP MPI-rank0   135460. kBytes
=======================================================================

   base      :      30000. kBytes
   nonlr-proj:      10471. kBytes
   fftplans  :      14072. kBytes
   grid      :      39398. kBytes
   one-center:        186. kBytes
   wavefun   :      41333. kBytes
 
     INWAV:  cpu time    0.0000: real time    0.0001
 Broyden mixing: mesh for mixing (old mesh)
   NGX = 57   NGY = 57   NGZ = 57
  (NGX  =240   NGY  =240   NGZ  =240)
  gives a total of 185193 points

 initial charge density was supplied:
 charge density of overlapping atoms calculated
 number of electron     293.0000000 magnetization       1.0000000
 keeping initial charge density in first step


--------------------------------------------------------------------------------------------------------


 Maximum index for non-local projection operator          609
 Maximum index for augmentation-charges          402 (set IRDMAX)


--------------------------------------------------------------------------------------------------------


 First call to EWALD:  gamma=   0.125
 Maximum number of real-space cells 3x 3x 3
 Maximum number of reciprocal cells 3x 3x 3

    FEWALD:  cpu time    0.0055: real time    0.0056


--------------------------------------- Iteration      1(   1)  ---------------------------------------


    POTLOK:  cpu time    0.5491: real time    0.5775
    SETDIJ:  cpu time    0.0147: real time    0.0151
     EDDAV:  cpu time   16.8325: real time   17.0051
       DOS:  cpu time    0.0011: real time    0.0011
    --------------------------------------------
      LOOP:  cpu time   17.3974: real time   17.5988

 eigenvalue-minimisations  :  3248
 total energy-change (2. order) : 0.2743859E+04  (-0.1173082E+05)
 number of electron     293.0000000 magnetization       1.0000000
 augmentation part      293.0000000 magnetization       1.0000000

 Free energy of the ion-electron system (eV)
  ---------------------------------------------------
  alpha Z        PSCENC =       156.95040625
  Ewald energy   TEWEN  =     30380.60443112
  -Hartree energ DENC   =    -39546.62013024
  -exchange      EXHF   =         0.00000000
  -V(xc)+E(xc)   XCENC  =       982.54738120
  PAW double counting   =      9000.30529238    -9089.18527416
  entropy T*S    EENTRO =        -0.11518189
  eigenvalues    EBANDS =     -1206.38629629
  atomic energy  EATOM  =     12065.75791449
  Solvation  Ediel_sol  =         0.00000000
  ---------------------------------------------------
  free energy    TOTEN  =      2743.85854286 eV

  energy without entropy =     2743.97372475  energy(sigma->0) =     2743.91613381


--------------------------------------------------------------------------------------------------------




--------------------------------------- Iteration      1(   2)  ---------------------------------------


     EDDAV:  cpu time   21.8831: real time   22.1866
       DOS:  cpu time    0.0009: real time    0.0009
    --------------------------------------------
      LOOP:  cpu time   21.8840: real time   22.1875

 eigenvalue-minimisations  :  4304
 total energy-change (2. order) :-0.2915266E+04  (-0.2786382E+04)
 number of electron     293.0000000 magnetization       1.0000000
 augmentation part      293.0000000 magnetization       1.0000000

 Free energy of the ion-electron system (eV)
  ---------------------------------------------------
  alpha Z        PSCENC =       156.95040625
  Ewald energy   TEWEN  =     30380.60443112
  -Hartree energ DENC   =    -39546.62013024
  -exchange      EXHF   =         0.00000000
  -V(xc)+E(xc)   XCENC  =       982.54738120
  PAW double counting   =      9000.30529238    -9089.18527416
  entropy T*S    EENTRO =        -0.03839755
  eigenvalues    EBANDS =     -4121.72864239
  atomic energy  EATOM  =     12065.75791449
  Solvation  Ediel_sol  =         0.00000000
  ---------------------------------------------------
  free energy    TOTEN  =      -171.40701889 eV

  energy without entropy =     -171.36862135  energy(sigma->0) =     -171.38782012


--------------------------------------------------------------------------------------------------------




--------------------------------------- Iteration      1(   3)  ---------------------------------------


     EDDAV:  cpu time   18.5974: real time   18.8362
       DOS:  cpu time    0.0010: real time    0.0010
    --------------------------------------------
      LOOP:  cpu time   18.5984: real time   18.8372

 eigenvalue-minimisations  :  3544
 total energy-change (2. order) :-0.5128434E+03  (-0.5098705E+03)
 number of electron     293.0000000 magnetization       1.0000000
 augmentation part      293.0000000 magnetization       1.0000000

 Free energy of the ion-electron system (eV)
  ---------------------------------------------------
  alpha Z        PSCENC =       156.95040625
  Ewald energy   TEWEN  =     30380.60443112
  -Hartree energ DENC   =    -39546.62013024
  -exchange      EXHF   =         0.00000000
  -V(xc)+E(xc)   XCENC  =       982.54738120
  PAW double counting   =      9000.30529238    -9089.18527416
  entropy T*S    EENTRO =        -0.03864897
  eigenvalues    EBANDS =     -4634.57174995
  atomic energy  EATOM  =     12065.75791449
  Solvation  Ediel_sol  =         0.00000000
  ---------------------------------------------------
  free energy    TOTEN  =      -684.25037788 eV

  energy without entropy =     -684.21172890  energy(sigma->0) =     -684.23105339


--------------------------------------------------------------------------------------------------------




--------------------------------------- Iteration      1(   4)  ---------------------------------------


     EDDAV:  cpu time   18.7656: real time   18.9915
       DOS:  cpu time    0.0009: real time    0.0009
    --------------------------------------------
      LOOP:  cpu time   18.7665: real time   18.9924

 eigenvalue-minimisations  :  3552
 total energy-change (2. order) :-0.1951311E+02  (-0.1936352E+02)
 number of electron     293.0000000 magnetization       1.0000000
 augmentation part      293.0000000 magnetization       1.0000000

 Free energy of the ion-electron system (eV)
  ---------------------------------------------------
  alpha Z        PSCENC =       156.95040625
  Ewald energy   TEWEN  =     30380.60443112
  -Hartree energ DENC   =    -39546.62013024
  -exchange      EXHF   =         0.00000000
  -V(xc)+E(xc)   XCENC  =       982.54738120
  PAW double counting   =      9000.30529238    -9089.18527416
  entropy T*S    EENTRO =        -0.03821949
  eigenvalues    EBANDS =     -4654.08529160
  atomic energy  EATOM  =     12065.75791449
  Solvation  Ediel_sol  =         0.00000000
  ---------------------------------------------------
  free energy    TOTEN  =      -703.76349004 eV

  energy without entropy =     -703.72527055  energy(sigma->0) =     -703.74438030


--------------------------------------------------------------------------------------------------------




--------------------------------------- Iteration      1(   5)  ---------------------------------------


     EDDAV:  cpu time   20.5900: real time   20.7760
       DOS:  cpu time    0.0010: real time    0.0010
    CHARGE:  cpu time    0.9749: real time    0.9899
    MIXING:  cpu time    0.0091: real time    0.0099
    --------------------------------------------
      LOOP:  cpu time   21.5750: real time   21.7768

 eigenvalue-minimisations  :  4024
 total energy-change (2. order) :-0.6261590E+00  (-0.6243540E+00)
 number of electron     292.9999998 magnetization       0.7768768
 augmentation part       11.6644788 magnetization       0.7532314

 Broyden mixing:
  rms(total) = 0.46528E+01    rms(broyden)= 0.46524E+01
  rms(prec ) = 0.54191E+01
  weight for this iteration     100.00

 Free energy of the ion-electron system (eV)
  ---------------------------------------------------
  alpha Z        PSCENC =       156.95040625
  Ewald energy   TEWEN  =     30380.60443112
  -Hartree energ DENC   =    -39546.62013024
  -exchange      EXHF   =         0.00000000
  -V(xc)+E(xc)   XCENC  =       982.54738120
  PAW double counting   =      9000.30529238    -9089.18527416
  entropy T*S    EENTRO =        -0.03856435
  eigenvalues    EBANDS =     -4654.71110578
  atomic energy  EATOM  =     12065.75791449
  Solvation  Ediel_sol  =         0.00000000
  ---------------------------------------------------
  free energy    TOTEN  =      -704.38964908 eV

  energy without entropy =     -704.35108473  energy(sigma->0) =     -704.37036691


--------------------------------------------------------------------------------------------------------




--------------------------------------- Iteration      1(   6)  ---------------------------------------


    POTLOK:  cpu time    0.5284: real time    0.5442
    SETDIJ:  cpu time    0.0152: real time    0.0157
    EDDIAG:  cpu time    3.3580: real time    3.3922
  RMM-DIIS:  cpu time   17.9284: real time   18.0872
    ORTHCH:  cpu time    0.3681: real time    0.3695
       DOS:  cpu time    0.0010: real time    0.0010
    CHARGE:  cpu time    1.0210: real time    1.0360
    MIXING:  cpu time    0.0092: real time    0.0098
    --------------------------------------------
      LOOP:  cpu time   23.2293: real time   23.4555

 eigenvalue-minimisations  :  4107
 total energy-change (2. order) :-0.2825238E+02  (-0.5277366E+02)
 number of electron     293.0000008 magnetization       0.7280134
 augmentation part       17.3761481 magnetization       0.8074501

 Broyden mixing:
  rms(total) = 0.84378E+01    rms(broyden)= 0.84377E+01
  rms(prec ) = 0.93239E+01
  weight for this iteration     100.00

 eigenvalues of (default mixing * dielectric matrix)
  average eigenvalue GAMMA=   0.2140
  0.2140

 Free energy of the ion-electron system (eV)
  ---------------------------------------------------
  alpha Z        PSCENC =       156.95040625
  Ewald energy   TEWEN  =     30380.60443112
  -Hartree energ DENC   =    -39838.59293265
  -exchange      EXHF   =         0.00000000
  -V(xc)+E(xc)   XCENC  =       996.32886744
  PAW double counting   =     15150.13339515   -15238.83924527
  entropy T*S    EENTRO =        -0.02732908
  eigenvalues    EBANDS =     -4404.95753373
  atomic energy  EATOM  =     12065.75791449
  Solvation  Ediel_sol  =         0.00000000
  ---------------------------------------------------
  free energy    TOTEN  =      -732.64202628 eV

  energy without entropy =     -732.61469720  energy(sigma->0) =     -732.62836174


--------------------------------------------------------------------------------------------------------




--------------------------------------- Iteration      1(   7)  ---------------------------------------


    POTLOK:  cpu time    0.5570: real time    0.5666
    SETDIJ:  cpu time    0.0143: real time    0.0146
    EDDIAG:  cpu time    3.2605: real time    3.2983
  RMM-DIIS:  cpu time   13.3338: real time   13.4537
    ORTHCH:  cpu time    0.3728: real time    0.3880
       DOS:  cpu time    0.0009: real time    0.0009
    CHARGE:  cpu time    1.0045: real time    1.0188
    MIXING:  cpu time    0.0095: real time    0.0116
    --------------------------------------------
      LOOP:  cpu time   18.5534: real time   18.7525

 eigenvalue-minimisations  :  3046
 total energy-change (2. order) : 0.7008546E+02  (-0.5344872E+01)
 number of electron     293.0000006 magnetization       0.6193023
 augmentation part       15.2495752 magnetization       0.6162968

 Broyden mixing:
  rms(total) = 0.31884E+01    rms(broyden)= 0.31884E+01
  rms(prec ) = 0.38308E+01
  weight for this iteration     100.00

 eigenvalues of (default mixing * dielectric matrix)
  average eigenvalue GAMMA=   0.4652
  0.5025  0.4279

 Free energy of the ion-electron system (eV)
  ---------------------------------------------------
  alpha Z        PSCENC =       156.95040625
  Ewald energy   TEWEN  =     30380.60443112
  -Hartree energ DENC   =    -39960.27930060
  -exchange      EXHF   =         0.00000000
  -V(xc)+E(xc)   XCENC  =      1000.86156545
  PAW double counting   =     16730.47365172   -16825.98864275
  entropy T*S    EENTRO =        -0.00042400
  eigenvalues    EBANDS =     -4210.93616815
  atomic energy  EATOM  =     12065.75791449
  Solvation  Ediel_sol  =         0.00000000
  ---------------------------------------------------
  free energy    TOTEN  =      -662.55656646 eV

  energy without entropy =     -662.55614247  energy(sigma->0) =     -662.55635446


--------------------------------------------------------------------------------------------------------




--------------------------------------- Iteration      1(   8)  ---------------------------------------


    POTLOK:  cpu time    0.5200: real time    0.5277
    SETDIJ:  cpu time    0.0144: real time    0.0146
    EDDIAG:  cpu time    3.1871: real time    3.2140
  RMM-DIIS:  cpu time   13.7207: real time   13.8342
    ORTHCH:  cpu time    0.5553: real time    0.5800
       DOS:  cpu time    0.0011: real time    0.0011
    CHARGE:  cpu time    1.0175: real time    1.0311
    MIXING:  cpu time    0.0097: real time    0.0103
    --------------------------------------------
      LOOP:  cpu time   19.0258: real time   19.2129

 eigenvalue-minimisations  :  3127
 total energy-change (2. order) : 0.1801214E+00  (-0.2094460E+01)
 number of electron     292.9999999 magnetization       0.3587208
 augmentation part       11.2253373 magnetization       0.2932862

 Broyden mixing:
  rms(total) = 0.28312E+01    rms(broyden)= 0.28309E+01
  rms(prec ) = 0.34753E+01
  weight for this iteration     100.00

 eigenvalues of (default mixing * dielectric matrix)
  average eigenvalue GAMMA=   0.8548
  1.8858  0.3393  0.3393

 Free energy of the ion-electron system (eV)
  ---------------------------------------------------
  alpha Z        PSCENC =       156.95040625
  Ewald energy   TEWEN  =     30380.60443112
  -Hartree energ DENC   =    -40141.39623770
  -exchange      EXHF   =         0.00000000
  -V(xc)+E(xc)   XCENC  =      1007.60215137
  PAW double counting   =     19649.56660848   -19749.09355761
  entropy T*S    EENTRO =        -0.03512239
  eigenvalues    EBANDS =     -4032.33303905
  atomic energy  EATOM  =     12065.75791449
  Solvation  Ediel_sol  =         0.00000000
  ---------------------------------------------------
  free energy    TOTEN  =      -662.37644504 eV

  energy without entropy =     -662.34132265  energy(sigma->0) =     -662.35888385


--------------------------------------------------------------------------------------------------------




--------------------------------------- Iteration      1(   9)  ---------------------------------------


    POTLOK:  cpu time    0.5211: real time    0.5256
    SETDIJ:  cpu time    0.0146: real time    0.0150
    EDDIAG:  cpu time    3.2055: real time    3.2345
  RMM-DIIS:  cpu time   13.1087: real time   13.2230
    ORTHCH:  cpu time    0.6227: real time    0.6241
       DOS:  cpu time    0.0009: real time    0.0009
    CHARGE:  cpu time    1.0229: real time    1.0336
    MIXING:  cpu time    0.0122: real time    0.0124
    --------------------------------------------
      LOOP:  cpu time   18.5085: real time   18.6690

 eigenvalue-minimisations  :  2977
 total energy-change (2. order) : 0.1512445E+02  (-0.2033597E+01)
 number of electron     293.0000002 magnetization       0.2804140
 augmentation part       12.2360411 magnetization       0.2723997

 Broyden mixing:
  rms(total) = 0.11140E+01    rms(broyden)= 0.11138E+01
  rms(prec ) = 0.12452E+01
  weight for this iteration     100.00

 eigenvalues of (default mixing * dielectric matrix)
  average eigenvalue GAMMA=   0.9179
  2.2154  0.7576  0.3492  0.3492

 Free energy of the ion-electron system (eV)
  ---------------------------------------------------
  alpha Z        PSCENC =       156.95040625
  Ewald energy   TEWEN  =     30380.60443112
  -Hartree energ DENC   =    -40447.81715954
  -exchange      EXHF   =         0.00000000
  -V(xc)+E(xc)   XCENC  =      1020.50551557
  PAW double counting   =     27868.93331455   -27971.23212171
  entropy T*S    EENTRO =        -0.01778391
  eigenvalues    EBANDS =     -3720.93650767
  atomic energy  EATOM  =     12065.75791449
  Solvation  Ediel_sol  =         0.00000000
  ---------------------------------------------------
  free energy    TOTEN  =      -647.25199084 eV

  energy without entropy =     -647.23420693  energy(sigma->0) =     -647.24309888


--------------------------------------------------------------------------------------------------------




--------------------------------------- Iteration      1(  10)  ---------------------------------------


    POTLOK:  cpu time    0.5283: real time    0.5330
    SETDIJ:  cpu time    0.0143: real time    0.0146
    EDDIAG:  cpu time    3.2307: real time    3.2563
  RMM-DIIS:  cpu time   13.1627: real time   13.2831
    ORTHCH:  cpu time    0.3908: real time    0.4008
       DOS:  cpu time    0.0010: real time    0.0010
    CHARGE:  cpu time    0.9774: real time    0.9884
    MIXING:  cpu time    0.0104: real time    0.0104
    --------------------------------------------
      LOOP:  cpu time   18.3156: real time   18.4876

 eigenvalue-minimisations  :  3000
 total energy-change (2. order) :-0.6357914E+00  (-0.2799970E+00)
 number of electron     293.0000005 magnetization       0.2253621
 augmentation part       13.7369327 magnetization       0.2496915

 Broyden mixing:
  rms(total) = 0.14172E+01    rms(broyden)= 0.14168E+01
  rms(prec ) = 0.17604E+01
  weight for this iteration     100.00

 eigenvalues of (default mixing * dielectric matrix)
  average eigenvalue GAMMA=   0.9182
  2.3407  1.0622  0.3465  0.3465  0.4952

 Free energy of the ion-electron system (eV)
  ---------------------------------------------------
  alpha Z        PSCENC =       156.95040625
  Ewald energy   TEWEN  =     30380.60443112
  -Hartree energ DENC   =    -40490.57614921
  -exchange      EXHF   =         0.00000000
  -V(xc)+E(xc)   XCENC  =      1021.38953743
  PAW double counting   =     29341.21497571   -29442.36310801
  entropy T*S    EENTRO =        -0.00267631
  eigenvalues    EBANDS =     -3680.86311367
  atomic energy  EATOM  =     12065.75791449
  Solvation  Ediel_sol  =         0.00000000
  ---------------------------------------------------
  free energy    TOTEN  =      -647.88778219 eV

  energy without entropy =     -647.88510588  energy(sigma->0) =     -647.88644404


--------------------------------------------------------------------------------------------------------




--------------------------------------- Iteration      1(  11)  ---------------------------------------


    POTLOK:  cpu time    0.5414: real time    0.5464
    SETDIJ:  cpu time    0.0150: real time    0.0151
    EDDIAG:  cpu time    3.2797: real time    3.3098
  RMM-DIIS:  cpu time   13.6600: real time   13.7663
    ORTHCH:  cpu time    0.5064: real time    0.5086
       DOS:  cpu time    0.0010: real time    0.0010
    CHARGE:  cpu time    1.0154: real time    1.0288
    MIXING:  cpu time    0.0111: real time    0.0111
    --------------------------------------------
      LOOP:  cpu time   19.0301: real time   19.1871

 eigenvalue-minimisations  :  3114
 total energy-change (2. order) : 0.1166833E+01  (-0.4026504E-01)
 number of electron     293.0000003 magnetization       0.1839408
 augmentation part       12.5781831 magnetization       0.1057160

 Broyden mixing:
  rms(total) = 0.72759E+00    rms(broyden)= 0.72710E+00
  rms(prec ) = 0.76591E+00
  weight for this iteration     100.00

 eigenvalues of (default mixing * dielectric matrix)
  average eigenvalue GAMMA=   0.9821
  2.1041  2.1041  0.6210  0.3448  0.3448  0.3739

 Free energy of the ion-electron system (eV)
  ---------------------------------------------------
  alpha Z        PSCENC =       156.95040625
  Ewald energy   TEWEN  =     30380.60443112
  -Hartree energ DENC   =    -40523.47412802
  -exchange      EXHF   =         0.00000000
  -V(xc)+E(xc)   XCENC  =      1021.80454172
  PAW double counting   =     29992.46589433   -30092.93865364
  entropy T*S    EENTRO =        -0.05305432
  eigenvalues    EBANDS =     -3647.83830091
  atomic energy  EATOM  =     12065.75791449
  Solvation  Ediel_sol  =         0.00000000
  ---------------------------------------------------
  free energy    TOTEN  =      -646.72094899 eV

  energy without entropy =     -646.66789466  energy(sigma->0) =     -646.69442183


--------------------------------------------------------------------------------------------------------




--------------------------------------- Iteration      1(  12)  ---------------------------------------


    POTLOK:  cpu time    0.5238: real time    0.5306
    SETDIJ:  cpu time    0.0150: real time    0.0152
    EDDIAG:  cpu time    3.2926: real time    3.3217
  RMM-DIIS:  cpu time   12.8853: real time   12.9880
    ORTHCH:  cpu time    0.7492: real time    0.7512
       DOS:  cpu time    0.0010: real time    0.0010
    CHARGE:  cpu time    1.0157: real time    1.0306
    MIXING:  cpu time    0.0127: real time    0.0128
    --------------------------------------------
      LOOP:  cpu time   18.4953: real time   18.6509

 eigenvalue-minimisations  :  2944
 total energy-change (2. order) : 0.8582583E-02  (-0.1723420E-01)
 number of electron     293.0000004 magnetization       0.1822296
 augmentation part       12.9636842 magnetization      -0.2474806

 Broyden mixing:
  rms(total) = 0.69753E+00    rms(broyden)= 0.69726E+00
  rms(prec ) = 0.73437E+00
  weight for this iteration     100.00

 eigenvalues of (default mixing * dielectric matrix)
  average eigenvalue GAMMA=   0.8460
  2.1079  2.1079  0.5976  0.3450  0.3450  0.3727  0.0459

 Free energy of the ion-electron system (eV)
  ---------------------------------------------------
  alpha Z        PSCENC =       156.95040625
  Ewald energy   TEWEN  =     30380.60443112
  -Hartree energ DENC   =    -40550.31275624
  -exchange      EXHF   =         0.00000000
  -V(xc)+E(xc)   XCENC  =      1021.41077377
  PAW double counting   =     30447.33360039   -30546.24908471
  entropy T*S    EENTRO =        -0.04162657
  eigenvalues    EBANDS =     -3622.16602490
  atomic energy  EATOM  =     12065.75791449
  Solvation  Ediel_sol  =         0.00000000
  ---------------------------------------------------
  free energy    TOTEN  =      -646.71236640 eV

  energy without entropy =     -646.67073983  energy(sigma->0) =     -646.69155312


--------------------------------------------------------------------------------------------------------




--------------------------------------- Iteration      1(  13)  ---------------------------------------


    POTLOK:  cpu time    0.5242: real time    0.5292
    SETDIJ:  cpu time    0.0145: real time    0.0147
    EDDIAG:  cpu time    3.2404: real time    3.2646
  RMM-DIIS:  cpu time   13.1485: real time   13.2556
    ORTHCH:  cpu time    0.3780: real time    0.3884
       DOS:  cpu time    0.0010: real time    0.0010
    CHARGE:  cpu time    0.9972: real time    1.0055
    MIXING:  cpu time    0.0132: real time    0.0136
    --------------------------------------------
      LOOP:  cpu time   18.3170: real time   18.4725

 eigenvalue-minimisations  :  3022
 total energy-change (2. order) :-0.8875805E-02  (-0.1867381E-02)
 number of electron     293.0000004 magnetization       0.1609041
 augmentation part       12.9500080 magnetization      -0.3023792

 Broyden mixing:
  rms(total) = 0.71759E+00    rms(broyden)= 0.71757E+00
  rms(prec ) = 0.74848E+00
  weight for this iteration     100.00

 eigenvalues of (default mixing * dielectric matrix)
  average eigenvalue GAMMA=   0.8157
  2.2312  2.2312  0.6844  0.3455  0.3455  0.3793  0.1544  0.1544

 Free energy of the ion-electron system (eV)
  ---------------------------------------------------
  alpha Z        PSCENC =       156.95040625
  Ewald energy   TEWEN  =     30380.60443112
  -Hartree energ DENC   =    -40550.17769370
  -exchange      EXHF   =         0.00000000
  -V(xc)+E(xc)   XCENC  =      1021.41048680
  PAW double counting   =     30447.44619168   -30546.32860169
  entropy T*S    EENTRO =        -0.03676944
  eigenvalues    EBANDS =     -3622.34760773
  atomic energy  EATOM  =     12065.75791449
  Solvation  Ediel_sol  =         0.00000000
  ---------------------------------------------------
  free energy    TOTEN  =      -646.72124221 eV

  energy without entropy =     -646.68447277  energy(sigma->0) =     -646.70285749


--------------------------------------------------------------------------------------------------------




--------------------------------------- Iteration      1(  14)  ---------------------------------------


    POTLOK:  cpu time    0.5294: real time    0.5338
    SETDIJ:  cpu time    0.0205: real time    0.0207
    EDDIAG:  cpu time    3.2318: real time    3.2574
  RMM-DIIS:  cpu time   12.9040: real time   13.0099
    ORTHCH:  cpu time    0.4261: real time    0.4270
       DOS:  cpu time    0.0010: real time    0.0010
    CHARGE:  cpu time    0.9813: real time    0.9889
    MIXING:  cpu time    0.0131: real time    0.0132
    --------------------------------------------
      LOOP:  cpu time   18.1073: real time   18.2519

 eigenvalue-minimisations  :  2973
 total energy-change (2. order) : 0.1045957E+00  (-0.2626918E-02)
 number of electron     293.0000003 magnetization       0.1387799
 augmentation part       12.8303067 magnetization      -0.2974558

 Broyden mixing:
  rms(total) = 0.67092E+00    rms(broyden)= 0.67091E+00
  rms(prec ) = 0.68064E+00
  weight for this iteration     100.00

 eigenvalues of (default mixing * dielectric matrix)
  average eigenvalue GAMMA=   0.8103
  2.2497  2.2497  0.6802  0.4093  0.4093  0.3385  0.3385  0.3918  0.2256

 Free energy of the ion-electron system (eV)
  ---------------------------------------------------
  alpha Z        PSCENC =       156.95040625
  Ewald energy   TEWEN  =     30380.60443112
  -Hartree energ DENC   =    -40559.55673765
  -exchange      EXHF   =         0.00000000
  -V(xc)+E(xc)   XCENC  =      1021.43446600
  PAW double counting   =     30562.29663779   -30660.90048252
  entropy T*S    EENTRO =        -0.04440786
  eigenvalues    EBANDS =     -3613.15887412
  atomic energy  EATOM  =     12065.75791449
  Solvation  Ediel_sol  =         0.00000000
  ---------------------------------------------------
  free energy    TOTEN  =      -646.61664650 eV

  energy without entropy =     -646.57223864  energy(sigma->0) =     -646.59444257


--------------------------------------------------------------------------------------------------------




--------------------------------------- Iteration      1(  15)  ---------------------------------------


    POTLOK:  cpu time    0.5451: real time    0.5506
    SETDIJ:  cpu time    0.0205: real time    0.0206
    EDDIAG:  cpu time    3.2341: real time    3.2590
  RMM-DIIS:  cpu time   12.9695: real time   13.0804
    ORTHCH:  cpu time    0.3770: real time    0.3800
       DOS:  cpu time    0.0011: real time    0.0011
    CHARGE:  cpu time    1.0152: real time    1.0280
    MIXING:  cpu time    0.0120: real time    0.0122
    --------------------------------------------
      LOOP:  cpu time   18.1746: real time   18.3319

 eigenvalue-minimisations  :  2953
 total energy-change (2. order) :-0.1662339E-01  (-0.4068715E-02)
 number of electron     293.0000004 magnetization       0.1229253
 augmentation part       13.0064456 magnetization      -0.2969624

 Broyden mixing:
  rms(total) = 0.73951E+00    rms(broyden)= 0.73950E+00
  rms(prec ) = 0.78003E+00
  weight for this iteration     100.00

 eigenvalues of (default mixing * dielectric matrix)
  average eigenvalue GAMMA=   0.7402
  2.2496  2.2496  0.6833  0.3626  0.3626  0.3355  0.3355  0.3921  0.2698  0.1612

 Free energy of the ion-electron system (eV)
  ---------------------------------------------------
  alpha Z        PSCENC =       156.95040625
  Ewald energy   TEWEN  =     30380.60443112
  -Hartree energ DENC   =    -40571.78228373
  -exchange      EXHF   =         0.00000000
  -V(xc)+E(xc)   XCENC  =      1021.57107639
  PAW double counting   =     30609.90797036   -30708.36419042
  entropy T*S    EENTRO =        -0.03497014
  eigenvalues    EBANDS =     -3601.24362421
  atomic energy  EATOM  =     12065.75791449
  Solvation  Ediel_sol  =         0.00000000
  ---------------------------------------------------
  free energy    TOTEN  =      -646.63326989 eV

  energy without entropy =     -646.59829975  energy(sigma->0) =     -646.61578482


--------------------------------------------------------------------------------------------------------




--------------------------------------- Iteration      1(  16)  ---------------------------------------


    POTLOK:  cpu time    0.4301: real time    0.4343
    SETDIJ:  cpu time    0.0147: real time    0.0149
    EDDIAG:  cpu time    3.2716: real time    3.3037
  RMM-DIIS:  cpu time   13.4059: real time   13.5147
    ORTHCH:  cpu time    0.4613: real time    0.4767
       DOS:  cpu time    0.0012: real time    0.0012
    CHARGE:  cpu time    1.0047: real time    1.0170
    MIXING:  cpu time    0.0127: real time    0.0128
    --------------------------------------------
      LOOP:  cpu time   18.6022: real time   18.7752

 eigenvalue-minimisations  :  3092
 total energy-change (2. order) : 0.3224938E-01  (-0.4566903E-02)
 number of electron     293.0000003 magnetization       0.1245442
 augmentation part       12.7652389 magnetization      -0.1379972

 Broyden mixing:
  rms(total) = 0.54393E+00    rms(broyden)= 0.54388E+00
  rms(prec ) = 0.55442E+00
  weight for this iteration     100.00

 eigenvalues of (default mixing * dielectric matrix)
  average eigenvalue GAMMA=   0.7467
  2.2370  2.2370  0.5251  0.5251  0.7076  0.3526  0.3526  0.4118  0.3611  0.2519
  0.2519

 Free energy of the ion-electron system (eV)
  ---------------------------------------------------
  alpha Z        PSCENC =       156.95040625
  Ewald energy   TEWEN  =     30380.60443112
  -Hartree energ DENC   =    -40586.81230599
  -exchange      EXHF   =         0.00000000
  -V(xc)+E(xc)   XCENC  =      1021.72520128
  PAW double counting   =     30636.63444676   -30734.95971308
  entropy T*S    EENTRO =        -0.05250570
  eigenvalues    EBANDS =     -3586.44889563
  atomic energy  EATOM  =     12065.75791449
  Solvation  Ediel_sol  =         0.00000000
  ---------------------------------------------------
  free energy    TOTEN  =      -646.60102051 eV

  energy without entropy =     -646.54851481  energy(sigma->0) =     -646.57476766


--------------------------------------------------------------------------------------------------------




--------------------------------------- Iteration      1(  17)  ---------------------------------------


    POTLOK:  cpu time    0.5245: real time    0.5299
    SETDIJ:  cpu time    0.0133: real time    0.0134
    EDDIAG:  cpu time    3.2613: real time    3.2986
  RMM-DIIS:  cpu time   13.0813: real time   13.1825
    ORTHCH:  cpu time    0.4057: real time    0.4078
       DOS:  cpu time    0.0010: real time    0.0011
    CHARGE:  cpu time    1.0267: real time    1.0362
    MIXING:  cpu time    0.0138: real time    0.0144
    --------------------------------------------
      LOOP:  cpu time   18.3278: real time   18.4839

 eigenvalue-minimisations  :  2990
 total energy-change (2. order) :-0.3273465E-01  (-0.1588103E-02)
 number of electron     293.0000003 magnetization       0.1423574
 augmentation part       12.7700125 magnetization      -0.1127782

 Broyden mixing:
  rms(total) = 0.49874E+00    rms(broyden)= 0.49874E+00
  rms(prec ) = 0.50790E+00
  weight for this iteration     100.00

 eigenvalues of (default mixing * dielectric matrix)
  average eigenvalue GAMMA=   0.7883
  2.2306  2.2306  0.9683  0.9683  0.7060  0.3823  0.3464  0.3464  0.4042  0.4042
  0.2361  0.2361

 Free energy of the ion-electron system (eV)
  ---------------------------------------------------
  alpha Z        PSCENC =       156.95040625
  Ewald energy   TEWEN  =     30380.60443112
  -Hartree energ DENC   =    -40594.38485778
  -exchange      EXHF   =         0.00000000
  -V(xc)+E(xc)   XCENC  =      1021.82358019
  PAW double counting   =     30627.24635696   -30725.54620315
  entropy T*S    EENTRO =        -0.04996329
  eigenvalues    EBANDS =     -3579.03541995
  atomic energy  EATOM  =     12065.75791449
  Solvation  Ediel_sol  =         0.00000000
  ---------------------------------------------------
  free energy    TOTEN  =      -646.63375516 eV

  energy without entropy =     -646.58379187  energy(sigma->0) =     -646.60877352


--------------------------------------------------------------------------------------------------------




--------------------------------------- Iteration      1(  18)  ---------------------------------------


    POTLOK:  cpu time    0.5385: real time    0.5425
    SETDIJ:  cpu time    0.0145: real time    0.0145
    EDDIAG:  cpu time    3.2328: real time    3.2581
  RMM-DIIS:  cpu time   12.9263: real time   13.0328
    ORTHCH:  cpu time    0.3431: real time    0.3448
       DOS:  cpu time    0.0010: real time    0.0010
    CHARGE:  cpu time    0.9850: real time    0.9922
    MIXING:  cpu time    0.0145: real time    0.0148
    --------------------------------------------
      LOOP:  cpu time   18.0557: real time   18.2007

 eigenvalue-minimisations  :  2963
 total energy-change (2. order) :-0.3159084E-01  (-0.1098141E-02)
 number of electron     293.0000003 magnetization       0.1878920
 augmentation part       12.7711095 magnetization      -0.0778090

 Broyden mixing:
  rms(total) = 0.44247E+00    rms(broyden)= 0.44247E+00
  rms(prec ) = 0.45074E+00
  weight for this iteration     100.00

 eigenvalues of (default mixing * dielectric matrix)
  average eigenvalue GAMMA=   0.8964
  2.2323  2.2323  1.5341  1.5341  0.6716  0.6716  0.6226  0.6226  0.3463  0.3463
  0.3744  0.2324  0.2324

 Free energy of the ion-electron system (eV)
  ---------------------------------------------------
  alpha Z        PSCENC =       156.95040625
  Ewald energy   TEWEN  =     30380.60443112
  -Hartree energ DENC   =    -40600.12027043
  -exchange      EXHF   =         0.00000000
  -V(xc)+E(xc)   XCENC  =      1021.90081130
  PAW double counting   =     30596.14427544   -30694.47499892
  entropy T*S    EENTRO =        -0.04903406
  eigenvalues    EBANDS =     -3573.37888119
  atomic energy  EATOM  =     12065.75791449
  Solvation  Ediel_sol  =         0.00000000
  ---------------------------------------------------
  free energy    TOTEN  =      -646.66534600 eV

  energy without entropy =     -646.61631194  energy(sigma->0) =     -646.64082897


--------------------------------------------------------------------------------------------------------




--------------------------------------- Iteration      1(  19)  ---------------------------------------


    POTLOK:  cpu time    0.5582: real time    0.5636
    SETDIJ:  cpu time    0.0151: real time    0.0151
    EDDIAG:  cpu time    3.2312: real time    3.2564
  RMM-DIIS:  cpu time   12.8158: real time   12.9146
    ORTHCH:  cpu time    0.3532: real time    0.3552
       DOS:  cpu time    0.0009: real time    0.0009
    CHARGE:  cpu time    0.9903: real time    1.0086
    MIXING:  cpu time    0.0197: real time    0.0200
    --------------------------------------------
      LOOP:  cpu time   17.9844: real time   18.1346

 eigenvalue-minimisations  :  2950
 total energy-change (2. order) :-0.2564501E-01  (-0.2108300E-02)
 number of electron     293.0000003 magnetization       0.2338828
 augmentation part       12.7275744 magnetization      -0.0003051

 Broyden mixing:
  rms(total) = 0.34523E+00    rms(broyden)= 0.34522E+00
  rms(prec ) = 0.35707E+00
  weight for this iteration     100.00

 eigenvalues of (default mixing * dielectric matrix)
  average eigenvalue GAMMA=   0.9007
  2.3238  2.3238  1.4877  1.4877  0.8249  0.8249  0.6911  0.5549  0.5549  0.3464
  0.3464  0.3786  0.2326  0.2326

 Free energy of the ion-electron system (eV)
  ---------------------------------------------------
  alpha Z        PSCENC =       156.95040625
  Ewald energy   TEWEN  =     30380.60443112
  -Hartree energ DENC   =    -40621.27593008
  -exchange      EXHF   =         0.00000000
  -V(xc)+E(xc)   XCENC  =      1022.14960940
  PAW double counting   =     30585.52537858   -30683.78735967
  entropy T*S    EENTRO =        -0.04959291
  eigenvalues    EBANDS =     -3552.56584820
  atomic energy  EATOM  =     12065.75791449
  Solvation  Ediel_sol  =         0.00000000
  ---------------------------------------------------
  free energy    TOTEN  =      -646.69099101 eV

  energy without entropy =     -646.64139810  energy(sigma->0) =     -646.66619456


--------------------------------------------------------------------------------------------------------




--------------------------------------- Iteration      1(  20)  ---------------------------------------


    POTLOK:  cpu time    0.5323: real time    0.5364
    SETDIJ:  cpu time    0.0143: real time    0.0144
    EDDIAG:  cpu time    3.2388: real time    3.2664
  RMM-DIIS:  cpu time   12.9162: real time   13.0214
    ORTHCH:  cpu time    0.2370: real time    0.2378
       DOS:  cpu time    0.0010: real time    0.0010
    CHARGE:  cpu time    0.9843: real time    0.9934
    MIXING:  cpu time    0.0153: real time    0.0156
    --------------------------------------------
      LOOP:  cpu time   17.9392: real time   18.0864

 eigenvalue-minimisations  :  2966
 total energy-change (2. order) :-0.2113213E-01  (-0.1290463E-02)
 number of electron     293.0000003 magnetization       0.3162936
 augmentation part       12.6729828 magnetization       0.1153848

 Broyden mixing:
  rms(total) = 0.28966E+00    rms(broyden)= 0.28966E+00
  rms(prec ) = 0.31397E+00
  weight for this iteration     100.00

 eigenvalues of (default mixing * dielectric matrix)
  average eigenvalue GAMMA=   0.9436
  2.3613  2.3613  1.6482  1.6482  0.8975  0.8975  0.8657  0.7752  0.5825  0.5825
  0.3463  0.3463  0.3762  0.2326  0.2326

 Free energy of the ion-electron system (eV)
  ---------------------------------------------------
  alpha Z        PSCENC =       156.95040625
  Ewald energy   TEWEN  =     30380.60443112
  -Hartree energ DENC   =    -40637.46885971
  -exchange      EXHF   =         0.00000000
  -V(xc)+E(xc)   XCENC  =      1022.31708250
  PAW double counting   =     30569.85230063   -30668.05977069
  entropy T*S    EENTRO =        -0.04948358
  eigenvalues    EBANDS =     -3536.61614416
  atomic energy  EATOM  =     12065.75791449
  Solvation  Ediel_sol  =         0.00000000
  ---------------------------------------------------
  free energy    TOTEN  =      -646.71212315 eV

  energy without entropy =     -646.66263957  energy(sigma->0) =     -646.68738136


[...]
  E(xc)   -1110.97026 -1110.65600 -1150.10221    -0.00308    -0.00331    -0.00957
  Local  -83772.40065-83721.21398 86077.97283    -8.48130     8.84322    13.02192
  n-local  -289.13826  -286.65798  -269.28720    -0.16858    -0.06769     0.16855
  augment    66.30822    65.03082    65.79302    -0.05130     0.06608     0.50434
  Kinetic  4383.09577  4371.14227  4984.08483     0.43997     0.44666     1.04670
  Fock        0.00000     0.00000     0.00000     0.00000     0.00000     0.00000
  vdW        -1.54088    -1.67974    -0.04223     0.00170    -0.00031     0.02304
  -------------------------------------------------------------------------------------
  Total      -0.30126    -0.32751    -0.75199    -0.00070    -0.01447    -0.02373
  in kB      -0.16977    -0.18456    -0.42378    -0.00040    -0.00815    -0.01337
  external pressure =       -0.26 kB  Pullay stress =        0.00 kB


 VOLUME and BASIS-vectors are now :
 -----------------------------------------------------------------------------
  energy-cutoff  :      550.00
  volume of cell :     2843.07
      direct lattice vectors                 reciprocal lattice vectors
    14.864909407  0.003627638  0.000000000     0.067262956  0.039213486  0.000000000
    -7.432454703 12.748901734  0.000000000    -0.000019139  0.078426971  0.000000000
     0.000000000  0.000000000 15.000000000     0.000000000  0.000000000  0.066666667

  length of vectors
    14.864909849 14.757231392 15.000000000     0.077858864  0.078426973  0.066666667


 FORCES acting on ions
    electron-ion (+dipol)            ewald-force                    non-local-force                 convergence-correction
 -----------------------------------------------------------------------------------------------
   0.189E+01 -.445E+01 0.797E+01   -.198E+01 0.470E+01 -.801E+01   0.994E-01 -.241E+00 0.272E-01   0.899E-03 0.183E-03 0.878E-03
   -.172E+01 -.524E+00 0.744E+01   0.179E+01 0.741E+00 -.747E+01   -.539E-01 -.227E+00 0.263E-01   -.200E-03 0.108E-02 0.112E-03
   0.562E+00 -.146E+01 0.722E+01   -.403E+00 0.175E+01 -.724E+01   -.162E+00 -.309E+00 0.245E-01   -.601E-03 0.207E-03 -.361E-03
   -.273E+01 -.196E+00 0.733E+01   0.284E+01 0.411E+00 -.734E+01   -.106E+00 -.221E+00 0.635E-02   -.116E-02 0.153E-02 0.224E-03
   -.114E+01 -.176E+00 0.685E+01   0.120E+01 0.346E+00 -.687E+01   -.614E-01 -.164E+00 0.232E-01   -.165E-02 0.226E-03 0.121E-02
   0.767E+00 0.546E+00 0.673E+01   -.847E+00 -.416E+00 -.674E+01   0.806E-01 -.115E+00 -.467E-02   -.699E-03 -.853E-03 0.948E-03
   -.201E+01 -.501E+00 0.754E+01   0.208E+01 0.460E+00 -.757E+01   -.620E-01 0.351E-01 0.252E-01   0.357E-04 -.129E-02 -.186E-03
   0.184E+01 0.671E+00 0.775E+01   -.194E+01 -.653E+00 -.778E+01   0.998E-01 -.314E-01 0.289E-01   0.489E-03 -.572E-03 -.108E-03
   -.865E+00 -.865E+00 0.731E+01   0.878E+00 0.819E+00 -.733E+01   -.204E-01 0.411E-01 0.911E-02   0.567E-03 -.159E-02 0.704E-04
   0.111E+01 -.161E+00 0.731E+01   -.106E+01 0.534E-01 -.733E+01   -.395E-01 0.107E+00 0.266E-01   -.442E-03 -.333E-03 -.600E-04
   0.172E+01 -.244E+01 0.667E+01   -.193E+01 0.250E+01 -.666E+01   0.210E+00 -.816E-01 -.189E-01   0.628E-03 0.300E-03 0.180E-02
   0.574E+00 -.812E+00 0.658E+01   -.620E+00 0.804E+00 -.661E+01   0.286E-01 -.124E-01 0.201E-01   -.301E-05 -.400E-03 0.113E-02
   0.216E+01 0.330E+01 0.718E+01   -.218E+01 -.328E+01 -.720E+01   0.281E-01 -.252E-01 0.182E-01   0.155E-02 0.200E-03 0.825E-03
   0.231E+01 0.316E+01 0.662E+01   -.222E+01 -.317E+01 -.664E+01   -.959E-01 0.105E-01 0.168E-01   0.181E-02 0.537E-03 0.819E-03
   0.161E+01 0.445E+01 0.827E+01   -.154E+01 -.427E+01 -.829E+01   -.865E-01 -.165E+00 0.190E-01   0.987E-03 0.740E-03 0.166E-04
   -.168E+01 0.693E+01 0.102E+02   0.213E+01 -.667E+01 -.104E+02   -.460E+00 -.238E+00 0.133E+00   -.978E-04 0.179E-02 0.832E-03
   0.445E+00 0.530E+01 0.748E+01   -.424E+00 -.488E+01 -.750E+01   -.229E-01 -.435E+00 0.231E-01   -.139E-02 0.903E-03 0.150E-02
   -.196E+01 0.851E+01 0.719E+01   0.196E+01 -.789E+01 -.680E+01   0.382E-02 -.623E+00 -.388E+00   -.115E-02 0.188E-02 0.204E-02
   -.157E+01 0.494E+01 0.816E+01   0.149E+01 -.487E+01 -.818E+01   0.999E-01 -.738E-01 0.155E-01   0.126E-03 0.113E-02 0.550E-03
   0.336E+01 0.900E+01 0.990E+01   -.398E+01 -.883E+01 -.100E+02   0.631E+00 -.149E+00 0.106E+00   -.251E-03 -.208E-02 0.444E-03
   -.188E+01 0.536E+01 0.765E+01   0.192E+01 -.549E+01 -.766E+01   -.453E-01 0.153E+00 0.118E-01   -.497E-03 -.859E-03 -.328E-03
   -.226E+01 0.518E+01 0.760E+01   0.227E+01 -.535E+01 -.763E+01   -.204E-02 0.188E+00 0.255E-01   -.205E-02 0.924E-03 0.194E-03
   -.540E+00 0.190E+01 0.611E+01   0.514E+00 -.197E+01 -.610E+01   0.274E-01 0.610E-01 -.159E-01   0.593E-03 -.332E-03 0.945E-03
   0.616E-01 0.367E+01 0.628E+01   -.567E-02 -.377E+01 -.631E+01   -.640E-01 0.102E+00 0.245E-01   0.711E-03 0.130E-02 0.148E-02
   0.533E+00 0.447E+01 0.574E+01   -.439E+00 -.455E+01 -.573E+01   -.779E-01 0.820E-01 -.202E-01   -.100E-02 0.144E-02 0.189E-02
   0.230E+01 0.453E+01 0.626E+01   -.211E+01 -.464E+01 -.631E+01   -.198E+00 0.997E-01 0.446E-01   0.674E-03 0.146E-02 0.143E-02
   0.395E+01 0.988E+01 0.634E+01   -.374E+01 -.991E+01 -.632E+01   -.219E+00 0.347E-01 -.267E-01   0.142E-02 0.185E-02 -.593E-03
   0.118E+02 0.722E+01 0.429E+01   -.116E+02 -.716E+01 -.437E+01   -.210E+00 -.683E-01 0.852E-01   0.204E-02 0.328E-03 -.213E-02
   0.377E-01 0.197E+02 0.138E+02   0.240E+00 -.188E+02 -.141E+02   -.302E+00 -.839E+00 0.223E+00   0.170E-02 0.205E-02 0.290E-02
   -.516E+01 0.382E+02 0.284E+02   0.113E+02 -.349E+02 -.275E+02   -.621E+01 -.336E+01 -.953E+00   0.667E-02 0.812E-02 0.572E-02
   0.203E+01 0.183E+02 0.113E+02   -.242E+01 -.173E+02 -.115E+02   0.395E+00 -.994E+00 0.211E+00   -.211E-02 0.173E-03 -.871E-03
   0.812E+01 0.367E+02 0.201E+02   -.148E+02 -.332E+02 -.189E+02   0.675E+01 -.355E+01 -.120E+01   -.805E-02 0.762E-02 -.173E-02
   -.368E+01 0.134E+02 0.802E+01   0.345E+01 -.139E+02 -.797E+01   0.235E+00 0.490E+00 -.556E-01   0.161E-02 -.263E-02 0.163E-02
   -.117E+02 0.165E+02 0.963E+01   0.113E+02 -.171E+02 -.975E+01   0.415E+00 0.583E+00 0.121E+00   -.366E-03 0.260E-02 0.250E-02
   -.248E+01 0.506E+01 0.639E+01   0.250E+01 -.530E+01 -.638E+01   -.270E-01 0.246E+00 -.159E-01   -.154E-03 0.120E-02 0.390E-03
   -.398E+01 0.766E+01 0.693E+01   0.446E+01 -.804E+01 -.697E+01   -.482E+00 0.384E+00 0.263E-01   -.228E-03 0.229E-03 0.682E-03
   -.379E+01 0.244E+01 0.635E+01   0.402E+01 -.259E+01 -.637E+01   -.231E+00 0.143E+00 0.178E-01   0.280E-03 -.234E-03 0.837E-03
   -.386E+01 -.510E+00 0.605E+01   0.441E+01 0.207E+00 -.606E+01   -.552E+00 0.283E+00 0.887E-02   0.508E-03 0.127E-02 0.516E-03
   0.471E+01 0.155E+01 0.397E+01   -.454E+01 -.156E+01 -.392E+01   -.128E+00 0.299E-05 -.477E-01   -.960E-03 0.199E-02 -.440E-03
   0.497E+01 -.127E+01 0.418E+01   -.479E+01 0.123E+01 -.413E+01   -.187E+00 0.301E-01 -.375E-01   0.163E-02 -.135E-02 -.213E-03
   0.266E+02 0.106E+02 0.141E+02   -.259E+02 -.111E+02 -.148E+02   -.689E+00 0.506E+00 0.719E+00   0.245E-02 0.351E-02 0.107E-02
   0.268E+02 -.100E+02 0.147E+02   -.261E+02 0.105E+02 -.153E+02   -.666E+00 -.495E+00 0.652E+00   0.237E-02 -.292E-02 0.274E-02
   -.154E+02 0.170E+02 0.133E+02   0.140E+02 -.188E+02 -.137E+02   0.146E+01 0.180E+01 0.405E+00   -.175E-02 0.132E-02 -.294E-02
   0.157E+01 0.623E+01 0.851E+01   -.805E+01 -.878E+01 -.831E+01   0.651E+01 0.254E+01 -.159E+00   -.462E-02 -.196E-02 -.792E-02
   -.121E+02 0.106E+02 0.715E+01   0.122E+02 -.119E+02 -.716E+01   -.199E+00 0.135E+01 -.136E-02   -.511E-03 -.241E-02 0.226E-02
   -.290E+02 0.124E+02 0.742E+01   0.342E+02 -.155E+02 -.749E+01   -.528E+01 0.309E+01 0.560E-01   -.420E-03 0.233E-02 0.142E-02
   -.139E+02 -.233E+01 0.647E+01   0.152E+02 0.279E+01 -.649E+01   -.126E+01 -.437E+00 0.179E-01   0.150E-03 -.582E-03 -.750E-04
   -.848E+01 -.844E+01 0.577E+01   0.915E+01 0.889E+01 -.577E+01   -.661E+00 -.433E+00 -.217E-02   -.310E-03 0.232E-03 -.835E-03
   0.127E+01 -.300E+01 0.598E+01   -.101E+01 0.305E+01 -.602E+01   -.267E+00 -.383E-01 0.358E-01   -.117E-02 -.108E-03 0.102E-02
   -.938E+00 -.472E+01 0.580E+01   0.116E+01 0.477E+01 -.578E+01   -.221E+00 -.419E-01 -.177E-01   0.212E-03 -.563E-03 0.156E-02
   0.119E+02 -.671E+01 0.524E+01   -.117E+02 0.663E+01 -.532E+01   -.218E+00 0.898E-01 0.842E-01   0.134E-03 0.245E-03 -.906E-03
   0.381E+01 -.108E+02 0.670E+01   -.359E+01 0.108E+02 -.668E+01   -.228E+00 0.274E-02 -.258E-01   0.511E-03 -.384E-02 0.679E-04
   -.495E+01 -.368E+02 0.299E+02   0.111E+02 0.334E+02 -.291E+02   -.620E+01 0.348E+01 -.817E+00   0.469E-02 -.664E-02 0.831E-02
   0.646E+00 -.205E+02 0.131E+02   -.458E+00 0.196E+02 -.134E+02   -.197E+00 0.911E+00 0.214E+00   0.316E-03 -.200E-02 0.381E-02
   0.184E+02 -.312E+02 0.114E+02   -.264E+02 0.272E+02 -.100E+02   0.803E+01 0.401E+01 -.136E+01   -.699E-02 -.907E-02 -.111E-01
   0.844E+01 -.208E+02 0.112E+02   -.951E+01 0.199E+02 -.113E+02   0.106E+01 0.893E+00 0.130E+00   -.265E-02 -.297E-03 -.582E-02
   -.143E+02 -.928E+01 0.133E+02   0.140E+02 0.898E+01 -.139E+02   0.386E+00 0.301E+00 0.588E+00   0.211E-02 -.188E-02 0.133E-02
   -.321E+01 -.370E+02 0.939E+01   0.285E+01 0.432E+02 -.941E+01   0.359E+00 -.623E+01 0.140E-01   0.111E-02 0.153E-02 0.180E-02
   -.587E+01 -.136E+02 0.703E+01   0.685E+01 0.145E+02 -.704E+01   -.970E+00 -.964E+00 0.116E-01   -.637E-03 -.119E-02 -.871E-04
   -.428E+01 -.735E+01 0.733E+01   0.431E+01 0.802E+01 -.733E+01   -.517E-01 -.696E+00 0.491E-02   -.109E-02 0.180E-02 -.488E-03
   -.333E+01 -.479E+01 0.629E+01   0.373E+01 0.507E+01 -.632E+01   -.380E+00 -.263E+00 0.304E-01   0.200E-04 -.107E-02 0.484E-03
   -.188E+01 -.372E+01 0.630E+01   0.197E+01 0.392E+01 -.629E+01   -.823E-01 -.211E+00 -.119E-01   -.273E-03 0.674E-03 0.668E-03
   0.121E+01 -.367E+01 0.674E+01   -.103E+01 0.373E+01 -.676E+01   -.157E+00 -.617E-01 0.190E-01   -.721E-03 -.441E-03 0.121E-02
   0.116E+01 -.479E+01 0.713E+01   -.112E+01 0.485E+01 -.714E+01   -.236E-01 -.560E-01 0.929E-02   0.865E-03 -.242E-02 0.107E-02
   -.116E+01 -.746E+01 0.992E+01   0.157E+01 0.724E+01 -.100E+02   -.425E+00 0.220E+00 0.123E+00   0.111E-02 -.121E-02 0.797E-03
   0.216E+01 -.599E+01 0.819E+01   -.213E+01 0.590E+01 -.820E+01   -.416E-01 0.115E+00 0.169E-01   0.114E-03 -.282E-02 -.448E-03
   0.241E+01 -.947E+01 0.677E+01   -.274E+01 0.899E+01 -.640E+01   0.313E+00 0.513E+00 -.363E+00   -.946E-03 -.135E-02 0.636E-03
   0.177E+01 -.679E+01 0.757E+01   -.186E+01 0.650E+01 -.762E+01   0.882E-01 0.325E+00 0.369E-01   -.931E-03 -.133E-02 0.141E-02
   0.702E+01 -.172E+02 0.127E+02   -.866E+01 0.178E+02 -.129E+02   0.164E+01 -.599E+00 0.169E+00   0.528E-04 0.659E-03 0.129E-02
   0.105E+01 -.715E+01 0.915E+01   -.116E+01 0.763E+01 -.916E+01   0.125E+00 -.484E+00 0.281E-03   -.156E-03 0.114E-02 0.280E-02
   -.532E-01 0.123E+01 -.629E+03   0.198E+01 -.146E+01 0.611E+03   -.186E+01 0.230E+00 0.180E+02   -.124E+00 -.102E-01 0.217E-01
 -----------------------------------------------------------------------------------------------
   0.125E+01 -.482E+00 -.172E+02   0.346E-13 0.586E-12 0.227E-12   -.112E+01 0.506E+00 0.171E+02   -.130E+00 -.101E-01 0.543E-01
 
 
 POSITION                                       TOTAL-FORCE (eV/Angst)
 -----------------------------------------------------------------------------------
     -7.43122     12.74018      7.46412         0.002531      0.002996     -0.005845
      0.00101      1.41657      7.46615         0.017835     -0.010188     -0.000900
      2.48004      0.02088      7.46351        -0.002855     -0.013030      0.002433
      2.48125      1.44316      7.47423        -0.000690     -0.003549     -0.003793
      4.95266      0.02622      7.46517        -0.000339      0.007210     -0.002699
      4.95451      1.44750      7.47581        -0.000459      0.015595     -0.005317
      0.00112     12.74994      7.46623         0.010092     -0.006664      0.002485
      7.43309      1.42570      7.46502         0.004254     -0.016384      0.000844
      2.48514     12.72289      7.47439        -0.007258     -0.008059     -0.003563
      9.91683      1.39575      7.46317         0.006692     -0.003596      0.001330
      4.95915     12.71932      7.47552        -0.002890     -0.021319     -0.010122
     12.38843      1.39349      7.46557        -0.018703     -0.022416     -0.003456
     13.62303      2.11289      7.46628         0.004911      0.000025      0.001344
     -1.24677      3.52849      7.47688        -0.000778     -0.000790     -0.002558
      1.23831      2.13946      7.47646        -0.013163      0.016154     -0.000650
      1.23656      3.56238      7.50070         0.000636      0.022376      0.002285
      3.71924      2.17127      7.49012        -0.002140     -0.017329     -0.002783
      3.72122      3.59424      7.53469        -0.001721      0.010958      0.006445
      6.19551      2.15010      7.47634         0.010971     -0.001786     -0.003802
      6.19692      3.57599      7.50009         0.004324      0.016051     -0.000059
      8.67986      2.11470      7.46316        -0.005480      0.019590      0.003215
      8.68358      3.53320      7.47080         0.001324      0.018910     -0.004045
     11.15132      2.10617      7.46360         0.001555     -0.010305     -0.002497
     11.14958      3.53015      7.46529        -0.007157      0.000172     -0.002305
     12.38149      4.24156      7.47313         0.014344     -0.002425     -0.001706
     -2.48983      5.65969      7.47989        -0.009745     -0.012183     -0.001105
     -0.01507      4.24372      7.50210        -0.004152     -0.001349     -0.000957
     -0.04051      5.66112      7.53025         0.016141     -0.006857      0.010699
      2.47546      4.30387      7.54737        -0.009173      0.008884     -0.007376
      2.43097      5.71431      7.63972        -0.015871     -0.032801     -0.011425
      4.96238      4.32712      7.55386        -0.006790     -0.004703      0.006070
      5.01083      5.74805      7.65405         0.005674     -0.017106      0.023535
      7.45190      4.24966      7.49338         0.002077     -0.017093     -0.008154
      7.47743      5.66534      7.51295        -0.001247     -0.033029     -0.003684
      9.91705      4.24516      7.46879        -0.005748      0.010943     -0.002425
      9.92302      5.67015      7.47427        -0.001926      0.003984     -0.006114
     -3.71696      6.37465      7.47383         0.004424     -0.007379     -0.000793
     -3.72296      7.79400      7.47477         0.001299     -0.017622     -0.003183
     -1.26868      6.37430      7.50542         0.036251     -0.009884      0.004099
     -1.27059      7.79421      7.50475        -0.007065     -0.008217      0.004572
      1.18082      6.36795      7.58014        -0.007517     -0.013293      0.000431
      1.17919      7.80032      7.57823         0.002144      0.002589     -0.001618
      6.27212      6.37936      7.57653        -0.002928     -0.012241      0.016571
      6.27502      7.81275      7.58502         0.015165     -0.012775      0.023627
      8.69664      6.38770      7.49133        -0.017421     -0.002593     -0.010982
      8.69480      7.80351      7.49155         0.007718     -0.013231     -0.006549
     -4.95050      8.51215      7.47612         0.009387      0.016674     -0.004651
     -4.94378      9.92986      7.47096         0.010098      0.015850     -0.003172
     -2.49421      8.50855      7.48055        -0.004466      0.006013     -0.000722
     -2.48354      9.92896      7.47320        -0.001586      0.003693     -0.000070
     -0.04200      8.50656      7.52765         0.004951      0.007611      0.007547
     -0.01504      9.92234      7.50098        -0.001456      0.033249     -0.002344
      2.42938      8.45307      7.63604         0.004396      0.007882     -0.011612
      2.47689      9.86123      7.54906         0.003504     -0.001494     -0.012190
      5.02659      8.44101      7.66887        -0.018435      0.027333      0.030132
      4.96252      9.85339      7.55566        -0.021992      0.021150      0.014438
      7.47896      8.50584      7.51141         0.001306      0.007469      0.005001
      7.45339      9.90991      7.49106         0.007286      0.004130     -0.002374
     -6.18447     10.62411      7.47258        -0.004345     -0.000105     -0.006499
     -6.19099     12.04743      7.46405        -0.014907     -0.018044     -0.000397
     -3.71594     10.64156      7.46579         0.016917      0.015124      0.000654
     -3.71586     12.06416      7.46342         0.004608     -0.009511      0.000717
     -1.24772     10.63792      7.47647         0.019632      0.007008     -0.002531
     -1.24324     12.05677      7.46639         0.018405      0.004777     -0.000336
      1.23766     10.60335      7.50148        -0.009698     -0.001934     -0.003745
      1.24006     12.02580      7.47691        -0.014717      0.015935      0.001008
      3.72414     10.57499      7.53631        -0.019497      0.014050      0.011531
      3.72229     11.99818      7.49013        -0.003617      0.022655     -0.004452
      6.20300     10.58594      7.49420         0.002881      0.016505      0.008675
      6.20302     12.01621      7.47323         0.018373      0.001012     -0.008125
      3.67995      7.08393      8.32276        -0.024176     -0.013273     -0.006002
 -----------------------------------------------------------------------------------
    total drift:                                0.005547      0.013199     -0.027337


--------------------------------------------------------------------------------------------------------



  FREE ENERGIE OF THE ION-ELECTRON SYSTEM (eV)
  ---------------------------------------------------
  free  energy   TOTEN  =      -653.64100845 eV

  energy  without entropy=     -653.59998897  energy(sigma->0) =     -653.62049871
 
 d Force = 0.5028376E-03[ 0.376E-03, 0.630E-03]  d Energy = 0.5262808E-03-0.234E-04
 d Force = 0.5018583E+00[ 0.504E+00, 0.500E+00]  d Ewald  =-0.4253238E+01 0.476E+01


--------------------------------------------------------------------------------------------------------


    POTLOK:  cpu time    0.5777: real time    0.5874


--------------------------------------------------------------------------------------------------------


 Conjugate gradient step on ions:
 trial-energy change:   -0.000526  1 .order   -0.000551   -0.000690   -0.000412
  (g-gl).g = 0.170E-02      g.g   = 0.165E-02  gl.gl    = 0.125E-02
 g(Force)  = 0.144E-02   g(Stress)= 0.215E-03 ortho     =-0.341E-04
 gamma     =   1.35106
 trial     =   0.42983
 opt step  =   1.06829  (harmonic =   1.06829) maximal distance =0.00652516
 next E    =  -653.641339   (d E  =  -0.00086)


--------------------------------------------------------------------------------------------------------


  
 reached required accuracy - stopping structural energy minimisation
     LOOP+:  cpu time  106.5492: real time  107.4203
    4ORBIT:  cpu time    0.0000: real time    0.0000

 total amount of memory used by VASP MPI-rank0   135460. kBytes
=======================================================================

   base      :      30000. kBytes
   nonlr-proj:      10471. kBytes
   fftplans  :      14072. kBytes
   grid      :      39398. kBytes
   one-center:        186. kBytes
   wavefun   :      41333. kBytes
 
  
  
 General timing and accounting informations for this job:
 ========================================================
  
                  Total CPU time used (sec):     3449.534
                            User time (sec):     3417.629
                          System time (sec):       31.905
                         Elapsed time (sec):     3486.125
  
                   Maximum memory used (kb):      632272.
                   Average memory used (kb):           0.
  
                          Minor page faults:      6271728
                          Major page faults:            1
                 Voluntary context switches:        27044
