 running on   48 total cores
 distrk:  each k-point on   48 cores,    1 groups
 distr:  one band on   12 cores,    4 groups
 using from now: INCAR     
 vasp.5.4.4.18Apr17-6-g9f103f2a35 (build Sep 02 2021 13:24:58) complex          
  
 POSCAR found type information on POSCAR  C  N  C  Cr
 POSCAR found :  4 types and      71 ions
 scaLAPACK will be used
 LDA part: xc-table for Pade appr. of Perdew
 POSCAR, INCAR and KPOINTS ok, starting setup
 FFT: planning ...
 WAVECAR not read
 entering main loop
       N       E                     dE             d eps       ncg     rms          rms(c)
DAV:   1     0.274385854286E+04    0.27439E+04   -0.11731E+05  3248   0.127E+03
DAV:   2    -0.171407018893E+03   -0.29153E+04   -0.27864E+04  4304   0.296E+02
DAV:   3    -0.684250377875E+03   -0.51284E+03   -0.50987E+03  3544   0.129E+02
DAV:   4    -0.703763490042E+03   -0.19513E+02   -0.19364E+02  3552   0.313E+01
DAV:   5    -0.704389649081E+03   -0.62616E+00   -0.62435E+00  4024   0.482E+00    0.465E+01
RMM:   6    -0.732642026275E+03   -0.28252E+02   -0.52774E+02  4107   0.390E+01    0.844E+01
RMM:   7    -0.662556566463E+03    0.70085E+02   -0.53449E+01  3046   0.137E+01    0.319E+01
RMM:   8    -0.662376445044E+03    0.18012E+00   -0.20945E+01  3127   0.707E+00    0.283E+01
RMM:   9    -0.647251990837E+03    0.15124E+02   -0.20336E+01  2977   0.849E+00    0.111E+01
RMM:  10    -0.647887782190E+03   -0.63579E+00   -0.28000E+00  3000   0.302E+00    0.142E+01
RMM:  11    -0.646720948986E+03    0.11668E+01   -0.40265E-01  3114   0.102E+00    0.728E+00
RMM:  12    -0.646712366404E+03    0.85826E-02   -0.17234E-01  2944   0.952E-01    0.698E+00
RMM:  13    -0.646721242209E+03   -0.88758E-02   -0.18674E-02  3022   0.338E-01    0.718E+00
RMM:  14    -0.646616646501E+03    0.10460E+00   -0.26269E-02  2973   0.318E-01    0.671E+00
RMM:  15    -0.646633269891E+03   -0.16623E-01   -0.40687E-02  2953   0.327E-01    0.740E+00
RMM:  16    -0.646601020510E+03    0.32249E-01   -0.45669E-02  3092   0.287E-01    0.544E+00
RMM:  17    -0.646633755158E+03   -0.32735E-01   -0.15881E-02  2990   0.206E-01    0.499E+00
RMM:  18    -0.646665346002E+03   -0.31591E-01   -0.10981E-02  2963   0.176E-01    0.442E+00
RMM:  19    -0.646690991013E+03   -0.25645E-01   -0.21083E-02  2950   0.245E-01    0.345E+00
RMM:  20    -0.646712123145E+03   -0.21132E-01   -0.12905E-02  2966   0.173E-01    0.290E+00
RMM:  21    -0.646737276390E+03   -0.25153E-01   -0.16809E-02  2947   0.214E-01    0.224E+00
RMM:  22    -0.646755473823E+03   -0.18197E-01   -0.14696E-02  2988   0.155E-01    0.217E+00
RMM:  23    -0.646784184387E+03   -0.28711E-01   -0.20043E-02  2985   0.179E-01    0.248E+00
RMM:  24    -0.646787208137E+03   -0.30237E-02   -0.37298E-03  3247   0.679E-02    0.266E+00
RMM:  25    -0.646794367974E+03   -0.71598E-02   -0.31404E-03  2972   0.767E-02    0.270E+00
RMM:  26    -0.646791561027E+03    0.28069E-02   -0.39545E-03  2968   0.107E-01    0.243E+00
RMM:  27    -0.646793385000E+03   -0.18240E-02   -0.13163E-02  2971   0.201E-01    0.202E+00
RMM:  28    -0.646803086318E+03   -0.97013E-02   -0.28821E-03  3092   0.664E-02    0.192E+00
RMM:  29    -0.646806239964E+03   -0.31536E-02   -0.53801E-04  2503   0.236E-02    0.191E+00
RMM:  30    -0.646806711312E+03   -0.47135E-03   -0.99891E-05  1918   0.890E-03    0.193E+00
RMM:  31    -0.646805742204E+03    0.96911E-03   -0.12352E-04  2161   0.163E-02    0.191E+00
RMM:  32    -0.646800156283E+03    0.55859E-02   -0.86726E-03  2952   0.149E-01    0.185E+00
RMM:  33    -0.646784059595E+03    0.16097E-01   -0.14953E-02  3015   0.182E-01    0.216E+00
RMM:  34    -0.646813344195E+03   -0.29285E-01   -0.61148E-03  2971   0.138E-01    0.172E+00
RMM:  35    -0.646825997945E+03   -0.12654E-01   -0.29308E-03  2979   0.808E-02    0.160E+00
RMM:  36    -0.646847064014E+03   -0.21066E-01   -0.66879E-03  3013   0.120E-01    0.164E+00
RMM:  37    -0.646871062542E+03   -0.23999E-01   -0.82771E-03  3039   0.123E-01    0.197E+00
RMM:  38    -0.646880438333E+03   -0.93758E-02   -0.41023E-03  3133   0.777E-02    0.225E+00
RMM:  39    -0.646876895594E+03    0.35427E-02   -0.88118E-04  2514   0.401E-02    0.229E+00
RMM:  40    -0.646874805336E+03    0.20903E-02   -0.29255E-04  2296   0.234E-02    0.229E+00
RMM:  41    -0.646874660678E+03    0.14466E-03   -0.90925E-05  1909   0.846E-03    0.229E+00
RMM:  42    -0.646869248806E+03    0.54119E-02   -0.22717E-04  2542   0.270E-02    0.223E+00
RMM:  43    -0.646871324891E+03   -0.20761E-02   -0.34455E-04  2756   0.269E-02    0.220E+00
RMM:  44    -0.646874186572E+03   -0.28617E-02   -0.64052E-04  2954   0.406E-02    0.226E+00
RMM:  45    -0.646868022425E+03    0.61641E-02   -0.11673E-03  2990   0.498E-02    0.224E+00
RMM:  46    -0.646861446816E+03    0.65756E-02   -0.13696E-03  3049   0.459E-02    0.216E+00
RMM:  47    -0.646855447985E+03    0.59988E-02   -0.29275E-03  3020   0.725E-02    0.209E+00
RMM:  48    -0.646854304491E+03    0.11435E-02   -0.18343E-03  3008   0.524E-02    0.199E+00
RMM:  49    -0.646848047149E+03    0.62573E-02   -0.24644E-03  2960   0.639E-02    0.182E+00
RMM:  50    -0.646845124140E+03    0.29230E-02   -0.13942E-03  3044   0.434E-02
   1 F= -.65324123E+03 E0= -.65322466E+03  d E =-.653241E+03  mag=     0.7522
 Constraining cell:  1  0  0  |  1  1  0  |  0  0  0
 curvature:   0.00 expect dE= 0.000E+00 dE for cont linesearch  0.000E+00
 trial: gam= 0.00000 g(F)=  0.166E+00 g(S)=  0.367E-01 ort = 0.000E+00 (trialstep = 0.100E+01)
 search vector abs. value=  0.203E+00
 bond charge predicted
       N       E                     dE             d eps       ncg     rms          rms(c)
DAV:   1    -0.646861179876E+03   -0.13133E-01   -0.13870E+01  3192   0.112E+01    0.269E+00
RMM:   2    -0.647286872104E+03   -0.42569E+00   -0.11864E+00  3106   0.205E+00    0.674E+00
RMM:   3    -0.646925763918E+03    0.36111E+00   -0.37595E-01  3123   0.988E-01    0.230E+00
RMM:   4    -0.646902437876E+03    0.23326E-01   -0.56069E-02  3295   0.340E-01    0.199E+00
RMM:   5    -0.646904247081E+03   -0.18092E-02   -0.60989E-03  3210   0.118E-01    0.211E+00
RMM:   6    -0.646874408523E+03    0.29839E-01   -0.12552E-01  2994   0.475E-01    0.155E+00
RMM:   7    -0.646877080158E+03   -0.26716E-02   -0.18308E-01  3043   0.585E-01    0.106E+00
RMM:   8    -0.646942150982E+03   -0.65071E-01   -0.25271E-02  3222   0.196E-01    0.860E-01
RMM:   9    -0.647003548736E+03   -0.61398E-01   -0.16005E-02  3106   0.151E-01    0.542E-01
RMM:  10    -0.647100047058E+03   -0.96498E-01   -0.25923E-02  2970   0.181E-01    0.187E-01
RMM:  11    -0.647128478395E+03   -0.28431E-01   -0.99514E-03  2962   0.907E-02    0.167E-01
RMM:  12    -0.647137811279E+03   -0.93329E-02   -0.24981E-03  2957   0.484E-02    0.956E-02
RMM:  13    -0.647141984160E+03   -0.41729E-02   -0.60678E-04  2392   0.221E-02    0.104E-01
RMM:  14    -0.647143225599E+03   -0.12414E-02   -0.12103E-04  2061   0.958E-03    0.115E-01
RMM:  15    -0.647146815403E+03   -0.35898E-02   -0.12620E-04  2186   0.158E-02    0.220E-01
RMM:  16    -0.647147880807E+03   -0.10654E-02   -0.31766E-05  1848   0.728E-03    0.172E-01
RMM:  17    -0.647159233090E+03   -0.11352E-01   -0.10785E-03  2506   0.324E-02    0.143E-01
RMM:  18    -0.647159867282E+03   -0.63419E-03   -0.14841E-04  2214   0.105E-02    0.652E-02
RMM:  19    -0.647160302935E+03   -0.43565E-03   -0.29805E-05  2051   0.710E-03    0.286E-02
RMM:  20    -0.647160782335E+03   -0.47940E-03   -0.34048E-05  1958   0.642E-03    0.627E-03
RMM:  21    -0.647160869275E+03   -0.86940E-04   -0.30056E-05  1709   0.535E-03    0.481E-03
RMM:  22    -0.647160912512E+03   -0.43237E-04   -0.11482E-05  1208   0.340E-03    0.310E-03
RMM:  23    -0.647161036410E+03   -0.12390E-03   -0.96833E-06  1232   0.319E-03    0.690E-03
RMM:  24    -0.647161096195E+03   -0.59786E-04   -0.53100E-06  1142   0.249E-03    0.875E-04
RMM:  25    -0.647161139158E+03   -0.42963E-04   -0.31946E-06  1033   0.215E-03    0.266E-03
RMM:  26    -0.647161152326E+03   -0.13168E-04   -0.12074E-06   868   0.177E-03    0.811E-04
RMM:  27    -0.647161158507E+03   -0.61807E-05   -0.65694E-07   789   0.163E-03
   2 F= -.65356754E+03 E0= -.65354854E+03  d E =-.326304E+00  mag=     1.4582
 Constraining cell:  1  0  0  |  1  1  0  |  0  0  0
 trial-energy change:   -0.326304  1 .order   -0.016706   -0.202880    0.169468
 step:   0.9185(harm=  0.5449)  dis= 0.01834  next Energy=  -653.574276 (dE=-0.333E+00)
 bond charge predicted
       N       E                     dE             d eps       ncg     rms          rms(c)
DAV:   1    -0.647174532789E+03   -0.13380E-01   -0.92361E-02  3400   0.915E-01    0.121E-01
RMM:   2    -0.647174754933E+03   -0.22214E-03   -0.39316E-03  3123   0.148E-01    0.114E-01
RMM:   3    -0.647174630087E+03    0.12485E-03   -0.67506E-04  3048   0.490E-02    0.109E-01
RMM:   4    -0.647174419203E+03    0.21088E-03   -0.15888E-04  2678   0.250E-02    0.351E-02
RMM:   5    -0.647174377182E+03    0.42021E-04   -0.48365E-05  1977   0.148E-02    0.133E-02
RMM:   6    -0.647174453715E+03   -0.76533E-04   -0.68967E-06  1777   0.685E-03    0.542E-03
RMM:   7    -0.647174550235E+03   -0.96520E-04   -0.40055E-06  1759   0.406E-03    0.244E-03
RMM:   8    -0.647174606630E+03   -0.56395E-04   -0.19912E-06  1285   0.247E-03    0.132E-03
RMM:   9    -0.647174651986E+03   -0.45356E-04   -0.16573E-06  1116   0.204E-03    0.750E-04
RMM:  10    -0.647174664890E+03   -0.12904E-04   -0.56230E-07   803   0.168E-03    0.411E-04
RMM:  11    -0.647174671671E+03   -0.67804E-05   -0.46658E-07   764   0.163E-03
   3 F= -.65358033E+03 E0= -.65356102E+03  d E =-.339096E+00  mag=     1.4742
 Constraining cell:  1  0  0  |  1  1  0  |  0  0  0
 curvature:  -0.09 expect dE=-0.196E-01 dE for cont linesearch -0.911E-02
 ZBRENT: interpolating
 opt :   0.5368  next Energy=  -653.607856 (dE=-0.367E+00)
 bond charge predicted
       N       E                     dE             d eps       ncg     rms          rms(c)
DAV:   1    -0.647207817579E+03   -0.33153E-01   -0.20272E+00  3176   0.428E+00    0.566E-01
RMM:   2    -0.647213937075E+03   -0.61195E-02   -0.85298E-02  3120   0.691E-01    0.518E-01
RMM:   3    -0.647211658252E+03    0.22788E-02   -0.14348E-02  3110   0.227E-01    0.512E-01
RMM:   4    -0.647208020335E+03    0.36379E-02   -0.35416E-03  3069   0.116E-01    0.162E-01
RMM:   5    -0.647207660948E+03    0.35939E-03   -0.10443E-03  2958   0.653E-02    0.633E-02
RMM:   6    -0.647208695428E+03   -0.10345E-02   -0.14425E-04  2594   0.247E-02    0.254E-02
RMM:   7    -0.647209753183E+03   -0.10578E-02   -0.55202E-05  2119   0.118E-02    0.131E-02
RMM:   8    -0.647210458200E+03   -0.70502E-03   -0.33727E-05  1941   0.806E-03    0.556E-03
RMM:   9    -0.647210824205E+03   -0.36600E-03   -0.16306E-05  1808   0.493E-03    0.314E-03
RMM:  10    -0.647211034090E+03   -0.20988E-03   -0.12581E-05  1403   0.372E-03    0.186E-03
RMM:  11    -0.647211081343E+03   -0.47253E-04   -0.49779E-06  1278   0.283E-03    0.105E-03
RMM:  12    -0.647211088745E+03   -0.74023E-05   -0.17608E-06  1155   0.215E-03
   4 F= -.65361308E+03 E0= -.65359272E+03  d E =-.371853E+00  mag=     1.5538
 Constraining cell:  1  0  0  |  1  1  0  |  0  0  0
 curvature:  -0.27 expect dE=-0.126E-01 dE for cont linesearch -0.103E-02
 ZBRENT: interpolating
 opt :   0.4563  next Energy=  -653.614342 (dE=-0.373E+00)
 bond charge predicted
       N       E                     dE             d eps       ncg     rms          rms(c)
DAV:   1    -0.647213068557E+03   -0.19872E-02   -0.90007E-02  3376   0.904E-01    0.120E-01
RMM:   2    -0.647213264052E+03   -0.19550E-03   -0.37328E-03  3122   0.145E-01    0.108E-01
RMM:   3    -0.647213151972E+03    0.11208E-03   -0.62794E-04  3047   0.474E-02    0.109E-01
RMM:   4    -0.647212934462E+03    0.21751E-03   -0.16290E-04  2662   0.250E-02    0.332E-02
RMM:   5    -0.647212903359E+03    0.31103E-04   -0.44468E-05  1963   0.142E-02    0.133E-02
RMM:   6    -0.647212989406E+03   -0.86047E-04   -0.70111E-06  1777   0.676E-03    0.531E-03
RMM:   7    -0.647213091201E+03   -0.10180E-03   -0.42122E-06  1761   0.404E-03    0.234E-03
RMM:   8    -0.647213152759E+03   -0.61558E-04   -0.22095E-06  1292   0.250E-03    0.128E-03
RMM:   9    -0.647213198359E+03   -0.45600E-04   -0.18111E-06  1122   0.207E-03    0.727E-04
RMM:  10    -0.647213211716E+03   -0.13357E-04   -0.55653E-07   806   0.170E-03    0.421E-04
RMM:  11    -0.647213215739E+03   -0.40227E-05   -0.51289E-07   779   0.166E-03
   5 F= -.65361438E+03 E0= -.65359390E+03  d E =-.373151E+00  mag=     1.5705
 Constraining cell:  1  0  0  |  1  1  0  |  0  0  0
 curvature:  -0.33 expect dE=-0.113E-01 dE for cont linesearch -0.211E-04
 trial: gam= 0.18725 g(F)=  0.319E-01 g(S)=  0.244E-02 ort =-0.361E-02 (trialstep = 0.891E+00)
 search vector abs. value=  0.401E-01
 bond charge predicted
       N       E                     dE             d eps       ncg     rms          rms(c)
DAV:   1    -0.647219009982E+03   -0.57983E-02   -0.21798E+00  3320   0.489E+00    0.450E-01
RMM:   2    -0.647230539018E+03   -0.11529E-01   -0.12248E-01  2977   0.751E-01    0.318E-01
RMM:   3    -0.647229643545E+03    0.89547E-03   -0.96718E-03  3358   0.194E-01    0.364E-01
RMM:   4    -0.647228506778E+03    0.11368E-02   -0.18447E-03  3206   0.813E-02    0.150E-01
RMM:   5    -0.647228299374E+03    0.20740E-03   -0.52157E-04  3074   0.459E-02    0.723E-02
RMM:   6    -0.647228301209E+03   -0.18352E-05   -0.13130E-04  2874   0.258E-02    0.223E-02
RMM:   7    -0.647228323385E+03   -0.22176E-04   -0.15362E-05  1844   0.936E-03    0.126E-02
RMM:   8    -0.647228345926E+03   -0.22541E-04   -0.53279E-06  1782   0.587E-03    0.639E-03
RMM:   9    -0.647228363482E+03   -0.17555E-04   -0.31512E-06  1764   0.380E-03    0.288E-03
RMM:  10    -0.647228374127E+03   -0.10646E-04   -0.95551E-07  1272   0.239E-03    0.149E-03
RMM:  11    -0.647228379543E+03   -0.54156E-05   -0.41206E-07   844   0.173E-03
   6 F= -.65362911E+03 E0= -.65360885E+03  d E =-.147278E-01  mag=     1.5683
 Constraining cell:  1  0  0  |  1  1  0  |  0  0  0
 trial-energy change:   -0.014728  1 .order   -0.014696   -0.030040    0.000647
 step:   0.8725(harm=  0.8725)  dis= 0.00805  next Energy=  -653.629085 (dE=-0.147E-01)
 bond charge predicted
       N       E                     dE             d eps       ncg     rms          rms(c)
DAV:   1    -0.647228372419E+03    0.17081E-05   -0.96316E-04  3408   0.103E-01    0.952E-03
RMM:   2    -0.647228378683E+03   -0.62635E-05   -0.50939E-05  1910   0.160E-02
   7 F= -.65362912E+03 E0= -.65360886E+03  d E =-.147395E-01  mag=     1.5683
 Constraining cell:  1  0  0  |  1  1  0  |  0  0  0
 curvature:  -0.52 expect dE=-0.770E-02 dE for cont linesearch -0.624E-07
 trial: gam= 0.39172 g(F)=  0.142E-01 g(S)=  0.575E-03 ort = 0.694E-04 (trialstep = 0.888E+00)
 search vector abs. value=  0.210E-01
 bond charge predicted
       N       E                     dE             d eps       ncg     rms          rms(c)
DAV:   1    -0.647231129560E+03   -0.27571E-02   -0.11987E+00  3352   0.363E+00    0.345E-01
RMM:   2    -0.647238065649E+03   -0.69361E-02   -0.66426E-02  2980   0.518E-01    0.419E-01
RMM:   3    -0.647235982268E+03    0.20834E-02   -0.69415E-03  3305   0.157E-01    0.246E-01
RMM:   4    -0.647235423812E+03    0.55846E-03   -0.88686E-04  3120   0.599E-02    0.103E-01
RMM:   5    -0.647235308846E+03    0.11497E-03   -0.31747E-04  2997   0.354E-02    0.458E-02
RMM:   6    -0.647235311646E+03   -0.28006E-05   -0.62507E-05  2384   0.176E-02
   8 F= -.65363485E+03 E0= -.65361446E+03  d E =-.573187E-02  mag=     1.5736
 Constraining cell:  1  0  0  |  1  1  0  |  0  0  0
 trial-energy change:   -0.005732  1 .order   -0.005847   -0.013171    0.001476
 step:   0.7941(harm=  0.7981)  dis= 0.00522  next Energy=  -653.634931 (dE=-0.581E-02)
 bond charge predicted
       N       E                     dE             d eps       ncg     rms          rms(c)
DAV:   1    -0.647235230048E+03    0.78797E-04   -0.13372E-02  3408   0.384E-01    0.371E-02
RMM:   2    -0.647235322185E+03   -0.92137E-04   -0.75269E-04  2981   0.547E-02    0.513E-02
RMM:   3    -0.647235294786E+03    0.27399E-04   -0.80644E-05  2015   0.173E-02    0.252E-02
RMM:   4    -0.647235296553E+03   -0.17673E-05   -0.10707E-05  1776   0.861E-03
   9 F= -.65363497E+03 E0= -.65361459E+03  d E =-.585046E-02  mag=     1.5736
 Constraining cell:  1  0  0  |  1  1  0  |  0  0  0
 curvature:  -0.56 expect dE=-0.318E-02 dE for cont linesearch -0.234E-06
 trial: gam= 0.39299 g(F)=  0.511E-02 g(S)=  0.537E-03 ort =-0.934E-04 (trialstep = 0.869E+00)
 search vector abs. value=  0.882E-02
 bond charge predicted
       N       E                     dE             d eps       ncg     rms          rms(c)
DAV:   1    -0.647234974552E+03    0.32023E-03   -0.48660E-01  3408   0.241E+00    0.222E-01
RMM:   2    -0.647238105118E+03   -0.31306E-02   -0.31620E-02  2987   0.327E-01    0.186E-01
RMM:   3    -0.647237693700E+03    0.41142E-03   -0.27375E-03  3330   0.960E-02    0.183E-01
RMM:   4    -0.647237396478E+03    0.29722E-03   -0.39728E-04  3044   0.372E-02    0.645E-02
RMM:   5    -0.647237363182E+03    0.33296E-04   -0.94987E-05  2685   0.192E-02    0.349E-02
RMM:   6    -0.647237364821E+03   -0.16388E-05   -0.35517E-05  1888   0.136E-02
  10 F= -.65363738E+03 E0= -.65361664E+03  d E =-.240711E-02  mag=     1.5761
 Constraining cell:  1  0  0  |  1  1  0  |  0  0  0
 trial-energy change:   -0.002407  1 .order   -0.002437   -0.004871   -0.000004
 step:   0.8695(harm=  0.8695)  dis= 0.00353  next Energy=  -653.637409 (dE=-0.244E-02)
 bond charge predicted
       N       E                     dE             d eps       ncg     rms          rms(c)
DAV:   1    -0.647237377174E+03   -0.13992E-04   -0.48928E-06  2200   0.705E-03    0.429E-03
RMM:   2    -0.647237385668E+03   -0.84938E-05   -0.15347E-06  1663   0.331E-03
  11 F= -.65363740E+03 E0= -.65361666E+03  d E =-.242818E-02  mag=     1.5762
 Constraining cell:  1  0  0  |  1  1  0  |  0  0  0
 curvature:  -0.68 expect dE=-0.205E-02 dE for cont linesearch -0.237E-06
 trial: gam= 0.53469 g(F)=  0.297E-02 g(S)=  0.250E-04 ort =-0.553E-04 (trialstep = 0.869E+00)
 search vector abs. value=  0.546E-02
 bond charge predicted
       N       E                     dE             d eps       ncg     rms          rms(c)
DAV:   1    -0.647236549693E+03    0.82748E-03   -0.32661E-01  3424   0.202E+00    0.188E-01
RMM:   2    -0.647238903093E+03   -0.23534E-02   -0.25222E-02  2985   0.273E-01    0.101E-01
RMM:   3    -0.647238574203E+03    0.32889E-03   -0.13392E-03  3456   0.701E-02    0.946E-02
RMM:   4    -0.647238529474E+03    0.44729E-04   -0.22409E-04  2386   0.256E-02    0.614E-02
RMM:   5    -0.647238501749E+03    0.27725E-04   -0.57827E-05  2036   0.155E-02    0.355E-02
RMM:   6    -0.647238523804E+03   -0.22055E-04   -0.40086E-05  1901   0.138E-02    0.796E-03
RMM:   7    -0.647238541602E+03   -0.17798E-04   -0.49830E-06  1756   0.636E-03    0.508E-03
RMM:   8    -0.647238557209E+03   -0.15607E-04   -0.17148E-06  1720   0.361E-03    0.227E-03
RMM:   9    -0.647238571357E+03   -0.14149E-04   -0.75071E-07  1172   0.224E-03    0.118E-03
RMM:  10    -0.647238576829E+03   -0.54721E-05   -0.27235E-07   798   0.173E-03
  12 F= -.65363880E+03 E0= -.65361844E+03  d E =-.140435E-02  mag=     1.5706
 Constraining cell:  1  0  0  |  1  1  0  |  0  0  0
 trial-energy change:   -0.001404  1 .order   -0.001380   -0.002576   -0.000185
 step:   0.9362(harm=  0.9362)  dis= 0.00414  next Energy=  -653.638787 (dE=-0.139E-02)
 bond charge predicted
       N       E                     dE             d eps       ncg     rms          rms(c)
DAV:   1    -0.647238560638E+03    0.10719E-04   -0.19658E-03  3456   0.156E-01    0.146E-02
RMM:   2    -0.647238574292E+03   -0.13654E-04   -0.14642E-04  2010   0.212E-02    0.777E-03
RMM:   3    -0.647238573358E+03    0.93474E-06   -0.92408E-06  1742   0.707E-03
  13 F= -.65363882E+03 E0= -.65361848E+03  d E =-.141607E-02  mag=     1.5702
 Constraining cell:  1  0  0  |  1  1  0  |  0  0  0
 curvature:  -0.86 expect dE=-0.145E-02 dE for cont linesearch -0.554E-09
 trial: gam= 0.55225 g(F)=  0.154E-02 g(S)=  0.139E-03 ort = 0.187E-05 (trialstep = 0.882E+00)
 search vector abs. value=  0.335E-02
 bond charge predicted
       N       E                     dE             d eps       ncg     rms          rms(c)
DAV:   1    -0.647238009781E+03    0.56451E-03   -0.22656E-01  3480   0.171E+00    0.176E-01
RMM:   2    -0.647240416149E+03   -0.24064E-02   -0.22572E-02  2997   0.243E-01    0.225E-01
RMM:   3    -0.647239798453E+03    0.61770E-03   -0.20742E-03  3329   0.765E-02    0.115E-01
RMM:   4    -0.647239681167E+03    0.11729E-03   -0.17753E-04  2395   0.249E-02    0.470E-02
RMM:   5    -0.647239664410E+03    0.16757E-04   -0.32127E-05  1939   0.118E-02    0.286E-02
RMM:   6    -0.647239676475E+03   -0.12066E-04   -0.28755E-05  1854   0.113E-02    0.571E-03
RMM:   7    -0.647239696217E+03   -0.19742E-04   -0.34847E-06  1758   0.509E-03    0.362E-03
RMM:   8    -0.647239714558E+03   -0.18342E-04   -0.12231E-06  1595   0.287E-03    0.172E-03
RMM:   9    -0.647239725499E+03   -0.10941E-04   -0.44535E-07   965   0.183E-03    0.831E-04
RMM:  10    -0.647239730755E+03   -0.52560E-05   -0.16337E-07   707   0.154E-03
  14 F= -.65363964E+03 E0= -.65361934E+03  d E =-.823179E-03  mag=     1.5652
 Constraining cell:  1  0  0  |  1  1  0  |  0  0  0
 trial-energy change:   -0.000823  1 .order   -0.000814   -0.001483   -0.000145
 step:   0.9782(harm=  0.9782)  dis= 0.00378  next Energy=  -653.639638 (dE=-0.822E-03)
 bond charge predicted
       N       E                     dE             d eps       ncg     rms          rms(c)
DAV:   1    -0.647239760642E+03   -0.35142E-04   -0.26737E-03  3480   0.186E-01    0.190E-02
RMM:   2    -0.647239786337E+03   -0.25695E-04   -0.25943E-04  2196   0.264E-02    0.241E-02
RMM:   3    -0.647239780486E+03    0.58510E-05   -0.24571E-05  1854   0.987E-03
  15 F= -.65363965E+03 E0= -.65361936E+03  d E =-.835413E-03  mag=     1.5649
 Constraining cell:  1  0  0  |  1  1  0  |  0  0  0
 curvature:  -0.97 expect dE=-0.122E-02 dE for cont linesearch -0.227E-07
 trial: gam= 0.74333 g(F)=  0.125E-02 g(S)=  0.452E-05 ort = 0.883E-05 (trialstep = 0.902E+00)
 search vector abs. value=  0.312E-02
 bond charge predicted
       N       E                     dE             d eps       ncg     rms          rms(c)
DAV:   1    -0.647238631629E+03    0.11547E-02   -0.23704E-01  3504   0.178E+00    0.178E-01
RMM:   2    -0.647241245396E+03   -0.26138E-02   -0.26124E-02  2996   0.249E-01    0.134E-01
RMM:   3    -0.647240979882E+03    0.26551E-03   -0.18332E-03  3375   0.727E-02    0.135E-01
RMM:   4    -0.647240822819E+03    0.15706E-03   -0.26306E-04  2265   0.265E-02    0.499E-02
RMM:   5    -0.647240809200E+03    0.13619E-04   -0.29547E-05  1957   0.111E-02    0.335E-02
RMM:   6    -0.647240803951E+03    0.52490E-05   -0.37247E-05  1891   0.121E-02
  16 F= -.65364038E+03 E0= -.65361995E+03  d E =-.733178E-03  mag=     1.5647
 Constraining cell:  1  0  0  |  1  1  0  |  0  0  0
 trial-energy change:   -0.000733  1 .order   -0.000769   -0.001137   -0.000401
 step:   1.3918(harm=  1.3918)  dis= 0.00538  next Energy=  -653.640529 (dE=-0.878E-03)
 bond charge predicted
       N       E                     dE             d eps       ncg     rms          rms(c)
DAV:   1    -0.647240412750E+03    0.39645E-03   -0.69782E-02  3528   0.965E-01    0.993E-02
RMM:   2    -0.647241186970E+03   -0.77422E-03   -0.77045E-03  2996   0.135E-01    0.746E-02
RMM:   3    -0.647241116893E+03    0.70077E-04   -0.55777E-04  2754   0.401E-02    0.759E-02
RMM:   4    -0.647241067935E+03    0.48959E-04   -0.83267E-05  1978   0.166E-02    0.261E-02
RMM:   5    -0.647241066468E+03    0.14665E-05   -0.97322E-06  1835   0.735E-03
  17 F= -.65364048E+03 E0= -.65361998E+03  d E =-.830708E-03  mag=     1.5644
 Constraining cell:  1  0  0  |  1  1  0  |  0  0  0
 curvature:  -1.72 expect dE=-0.284E-02 dE for cont linesearch -0.643E-06
 trial: gam= 1.35106 g(F)=  0.144E-02 g(S)=  0.215E-03 ort =-0.341E-04 (trialstep = 0.430E+00)
 search vector abs. value=  0.725E-02
 bond charge predicted
       N       E                     dE             d eps       ncg     rms          rms(c)
DAV:   1    -0.647240315004E+03    0.75293E-03   -0.12726E-01  3496   0.130E+00    0.133E-01
RMM:   2    -0.647241710397E+03   -0.13954E-02   -0.14190E-02  2993   0.182E-01    0.743E-02
RMM:   3    -0.647241568480E+03    0.14192E-03   -0.80015E-04  3137   0.496E-02    0.767E-02
RMM:   4    -0.647241527650E+03    0.40830E-04   -0.10312E-04  2023   0.175E-02    0.376E-02
RMM:   5    -0.647241521992E+03    0.56574E-05   -0.14377E-05  1856   0.873E-03
  18 F= -.65364101E+03 E0= -.65362050E+03  d E =-.526281E-03  mag=     1.5639
 Constraining cell:  1  0  0  |  1  1  0  |  0  0  0
 trial-energy change:   -0.000526  1 .order   -0.000551   -0.000690   -0.000412
 step:   1.0683(harm=  1.0683)  dis= 0.00653  next Energy=  -653.641339 (dE=-0.857E-03)
 reached required accuracy - stopping structural energy minimisation
