       N       E                     dE             d eps       ncg     rms          ort
DAV:   1     0.251480639716E+04    0.25148E+04   -0.11690E+05   768   0.110E+03
DAV:   2    -0.246137758156E+03   -0.27609E+04   -0.26348E+04   768   0.280E+02
DAV:   3    -0.702595147076E+03   -0.45646E+03   -0.45316E+03   768   0.120E+02
DAV:   4    -0.719096217399E+03   -0.16501E+02   -0.16370E+02   768   0.280E+01
DAV:   5    -0.719634539353E+03   -0.53832E+00   -0.53660E+00   768   0.422E+00
SDA:   6    -0.551127364819E+03    0.16851E+03   -0.53660E+00   768   0.497E+03 0.000E+00
CGA:   7    -0.604525533115E+03   -0.53398E+02   -0.26101E+02   768   0.323E+03 0.455E+03
CGA:   8    -0.638667535833E+03   -0.34142E+02   -0.14804E+02   768   0.167E+03 0.307E+03
CGA:   9    -0.651654889493E+03   -0.12987E+02   -0.93862E+01   768   0.357E+02 0.297E+02
CGA:  10    -0.659231082913E+03   -0.75762E+01   -0.75774E+01   768   0.172E+02-0.345E+00
CGA:  11    -0.660217117204E+03   -0.98603E+00   -0.61706E+00   768   0.758E+01 0.104E+02
CGA:  12    -0.660889619936E+03   -0.67250E+00   -0.54732E+00   768   0.489E+01 0.102E+01
CGA:  13    -0.661767409015E+03   -0.87779E+00   -0.88037E+00   768   0.175E+01 0.140E+00
CGA:  14    -0.662096635298E+03   -0.32923E+00   -0.33274E+00   768   0.185E+01-0.136E+00
CGA:  15    -0.662274616350E+03   -0.17798E+00   -0.15683E+00   768   0.616E+00 0.160E+00
CGA:  16    -0.662337462710E+03   -0.62846E-01   -0.62259E-01   768   0.538E+00 0.370E-02
CGA:  17    -0.662413129670E+03   -0.75667E-01   -0.73129E-01   768   0.365E+00-0.147E-01
CGA:  18    -0.662438418328E+03   -0.25289E-01   -0.22444E-01   768   0.264E+00 0.373E-01
CGA:  19    -0.662472089340E+03   -0.33671E-01   -0.34227E-01   768   0.328E+00 0.606E-02
CGA:  20    -0.662494693353E+03   -0.22604E-01   -0.21380E-01   768   0.121E+00 0.300E-01
CGA:  21    -0.662504161026E+03   -0.94677E-02   -0.10235E-01   768   0.858E-01-0.380E-02
CGA:  22    -0.662518051290E+03   -0.13890E-01   -0.13730E-01   768   0.684E-01 0.416E-02
CGA:  23    -0.662523730431E+03   -0.56791E-02   -0.57024E-02   768   0.249E-01-0.127E-03
CGA:  24    -0.662529820061E+03   -0.60896E-02   -0.59759E-02   768   0.355E-01 0.106E-02
CGA:  25    -0.662533339082E+03   -0.35190E-02   -0.35508E-02   768   0.104E-01 0.130E-03
CGA:  26    -0.662536202262E+03   -0.28632E-02   -0.28447E-02   768   0.184E-01 0.100E-03
CGA:  27    -0.662538389262E+03   -0.21870E-02   -0.21849E-02   768   0.650E-02 0.235E-04
CGA:  28    -0.662539887382E+03   -0.14981E-02   -0.15042E-02   768   0.860E-02-0.519E-04
CGA:  29    -0.662540837133E+03   -0.94975E-03   -0.95495E-03   768   0.281E-02 0.109E-04
CGA:  30    -0.662541454704E+03   -0.61757E-03   -0.61776E-03   768   0.383E-02-0.870E-05
CGA:  31    -0.662541891120E+03   -0.43642E-03   -0.43414E-03   768   0.109E-02-0.198E-04
CGA:  32    -0.662542112531E+03   -0.22141E-03   -0.22263E-03   768   0.165E-02-0.209E-04
CGA:  33    -0.662542327926E+03   -0.21540E-03   -0.21526E-03   768   0.583E-03-0.128E-04
CGA:  34    -0.662542423963E+03   -0.96037E-04   -0.96111E-04   768   0.754E-03-0.745E-05
CGA:  35    -0.662542547453E+03   -0.12349E-03   -0.12322E-03   768   0.294E-03 0.109E-04
CGA:  36    -0.662542606107E+03   -0.58653E-04   -0.58225E-04   768   0.506E-03 0.694E-05
   1 F= -.66907839E+03 E0= -.66906066E+03  d E =-.669078E+03  mag=     1.4892
       N       E                     dE             d eps       ncg     rms          ort
SDA:   1    -0.661527263550E+03    0.10153E+01    0.00000E+00   768   0.341E+01 0.000E+00
CGA:   2    -0.662004010289E+03   -0.47675E+00   -0.47723E+00   768   0.151E+01 0.115E-01
CGA:   3    -0.662290307308E+03   -0.28630E+00   -0.28732E+00   768   0.995E+00-0.236E-01
CGA:   4    -0.662462975563E+03   -0.17267E+00   -0.17232E+00   768   0.347E+00 0.117E-01
CGA:   5    -0.662524003018E+03   -0.61027E-01   -0.61056E-01   768   0.120E+00-0.947E-03
CGA:   6    -0.662545751234E+03   -0.21748E-01   -0.21720E-01   768   0.541E-01 0.840E-03
CGA:   7    -0.662555543185E+03   -0.97920E-02   -0.97993E-02   768   0.282E-01-0.232E-03
CGA:   8    -0.662560386570E+03   -0.48434E-02   -0.48415E-02   768   0.105E-01 0.111E-03
CGA:   9    -0.662562462065E+03   -0.20755E-02   -0.20763E-02   768   0.358E-02-0.121E-04
CGA:  10    -0.662563091010E+03   -0.62894E-03   -0.62876E-03   768   0.145E-02 0.126E-04
CGA:  11    -0.662563326801E+03   -0.23579E-03   -0.23579E-03   768   0.537E-03 0.224E-06
CGA:  12    -0.662563434454E+03   -0.10765E-03   -0.10760E-03   768   0.204E-03 0.140E-05
CGA:  13    -0.662563474514E+03   -0.40060E-04   -0.40103E-04   768   0.125E-03-0.139E-05
   2 F= -.66909903E+03 E0= -.66908324E+03  d E =-.206427E-01  mag=     1.4557
       N       E                     dE             d eps       ncg     rms          ort
SDA:   1    -0.662525623512E+03    0.37811E-01    0.00000E+00   768   0.127E+00 0.000E+00
CGA:   2    -0.662543891519E+03   -0.18268E-01   -0.18263E-01   768   0.569E-01-0.686E-04
CGA:   3    -0.662554724146E+03   -0.10833E-01   -0.10828E-01   768   0.355E-01 0.120E-03
CGA:   4    -0.662561098563E+03   -0.63744E-02   -0.63761E-02   768   0.137E-01-0.900E-04
CGA:   5    -0.662563377428E+03   -0.22789E-02   -0.22789E-02   768   0.461E-02 0.269E-05
CGA:   6    -0.662564211846E+03   -0.83442E-03   -0.83451E-03   768   0.218E-02-0.366E-05
CGA:   7    -0.662564591431E+03   -0.37959E-03   -0.37958E-03   768   0.105E-02 0.532E-06
CGA:   8    -0.662564777169E+03   -0.18574E-03   -0.18579E-03   768   0.405E-03-0.542E-05
CGA:   9    -0.662564853888E+03   -0.76719E-04   -0.76778E-04   768   0.146E-03-0.284E-05
   3 F= -.66910046E+03 E0= -.66908442E+03  d E =-.220698E-01  mag=     1.4590
       N       E                     dE             d eps       ncg     rms          ort
SDA:   1    -0.662403291848E+03    0.16149E+00    0.00000E+00   768   0.627E+00 0.000E+00
CGA:   2    -0.662483878266E+03   -0.80586E-01   -0.80702E-01   768   0.239E+00 0.526E-03
CGA:   3    -0.662530067693E+03   -0.46189E-01   -0.46253E-01   768   0.168E+00-0.181E-02
CGA:   4    -0.662561972639E+03   -0.31905E-01   -0.31869E-01   768   0.724E-01 0.110E-02
CGA:   5    -0.662574936977E+03   -0.12964E-01   -0.12966E-01   768   0.250E-01-0.150E-03
CGA:   6    -0.662579180771E+03   -0.42438E-02   -0.42439E-02   768   0.982E-02 0.624E-04
CGA:   7    -0.662580854563E+03   -0.16738E-02   -0.16738E-02   768   0.474E-02-0.450E-05
CGA:   8    -0.662581676211E+03   -0.82165E-03   -0.82159E-03   768   0.179E-02 0.166E-04
CGA:   9    -0.662582018239E+03   -0.34203E-03   -0.34195E-03   768   0.598E-03 0.459E-05
CGA:  10    -0.662582120112E+03   -0.10187E-03   -0.10188E-03   768   0.238E-03 0.292E-05
CGA:  11    -0.662582159138E+03   -0.39027E-04   -0.39024E-04   768   0.873E-04-0.326E-06
   4 F= -.66911747E+03 E0= -.66910200E+03  d E =-.170109E-01  mag=     1.4495
       N       E                     dE             d eps       ncg     rms          ort
SDA:   1    -0.661013071814E+03    0.15690E+01    0.00000E+00   768   0.578E+01 0.000E+00
CGA:   2    -0.661733396118E+03   -0.72032E+00   -0.72429E+00   768   0.218E+01 0.398E-02
CGA:   3    -0.662147523352E+03   -0.41413E+00   -0.41567E+00   768   0.158E+01-0.550E-01
CGA:   4    -0.662441377872E+03   -0.29385E+00   -0.29301E+00   768   0.623E+00 0.292E-01
CGA:   5    -0.662559540289E+03   -0.11816E+00   -0.11825E+00   768   0.217E+00-0.342E-02
CGA:   6    -0.662597504263E+03   -0.37964E-01   -0.37957E-01   768   0.829E-01 0.160E-02
CGA:   7    -0.662612187008E+03   -0.14683E-01   -0.14684E-01   768   0.428E-01-0.271E-03
CGA:   8    -0.662619254884E+03   -0.70679E-02   -0.70699E-02   768   0.158E-01 0.149E-03
CGA:   9    -0.662622339681E+03   -0.30848E-02   -0.30858E-02   768   0.503E-02-0.253E-04
CGA:  10    -0.662623263963E+03   -0.92428E-03   -0.92414E-03   768   0.203E-02 0.119E-04
CGA:  11    -0.662623591349E+03   -0.32739E-03   -0.32733E-03   768   0.851E-03-0.289E-05
CGA:  12    -0.662623760027E+03   -0.16868E-03   -0.16869E-03   768   0.339E-03-0.442E-06
CGA:  13    -0.662623839872E+03   -0.79845E-04   -0.79996E-04   768   0.257E-03-0.252E-05
   5 F= -.66915852E+03 E0= -.66914461E+03  d E =-.580634E-01  mag=     1.4298
       N       E                     dE             d eps       ncg     rms          ort
SDA:   1    -0.656182530059E+03    0.64412E+01    0.00000E+00   768   0.243E+02 0.000E+00
CGA:   2    -0.659041664140E+03   -0.28591E+01   -0.28996E+01   768   0.907E+01-0.123E+00
CGA:   3    -0.660691087771E+03   -0.16494E+01   -0.16542E+01   768   0.661E+01-0.414E+00
CGA:   4    -0.661915471067E+03   -0.12244E+01   -0.12182E+01   768   0.235E+01 0.230E+00
CGA:   5    -0.662399101916E+03   -0.48363E+00   -0.48393E+00   768   0.811E+00-0.674E-02
CGA:   6    -0.662551938835E+03   -0.15284E+00   -0.15271E+00   768   0.285E+00 0.752E-02
CGA:   7    -0.662613228115E+03   -0.61289E-01   -0.61404E-01   768   0.136E+00-0.222E-02
CGA:   8    -0.662637084426E+03   -0.23856E-01   -0.23862E-01   768   0.645E-01 0.788E-03
CGA:   9    -0.662647034777E+03   -0.99504E-02   -0.99377E-02   768   0.219E-01-0.155E-03
CGA:  10    -0.662651071644E+03   -0.40369E-02   -0.40363E-02   768   0.655E-02 0.492E-04
CGA:  11    -0.662652535909E+03   -0.14643E-02   -0.14656E-02   768   0.318E-02-0.241E-04
CGA:  12    -0.662653058133E+03   -0.52222E-03   -0.52211E-03   768   0.179E-02-0.340E-05
CGA:  13    -0.662653432982E+03   -0.37485E-03   -0.37508E-03   768   0.860E-03-0.777E-05
CGA:  14    -0.662653668600E+03   -0.23562E-03   -0.23581E-03   768   0.728E-03-0.174E-05
CGA:  15    -0.662653799723E+03   -0.13112E-03   -0.13111E-03   768   0.480E-03-0.244E-05
CGA:  16    -0.662653921920E+03   -0.12220E-03   -0.12215E-03   768   0.246E-03 0.872E-06
CGA:  17    -0.662653978911E+03   -0.56991E-04   -0.57018E-04   768   0.196E-03-0.872E-06
   6 F= -.66918957E+03 E0= -.66917640E+03  d E =-.891152E-01  mag=     1.4486
       N       E                     dE             d eps       ncg     rms          ort
SDA:   1    -0.662130389645E+03    0.52353E+00    0.00000E+00   768   0.186E+01 0.000E+00
CGA:   2    -0.662378030421E+03   -0.24764E+00   -0.24817E+00   768   0.833E+00-0.545E-03
CGA:   3    -0.662529024159E+03   -0.15099E+00   -0.15090E+00   768   0.534E+00-0.742E-02
CGA:   4    -0.662624952483E+03   -0.95928E-01   -0.95969E-01   768   0.190E+00 0.347E-02
CGA:   5    -0.662658685786E+03   -0.33733E-01   -0.33726E-01   768   0.658E-01-0.213E-03
CGA:   6    -0.662670230503E+03   -0.11545E-01   -0.11550E-01   768   0.303E-01 0.271E-03
CGA:   7    -0.662675331841E+03   -0.51013E-02   -0.50995E-02   768   0.152E-01-0.260E-04
CGA:   8    -0.662678046705E+03   -0.27149E-02   -0.27152E-02   768   0.598E-02 0.383E-04
CGA:   9    -0.662679200257E+03   -0.11536E-02   -0.11536E-02   768   0.210E-02-0.597E-05
CGA:  10    -0.662679534029E+03   -0.33377E-03   -0.33391E-03   768   0.853E-03 0.430E-05
CGA:  11    -0.662679673870E+03   -0.13984E-03   -0.13984E-03   768   0.279E-03 0.277E-06
CGA:  12    -0.662679729178E+03   -0.55308E-04   -0.55296E-04   768   0.121E-03 0.730E-06
   7 F= -.66921619E+03 E0= -.66920188E+03  d E =-.266203E-01  mag=     1.4679
       N       E                     dE             d eps       ncg     rms          ort
SDA:   1    -0.657758656643E+03    0.49210E+01    0.00000E+00   768   0.177E+02 0.000E+00
CGA:   2    -0.659927891999E+03   -0.21692E+01   -0.21926E+01   768   0.794E+01-0.873E-01
CGA:   3    -0.661291046802E+03   -0.13632E+01   -0.13602E+01   768   0.511E+01-0.206E+00
CGA:   4    -0.662207325813E+03   -0.91628E+00   -0.91550E+00   768   0.165E+01 0.120E+00
CGA:   5    -0.662521967227E+03   -0.31464E+00   -0.31473E+00   768   0.590E+00-0.533E-02
CGA:   6    -0.662629109987E+03   -0.10714E+00   -0.10712E+00   768   0.271E+00 0.838E-02
CGA:   7    -0.662674250084E+03   -0.45140E-01   -0.45090E-01   768   0.158E+00-0.106E-02
CGA:   8    -0.662699783882E+03   -0.25534E-01   -0.25561E-01   768   0.588E-01 0.782E-03
CGA:   9    -0.662711838577E+03   -0.12055E-01   -0.12066E-01   768   0.190E-01-0.297E-03
CGA:  10    -0.662715108125E+03   -0.32695E-02   -0.32700E-02   768   0.927E-02 0.368E-04
CGA:  11    -0.662716411302E+03   -0.13032E-02   -0.13023E-02   768   0.320E-02-0.708E-05
CGA:  12    -0.662717078398E+03   -0.66710E-03   -0.66712E-03   768   0.124E-02 0.159E-06
CGA:  13    -0.662717321034E+03   -0.24264E-03   -0.24270E-03   768   0.957E-03-0.448E-05
CGA:  14    -0.662717472586E+03   -0.15155E-03   -0.15148E-03   768   0.415E-03-0.206E-05
CGA:  15    -0.662717591265E+03   -0.11868E-03   -0.11882E-03   768   0.329E-03-0.178E-05
CGA:  16    -0.662717648044E+03   -0.56779E-04   -0.56779E-04   768   0.245E-03 0.389E-06
   8 F= -.66925734E+03 E0= -.66923831E+03  d E =-.677707E-01  mag=     1.5861
       N       E                     dE             d eps       ncg     rms          ort
SDA:   1    -0.662441586178E+03    0.27601E+00    0.00000E+00   768   0.809E+00 0.000E+00
CGA:   2    -0.662612876773E+03   -0.17129E+00   -0.17134E+00   768   0.770E+00-0.113E-02
CGA:   3    -0.662708459580E+03   -0.95583E-01   -0.95680E-01   768   0.237E+00-0.218E-03
CGA:   4    -0.662748685015E+03   -0.40225E-01   -0.40235E-01   768   0.394E-01 0.263E-03
CGA:   5    -0.662756356637E+03   -0.76716E-02   -0.76713E-02   768   0.153E-01 0.337E-04
CGA:   6    -0.662758809242E+03   -0.24526E-02   -0.24527E-02   768   0.619E-02 0.113E-04
CGA:   7    -0.662759734091E+03   -0.92485E-03   -0.92463E-03   768   0.306E-02-0.588E-05
CGA:   8    -0.662760253689E+03   -0.51960E-03   -0.51954E-03   768   0.124E-02-0.632E-05
CGA:   9    -0.662760528395E+03   -0.27471E-03   -0.27492E-03   768   0.611E-03-0.517E-05
CGA:  10    -0.662760635745E+03   -0.10735E-03   -0.10736E-03   768   0.388E-03 0.268E-05
CGA:  11    -0.662760696431E+03   -0.60687E-04   -0.60736E-04   768   0.128E-03 0.194E-05
   9 F= -.66930124E+03 E0= -.66928161E+03  d E =-.439005E-01  mag=     1.5842
       N       E                     dE             d eps       ncg     rms          ort
SDA:   1    -0.661429622672E+03    0.13310E+01    0.00000E+00   768   0.343E+01 0.000E+00
CGA:   2    -0.662169816190E+03   -0.74019E+00   -0.73980E+00   768   0.327E+01 0.919E-02
CGA:   3    -0.662573243934E+03   -0.40343E+00   -0.40268E+00   768   0.101E+01-0.318E-02
CGA:   4    -0.662744560596E+03   -0.17132E+00   -0.17137E+00   768   0.170E+00 0.237E-02
CGA:   5    -0.662777046980E+03   -0.32486E-01   -0.32487E-01   768   0.684E-01 0.347E-04
CGA:   6    -0.662787705795E+03   -0.10659E-01   -0.10659E-01   768   0.298E-01 0.559E-04
CGA:   7    -0.662791979564E+03   -0.42738E-02   -0.42738E-02   768   0.136E-01-0.154E-05
CGA:   8    -0.662794460768E+03   -0.24812E-02   -0.24812E-02   768   0.555E-02 0.136E-07
CGA:   9    -0.662795656444E+03   -0.11957E-02   -0.11962E-02   768   0.298E-02-0.128E-04
CGA:  10    -0.662796122769E+03   -0.46632E-03   -0.46645E-03   768   0.170E-02 0.533E-05
CGA:  11    -0.662796416539E+03   -0.29377E-03   -0.29379E-03   768   0.552E-03 0.426E-05
CGA:  12    -0.662796530537E+03   -0.11400E-03   -0.11389E-03   768   0.268E-03 0.380E-05
CGA:  13    -0.662796567704E+03   -0.37167E-04   -0.37155E-04   768   0.117E-03-0.351E-06
  10 F= -.66933883E+03 E0= -.66931790E+03  d E =-.814819E-01  mag=     1.5678
       N       E                     dE             d eps       ncg     rms          ort
SDA:   1    -0.662758168211E+03    0.38362E-01    0.00000E+00   768   0.151E+00 0.000E+00
CGA:   2    -0.662786462076E+03   -0.28294E-01   -0.28294E-01   768   0.129E+00-0.276E-04
CGA:   3    -0.662804502093E+03   -0.18040E-01   -0.18037E-01   768   0.555E-01-0.551E-04
CGA:   4    -0.662813629628E+03   -0.91275E-02   -0.91277E-02   768   0.107E-01-0.212E-04
CGA:   5    -0.662815441674E+03   -0.18120E-02   -0.18120E-02   768   0.403E-02 0.251E-05
CGA:   6    -0.662816113976E+03   -0.67230E-03   -0.67242E-03   768   0.200E-02 0.118E-04
CGA:   7    -0.662816412708E+03   -0.29873E-03   -0.29879E-03   768   0.100E-02 0.248E-05
CGA:   8    -0.662816607768E+03   -0.19506E-03   -0.19509E-03   768   0.464E-03-0.160E-05
CGA:   9    -0.662816700593E+03   -0.92825E-04   -0.92935E-04   768   0.224E-03-0.434E-05
  11 F= -.66935942E+03 E0= -.66933814E+03  d E =-.205923E-01  mag=     1.5691
       N       E                     dE             d eps       ncg     rms          ort
SDA:   1    -0.662339594393E+03    0.47701E+00    0.00000E+00   768   0.135E+01 0.000E+00
CGA:   2    -0.662592504782E+03   -0.25291E+00   -0.25287E+00   768   0.117E+01 0.126E-02
CGA:   3    -0.662756530977E+03   -0.16403E+00   -0.16385E+00   768   0.495E+00-0.208E-02
CGA:   4    -0.662837976641E+03   -0.81446E-01   -0.81462E-01   768   0.952E-01 0.918E-03
CGA:   5    -0.662854298147E+03   -0.16322E-01   -0.16321E-01   768   0.361E-01-0.429E-04
CGA:   6    -0.662860558178E+03   -0.62600E-02   -0.62600E-02   768   0.181E-01 0.966E-04
CGA:   7    -0.662863244695E+03   -0.26865E-02   -0.26863E-02   768   0.936E-02 0.354E-05
CGA:   8    -0.662864996027E+03   -0.17513E-02   -0.17511E-02   768   0.415E-02 0.829E-05
CGA:   9    -0.662865842384E+03   -0.84636E-03   -0.84691E-03   768   0.185E-02-0.162E-04
CGA:  10    -0.662866132871E+03   -0.29049E-03   -0.29050E-03   768   0.100E-02 0.599E-07
CGA:  11    -0.662866295341E+03   -0.16247E-03   -0.16246E-03   768   0.303E-03-0.530E-06
CGA:  12    -0.662866359075E+03   -0.63734E-04   -0.63658E-04   768   0.155E-03 0.206E-05
  12 F= -.66941045E+03 E0= -.66938824E+03  d E =-.716199E-01  mag=     1.5653
       N       E                     dE             d eps       ncg     rms          ort
SDA:   1    -0.660806870821E+03    0.20594E+01    0.00000E+00   768   0.542E+01 0.000E+00
CGA:   2    -0.661812793558E+03   -0.10059E+01   -0.10050E+01   768   0.462E+01 0.379E-01
CGA:   3    -0.662476299723E+03   -0.66351E+00   -0.66123E+00   768   0.195E+01-0.268E-01
CGA:   4    -0.662796049645E+03   -0.31975E+00   -0.31986E+00   768   0.375E+00 0.826E-02
CGA:   5    -0.662861846643E+03   -0.65797E-01   -0.65800E-01   768   0.140E+00-0.503E-03
CGA:   6    -0.662886612620E+03   -0.24766E-01   -0.24762E-01   768   0.710E-01 0.639E-03
CGA:   7    -0.662897410338E+03   -0.10798E-01   -0.10795E-01   768   0.383E-01-0.275E-04
CGA:   8    -0.662904444053E+03   -0.70337E-02   -0.70319E-02   768   0.169E-01 0.970E-04
CGA:   9    -0.662907922816E+03   -0.34788E-02   -0.34811E-02   768   0.708E-02-0.566E-04
CGA:  10    -0.662909106185E+03   -0.11834E-02   -0.11834E-02   768   0.412E-02 0.596E-05
CGA:  11    -0.662909741180E+03   -0.63500E-03   -0.63490E-03   768   0.125E-02-0.291E-05
CGA:  12    -0.662910014448E+03   -0.27327E-03   -0.27311E-03   768   0.618E-03 0.363E-05
CGA:  13    -0.662910113436E+03   -0.98988E-04   -0.98987E-04   768   0.373E-03-0.162E-06
  13 F= -.66945689E+03 E0= -.66943386E+03  d E =-.118059E+00  mag=     1.5168
       N       E                     dE             d eps       ncg     rms          ort
SDA:   1    -0.662770911404E+03    0.13910E+00    0.00000E+00   768   0.407E+00 0.000E+00
CGA:   2    -0.662855822362E+03   -0.84911E-01   -0.84846E-01   768   0.330E+00 0.116E-02
CGA:   3    -0.662901932395E+03   -0.46110E-01   -0.46070E-01   768   0.144E+00-0.455E-03
CGA:   4    -0.662923685576E+03   -0.21753E-01   -0.21758E-01   768   0.317E-01 0.365E-04
CGA:   5    -0.662929132325E+03   -0.54467E-02   -0.54466E-02   768   0.122E-01-0.189E-04
CGA:   6    -0.662931144990E+03   -0.20127E-02   -0.20129E-02   768   0.585E-02 0.217E-04
CGA:   7    -0.662932073240E+03   -0.92825E-03   -0.92820E-03   768   0.307E-02 0.444E-06
CGA:   8    -0.662932662927E+03   -0.58969E-03   -0.58969E-03   768   0.148E-02-0.805E-06
CGA:   9    -0.662932963078E+03   -0.30015E-03   -0.30033E-03   768   0.793E-03-0.611E-05
CGA:  10    -0.662933090077E+03   -0.12700E-03   -0.12700E-03   768   0.420E-03-0.747E-07
CGA:  11    -0.662933168987E+03   -0.78910E-04   -0.78908E-04   768   0.181E-03 0.159E-06
  14 F= -.66948067E+03 E0= -.66945908E+03  d E =-.237848E-01  mag=     1.4468
       N       E                     dE             d eps       ncg     rms          ort
SDA:   1    -0.661531695231E+03    0.14014E+01    0.00000E+00   768   0.363E+01 0.000E+00
CGA:   2    -0.662289951137E+03   -0.75826E+00   -0.75673E+00   768   0.294E+01 0.282E-01
CGA:   3    -0.662707436271E+03   -0.41749E+00   -0.41652E+00   768   0.127E+01-0.124E-01
CGA:   4    -0.662898674586E+03   -0.19124E+00   -0.19142E+00   768   0.276E+00 0.267E-02
CGA:   5    -0.662947156422E+03   -0.48482E-01   -0.48482E-01   768   0.103E+00-0.440E-03
CGA:   6    -0.662965030755E+03   -0.17874E-01   -0.17875E-01   768   0.510E-01 0.336E-03
CGA:   7    -0.662973089187E+03   -0.80584E-02   -0.80561E-02   768   0.263E-01-0.417E-04
CGA:   8    -0.662978067152E+03   -0.49780E-02   -0.49769E-02   768   0.119E-01 0.483E-04
CGA:   9    -0.662980509371E+03   -0.24422E-02   -0.24427E-02   768   0.563E-02-0.184E-04
CGA:  10    -0.662981439639E+03   -0.93027E-03   -0.93034E-03   768   0.298E-02 0.326E-05
CGA:  11    -0.662981950111E+03   -0.51047E-03   -0.51047E-03   768   0.106E-02-0.696E-06
CGA:  12    -0.662982188921E+03   -0.23881E-03   -0.23871E-03   768   0.680E-03 0.256E-05
CGA:  13    -0.662982307612E+03   -0.11869E-03   -0.11870E-03   768   0.449E-03 0.799E-06
CGA:  14    -0.662982417606E+03   -0.10999E-03   -0.10990E-03   768   0.318E-03 0.178E-05
CGA:  15    -0.662982498824E+03   -0.81218E-04   -0.81122E-04   768   0.328E-03 0.104E-05
  15 F= -.66953212E+03 E0= -.66951556E+03  d E =-.752332E-01  mag=     1.2510
       N       E                     dE             d eps       ncg     rms          ort
SDA:   1    -0.657229015464E+03    0.57534E+01    0.00000E+00   768   0.144E+02 0.000E+00
CGA:   2    -0.660246299885E+03   -0.30173E+01   -0.30108E+01   768   0.115E+02 0.140E+00
CGA:   3    -0.661915943178E+03   -0.16696E+01   -0.16606E+01   768   0.487E+01-0.717E-01
CGA:   4    -0.662653936185E+03   -0.73799E+00   -0.73972E+00   768   0.105E+01 0.175E-01
CGA:   5    -0.662845157378E+03   -0.19122E+00   -0.19121E+00   768   0.385E+00-0.271E-02
CGA:   6    -0.662915724215E+03   -0.70567E-01   -0.70564E-01   768   0.185E+00 0.232E-02
CGA:   7    -0.662946985897E+03   -0.31262E-01   -0.31240E-01   768   0.103E+00-0.587E-03
CGA:   8    -0.662965071815E+03   -0.18086E-01   -0.18090E-01   768   0.451E-01 0.402E-03
CGA:   9    -0.662974499166E+03   -0.94274E-02   -0.94284E-02   768   0.174E-01-0.487E-04
CGA:  10    -0.662977759075E+03   -0.32599E-02   -0.32596E-02   768   0.943E-02 0.368E-04
CGA:  11    -0.662979196926E+03   -0.14379E-02   -0.14378E-02   768   0.322E-02-0.366E-05
CGA:  12    -0.662979893882E+03   -0.69696E-03   -0.69691E-03   768   0.144E-02 0.280E-05
CGA:  13    -0.662980183478E+03   -0.28960E-03   -0.28953E-03   768   0.102E-02 0.202E-05
CGA:  14    -0.662980372451E+03   -0.18897E-03   -0.18897E-03   768   0.564E-03 0.201E-05
CGA:  15    -0.662980538309E+03   -0.16586E-03   -0.16561E-03   768   0.468E-03 0.186E-05
CGA:  16    -0.662980634227E+03   -0.95918E-04   -0.95920E-04   768   0.392E-03 0.835E-06
  16 F= -.66953416E+03 E0= -.66952504E+03  d E =-.772780E-01  mag=     1.0538
       N       E                     dE             d eps       ncg     rms          ort
SDA:   1    -0.661432359883E+03    0.15482E+01    0.00000E+00   768   0.391E+01 0.000E+00
CGA:   2    -0.662279693867E+03   -0.84733E+00   -0.84799E+00   768   0.301E+01-0.132E-01
CGA:   3    -0.662711039915E+03   -0.43135E+00   -0.43247E+00   768   0.130E+01 0.102E-01
CGA:   4    -0.662914954506E+03   -0.20391E+00   -0.20361E+00   768   0.294E+00-0.237E-02
CGA:   5    -0.662963394774E+03   -0.48440E-01   -0.48469E-01   768   0.110E+00 0.323E-03
CGA:   6    -0.662982630550E+03   -0.19236E-01   -0.19230E-01   768   0.524E-01-0.271E-03
CGA:   7    -0.662991024369E+03   -0.83938E-02   -0.84043E-02   768   0.253E-01 0.134E-03
CGA:   8    -0.662996005503E+03   -0.49811E-02   -0.49820E-02   768   0.120E-01-0.491E-04
CGA:   9    -0.662998310108E+03   -0.23046E-02   -0.23045E-02   768   0.545E-02 0.215E-04
CGA:  10    -0.662999208612E+03   -0.89850E-03   -0.89838E-03   768   0.245E-02-0.205E-05
CGA:  11    -0.662999638965E+03   -0.43035E-03   -0.43037E-03   768   0.855E-03 0.924E-06
CGA:  12    -0.662999806154E+03   -0.16719E-03   -0.16722E-03   768   0.447E-03-0.296E-05
CGA:  13    -0.662999880198E+03   -0.74044E-04   -0.74033E-04   768   0.218E-03-0.316E-06
  17 F= -.66955143E+03 E0= -.66953950E+03  d E =-.945487E-01  mag=     1.1156
       N       E                     dE             d eps       ncg     rms          ort
SDA:   1    -0.662429036632E+03    0.57077E+00    0.00000E+00   768   0.146E+01 0.000E+00
CGA:   2    -0.662809510238E+03   -0.38047E+00   -0.37992E+00   768   0.104E+01 0.589E-02
CGA:   3    -0.662951751521E+03   -0.14224E+00   -0.14237E+00   768   0.438E+00-0.864E-04
CGA:   4    -0.663013499863E+03   -0.61748E-01   -0.61813E-01   768   0.857E-01 0.247E-03
CGA:   5    -0.663028202622E+03   -0.14703E-01   -0.14701E-01   768   0.305E-01-0.371E-04
CGA:   6    -0.663033636584E+03   -0.54340E-02   -0.54341E-02   768   0.135E-01 0.231E-04
CGA:   7    -0.663035790129E+03   -0.21535E-02   -0.21529E-02   768   0.642E-02-0.107E-04
CGA:   8    -0.663036954239E+03   -0.11641E-02   -0.11641E-02   768   0.276E-02-0.347E-05
CGA:   9    -0.663037534709E+03   -0.58047E-03   -0.58062E-03   768   0.138E-02-0.561E-05
CGA:  10    -0.663037767706E+03   -0.23300E-03   -0.23305E-03   768   0.687E-03 0.313E-05
CGA:  11    -0.663037886592E+03   -0.11889E-03   -0.11891E-03   768   0.230E-03 0.205E-05
CGA:  12    -0.663037931145E+03   -0.44553E-04   -0.44536E-04   768   0.986E-04 0.176E-05
  18 F= -.66959021E+03 E0= -.66957928E+03  d E =-.387789E-01  mag=     1.0820
       N       E                     dE             d eps       ncg     rms          ort
SDA:   1    -0.662555286416E+03    0.48260E+00    0.00000E+00   768   0.118E+01 0.000E+00
CGA:   2    -0.662864362813E+03   -0.30908E+00   -0.30866E+00   768   0.828E+00 0.419E-02
CGA:   3    -0.662979396894E+03   -0.11503E+00   -0.11510E+00   768   0.355E+00 0.141E-04
CGA:   4    -0.663029358508E+03   -0.49962E-01   -0.50006E-01   768   0.693E-01 0.189E-03
CGA:   5    -0.663041208840E+03   -0.11850E-01   -0.11849E-01   768   0.244E-01-0.251E-04
CGA:   6    -0.663045566200E+03   -0.43574E-02   -0.43574E-02   768   0.109E-01 0.200E-04
CGA:   7    -0.663047344297E+03   -0.17781E-02   -0.17777E-02   768   0.521E-02-0.954E-05
CGA:   8    -0.663048286355E+03   -0.94206E-03   -0.94206E-03   768   0.231E-02-0.398E-05
CGA:   9    -0.663048768459E+03   -0.48210E-03   -0.48225E-03   768   0.112E-02-0.504E-05
CGA:  10    -0.663048962381E+03   -0.19392E-03   -0.19395E-03   768   0.575E-03 0.274E-05
CGA:  11    -0.663049062004E+03   -0.99622E-04   -0.99638E-04   768   0.201E-03 0.187E-05
  19 F= -.66960197E+03 E0= -.66959193E+03  d E =-.505393E-01  mag=     1.0535
       N       E                     dE             d eps       ncg     rms          ort
SDA:   1    -0.662812708891E+03    0.23625E+00    0.00000E+00   768   0.630E+00 0.000E+00
CGA:   2    -0.662971960656E+03   -0.15925E+00   -0.15922E+00   768   0.460E+00 0.320E-03
CGA:   3    -0.663038008681E+03   -0.66048E-01   -0.65955E-01   768   0.204E+00-0.537E-03
CGA:   4    -0.663067285610E+03   -0.29277E-01   -0.29293E-01   768   0.431E-01 0.737E-04
CGA:   5    -0.663074230207E+03   -0.69446E-02   -0.69437E-02   768   0.145E-01-0.451E-05
CGA:   6    -0.663076876886E+03   -0.26467E-02   -0.26466E-02   768   0.700E-02 0.219E-04
CGA:   7    -0.663078052248E+03   -0.11754E-02   -0.11753E-02   768   0.354E-02-0.208E-05
CGA:   8    -0.663078703359E+03   -0.65111E-03   -0.65112E-03   768   0.167E-02-0.196E-05
CGA:   9    -0.663079042841E+03   -0.33948E-03   -0.33957E-03   768   0.757E-03-0.363E-05
CGA:  10    -0.663079173309E+03   -0.13047E-03   -0.13049E-03   768   0.381E-03 0.210E-05
CGA:  11    -0.663079238547E+03   -0.65238E-04   -0.65249E-04   768   0.132E-03 0.117E-05
  20 F= -.66963275E+03 E0= -.66962269E+03  d E =-.307733E-01  mag=     1.0368
       N       E                     dE             d eps       ncg     rms          ort
SDA:   1    -0.660735604661E+03    0.23436E+01    0.00000E+00   768   0.564E+01 0.000E+00
CGA:   2    -0.662166190016E+03   -0.14306E+01   -0.14294E+01   768   0.417E+01 0.123E-01
CGA:   3    -0.662760447013E+03   -0.59426E+00   -0.59128E+00   768   0.183E+01-0.157E-01
CGA:   4    -0.663020128991E+03   -0.25968E+00   -0.26013E+00   768   0.382E+00 0.297E-02
CGA:   5    -0.663083879447E+03   -0.63750E-01   -0.63730E-01   768   0.133E+00-0.576E-03
CGA:   6    -0.663107824561E+03   -0.23945E-01   -0.23945E-01   768   0.652E-01 0.283E-03
CGA:   7    -0.663118746049E+03   -0.10921E-01   -0.10917E-01   768   0.336E-01-0.134E-03
CGA:   8    -0.663124800237E+03   -0.60542E-02   -0.60541E-02   768   0.156E-01 0.242E-04
CGA:   9    -0.663127996350E+03   -0.31961E-02   -0.31968E-02   768   0.694E-02-0.221E-04
CGA:  10    -0.663129161525E+03   -0.11652E-02   -0.11653E-02   768   0.354E-02 0.992E-05
CGA:  11    -0.663129758392E+03   -0.59687E-03   -0.59688E-03   768   0.117E-02 0.168E-05
CGA:  12    -0.663129983912E+03   -0.22552E-03   -0.22549E-03   768   0.546E-03 0.260E-05
CGA:  13    -0.663130075020E+03   -0.91108E-04   -0.91097E-04   768   0.277E-03-0.100E-05
  21 F= -.66968524E+03 E0= -.66967494E+03  d E =-.832691E-01  mag=     0.9942
       N       E                     dE             d eps       ncg     rms          ort
SDA:   1    -0.662960755731E+03    0.16923E+00    0.00000E+00   768   0.403E+00 0.000E+00
CGA:   2    -0.663063934283E+03   -0.10318E+00   -0.10317E+00   768   0.292E+00 0.725E-04
CGA:   3    -0.663105517264E+03   -0.41583E-01   -0.41537E-01   768   0.132E+00-0.273E-03
CGA:   4    -0.663124092810E+03   -0.18576E-01   -0.18584E-01   768   0.275E-01 0.222E-04
CGA:   5    -0.663128513170E+03   -0.44204E-02   -0.44201E-02   768   0.970E-02 0.349E-05
CGA:   6    -0.663130180202E+03   -0.16670E-02   -0.16671E-02   768   0.444E-02 0.150E-04
CGA:   7    -0.663130944335E+03   -0.76413E-03   -0.76411E-03   768   0.230E-02-0.300E-06
CGA:   8    -0.663131362490E+03   -0.41815E-03   -0.41816E-03   768   0.115E-02-0.103E-05
CGA:   9    -0.663131593952E+03   -0.23146E-03   -0.23152E-03   768   0.541E-03-0.242E-05
CGA:  10    -0.663131687515E+03   -0.93563E-04   -0.93572E-04   768   0.278E-03 0.156E-05
  22 F= -.66968726E+03 E0= -.66967691E+03  d E =-.852887E-01  mag=     0.9829
       N       E                     dE             d eps       ncg     rms          ort
SDA:   1    -0.662608793981E+03    0.52280E+00    0.00000E+00   768   0.128E+01 0.000E+00
CGA:   2    -0.662956711006E+03   -0.34792E+00   -0.34779E+00   768   0.843E+00 0.117E-02
CGA:   3    -0.663085229215E+03   -0.12852E+00   -0.12838E+00   768   0.373E+00-0.148E-02
CGA:   4    -0.663135195601E+03   -0.49966E-01   -0.50042E-01   768   0.836E-01 0.171E-03
CGA:   5    -0.663148234452E+03   -0.13039E-01   -0.13035E-01   768   0.330E-01-0.516E-04
CGA:   6    -0.663153785578E+03   -0.55511E-02   -0.55513E-02   768   0.143E-01 0.226E-04
CGA:   7    -0.663156286139E+03   -0.25006E-02   -0.25005E-02   768   0.690E-02-0.202E-04
CGA:   8    -0.663157571838E+03   -0.12857E-02   -0.12857E-02   768   0.359E-02-0.186E-05
CGA:   9    -0.663158224452E+03   -0.65261E-03   -0.65263E-03   768   0.168E-02-0.335E-05
CGA:  10    -0.663158523055E+03   -0.29860E-03   -0.29861E-03   768   0.749E-03 0.463E-05
CGA:  11    -0.663158652836E+03   -0.12978E-03   -0.12979E-03   768   0.303E-03 0.202E-05
CGA:  12    -0.663158704940E+03   -0.52104E-04   -0.52115E-04   768   0.133E-03 0.177E-05
  23 F= -.66971474E+03 E0= -.66970412E+03  d E =-.274806E-01  mag=     0.9645
       N       E                     dE             d eps       ncg     rms          ort
SDA:   1    -0.661275094363E+03    0.18836E+01    0.00000E+00   768   0.442E+01 0.000E+00
CGA:   2    -0.662485512138E+03   -0.12104E+01   -0.12096E+01   768   0.287E+01 0.713E-02
CGA:   3    -0.662929471436E+03   -0.44396E+00   -0.44328E+00   768   0.126E+01-0.869E-02
CGA:   4    -0.663095762872E+03   -0.16629E+00   -0.16676E+00   768   0.281E+00 0.936E-03
CGA:   5    -0.663141728397E+03   -0.45966E-01   -0.45951E-01   768   0.110E+00-0.433E-03
CGA:   6    -0.663160080555E+03   -0.18352E-01   -0.18353E-01   768   0.494E-01 0.739E-04
CGA:   7    -0.663168717789E+03   -0.86372E-02   -0.86366E-02   768   0.234E-01-0.115E-03
CGA:   8    -0.663173159454E+03   -0.44417E-02   -0.44414E-02   768   0.120E-01 0.163E-04
CGA:   9    -0.663175394485E+03   -0.22350E-02   -0.22350E-02   768   0.558E-02-0.239E-05
CGA:  10    -0.663176358389E+03   -0.96390E-03   -0.96397E-03   768   0.247E-02 0.103E-04
CGA:  11    -0.663176795703E+03   -0.43731E-03   -0.43732E-03   768   0.944E-03 0.285E-05
CGA:  12    -0.663176960903E+03   -0.16520E-03   -0.16521E-03   768   0.424E-03 0.262E-05
CGA:  13    -0.663177036809E+03   -0.75907E-04   -0.75907E-04   768   0.199E-03-0.866E-06
  24 F= -.66973385E+03 E0= -.66972300E+03  d E =-.465861E-01  mag=     0.9305
       N       E                     dE             d eps       ncg     rms          ort
SDA:   1    -0.662893421456E+03    0.28354E+00    0.00000E+00   768   0.773E+00 0.000E+00
CGA:   2    -0.663075144363E+03   -0.18172E+00   -0.18173E+00   768   0.483E+00 0.702E-05
CGA:   3    -0.663150269383E+03   -0.75125E-01   -0.75188E-01   768   0.209E+00 0.912E-03
CGA:   4    -0.663181330671E+03   -0.31061E-01   -0.31052E-01   768   0.576E-01-0.353E-04
CGA:   5    -0.663190832023E+03   -0.95014E-02   -0.95030E-02   768   0.213E-01 0.526E-04
CGA:   6    -0.663194327968E+03   -0.34959E-02   -0.34952E-02   768   0.985E-02-0.265E-04
CGA:   7    -0.663196022833E+03   -0.16949E-02   -0.16949E-02   768   0.467E-02-0.426E-05
CGA:   8    -0.663196933881E+03   -0.91105E-03   -0.91131E-03   768   0.215E-02-0.116E-04
CGA:   9    -0.663197354179E+03   -0.42030E-03   -0.42025E-03   768   0.102E-02 0.169E-05
CGA:  10    -0.663197521377E+03   -0.16720E-03   -0.16720E-03   768   0.436E-03 0.383E-06
CGA:  11    -0.663197597939E+03   -0.76562E-04   -0.76568E-04   768   0.155E-03 0.238E-05
  25 F= -.66975432E+03 E0= -.66974369E+03  d E =-.204731E-01  mag=     0.9218
       N       E                     dE             d eps       ncg     rms          ort
SDA:   1    -0.663154337544E+03    0.43184E-01    0.00000E+00   768   0.114E+00 0.000E+00
CGA:   2    -0.663181310760E+03   -0.26973E-01   -0.26973E-01   768   0.701E-01-0.282E-05
CGA:   3    -0.663192448681E+03   -0.11138E-01   -0.11139E-01   768   0.303E-01 0.199E-04
CGA:   4    -0.663196964172E+03   -0.45155E-02   -0.45151E-02   768   0.825E-02 0.848E-06
CGA:   5    -0.663198348451E+03   -0.13843E-02   -0.13844E-02   768   0.284E-02 0.343E-05
CGA:   6    -0.663198864842E+03   -0.51639E-03   -0.51641E-03   768   0.140E-02-0.380E-05
CGA:   7    -0.663199096015E+03   -0.23117E-03   -0.23114E-03   768   0.728E-03-0.294E-05
CGA:   8    -0.663199228017E+03   -0.13200E-03   -0.13201E-03   768   0.315E-03-0.287E-05
CGA:   9    -0.663199293838E+03   -0.65821E-04   -0.65817E-04   768   0.132E-03 0.934E-07
  26 F= -.66975597E+03 E0= -.66974541E+03  d E =-.221233E-01  mag=     0.9187
       N       E                     dE             d eps       ncg     rms          ort
SDA:   1    -0.662954502104E+03    0.24473E+00    0.00000E+00   768   0.728E+00 0.000E+00
CGA:   2    -0.663091670792E+03   -0.13717E+00   -0.13717E+00   768   0.405E+00-0.222E-03
CGA:   3    -0.663162644420E+03   -0.70974E-01   -0.70976E-01   768   0.213E+00 0.199E-03
CGA:   4    -0.663197198590E+03   -0.34554E-01   -0.34544E-01   768   0.669E-01-0.265E-03
CGA:   5    -0.663208956457E+03   -0.11758E-01   -0.11758E-01   768   0.235E-01 0.501E-04
CGA:   6    -0.663213207902E+03   -0.42514E-02   -0.42516E-02   768   0.111E-01-0.429E-04
CGA:   7    -0.663215115214E+03   -0.19073E-02   -0.19074E-02   768   0.609E-02 0.446E-05
CGA:   8    -0.663216137908E+03   -0.10227E-02   -0.10225E-02   768   0.251E-02-0.111E-04
CGA:   9    -0.663216652927E+03   -0.51502E-03   -0.51495E-03   768   0.903E-03 0.126E-05
CGA:  10    -0.663216819344E+03   -0.16642E-03   -0.16642E-03   768   0.394E-03-0.136E-05
CGA:  11    -0.663216876924E+03   -0.57579E-04   -0.57606E-04   768   0.151E-03 0.745E-06
  27 F= -.66977367E+03 E0= -.66976327E+03  d E =-.177009E-01  mag=     0.9142
       N       E                     dE             d eps       ncg     rms          ort
SDA:   1    -0.663056533066E+03    0.16029E+00    0.00000E+00   768   0.457E+00 0.000E+00
CGA:   2    -0.663142627034E+03   -0.86094E-01   -0.86095E-01   768   0.254E+00-0.124E-03
CGA:   3    -0.663187073790E+03   -0.44447E-01   -0.44448E-01   768   0.134E+00 0.125E-03
CGA:   4    -0.663208712038E+03   -0.21638E-01   -0.21633E-01   768   0.425E-01-0.131E-03
CGA:   5    -0.663216131007E+03   -0.74190E-02   -0.74192E-02   768   0.145E-01 0.270E-04
CGA:   6    -0.663218787897E+03   -0.26569E-02   -0.26571E-02   768   0.692E-02-0.215E-04
CGA:   7    -0.663219985071E+03   -0.11972E-02   -0.11972E-02   768   0.383E-02 0.144E-05
CGA:   8    -0.663220629959E+03   -0.64489E-03   -0.64478E-03   768   0.159E-02-0.690E-05
CGA:   9    -0.663220955497E+03   -0.32554E-03   -0.32551E-03   768   0.574E-03 0.376E-06
CGA:  10    -0.663221062401E+03   -0.10690E-03   -0.10691E-03   768   0.252E-03-0.977E-06
CGA:  11    -0.663221099692E+03   -0.37291E-04   -0.37310E-04   768   0.100E-03 0.596E-06
  28 F= -.66977795E+03 E0= -.66976766E+03  d E =-.219778E-01  mag=     0.9110
       N       E                     dE             d eps       ncg     rms          ort
SDA:   1    -0.663064656680E+03    0.15641E+00    0.00000E+00   768   0.486E+00 0.000E+00
CGA:   2    -0.663149979983E+03   -0.85323E-01   -0.85322E-01   768   0.257E+00-0.277E-03
CGA:   3    -0.663195049520E+03   -0.45070E-01   -0.45071E-01   768   0.137E+00 0.267E-03
CGA:   4    -0.663217594003E+03   -0.22544E-01   -0.22539E-01   768   0.462E-01-0.181E-03
CGA:   5    -0.663225753480E+03   -0.81595E-02   -0.81596E-02   768   0.173E-01 0.404E-04
CGA:   6    -0.663228881915E+03   -0.31284E-02   -0.31286E-02   768   0.848E-02-0.362E-04
CGA:   7    -0.663230295375E+03   -0.14135E-02   -0.14135E-02   768   0.435E-02 0.622E-07
CGA:   8    -0.663231061189E+03   -0.76581E-03   -0.76580E-03   768   0.173E-02-0.100E-04
CGA:   9    -0.663231404071E+03   -0.34288E-03   -0.34285E-03   768   0.615E-03 0.997E-06
CGA:  10    -0.663231510798E+03   -0.10673E-03   -0.10672E-03   768   0.271E-03-0.338E-06
CGA:  11    -0.663231551192E+03   -0.40394E-04   -0.40426E-04   768   0.937E-04 0.106E-05
  29 F= -.66978839E+03 E0= -.66977821E+03  d E =-.104361E-01  mag=     0.9108
       N       E                     dE             d eps       ncg     rms          ort
SDA:   1    -0.662669293487E+03    0.56222E+00    0.00000E+00   768   0.166E+01 0.000E+00
CGA:   2    -0.662961063772E+03   -0.29177E+00   -0.29177E+00   768   0.874E+00-0.147E-02
CGA:   3    -0.663115133894E+03   -0.15407E+00   -0.15407E+00   768   0.465E+00 0.102E-02
CGA:   4    -0.663191874084E+03   -0.76740E-01   -0.76713E-01   768   0.156E+00-0.111E-02
CGA:   5    -0.663219639583E+03   -0.27765E-01   -0.27765E-01   768   0.578E-01 0.200E-03
CGA:   6    -0.663230345486E+03   -0.10706E-01   -0.10709E-01   768   0.277E-01-0.210E-03
CGA:   7    -0.663235060165E+03   -0.47147E-02   -0.47152E-02   768   0.146E-01 0.270E-04
CGA:   8    -0.663237553704E+03   -0.24935E-02   -0.24931E-02   768   0.589E-02-0.369E-04
CGA:   9    -0.663238708869E+03   -0.11552E-02   -0.11549E-02   768   0.198E-02 0.717E-05
CGA:  10    -0.663239070195E+03   -0.36133E-03   -0.36134E-03   768   0.846E-03-0.153E-05
CGA:  11    -0.663239194511E+03   -0.12432E-03   -0.12438E-03   768   0.313E-03 0.184E-05
CGA:  12    -0.663239255238E+03   -0.60727E-04   -0.60719E-04   768   0.116E-03 0.420E-06
  30 F= -.66979603E+03 E0= -.66978606E+03  d E =-.180802E-01  mag=     0.9107
       N       E                     dE             d eps       ncg     rms          ort
SDA:   1    -0.663001589665E+03    0.23760E+00    0.00000E+00   768   0.666E+00 0.000E+00
CGA:   2    -0.663142084906E+03   -0.14050E+00   -0.14051E+00   768   0.404E+00-0.469E-03
CGA:   3    -0.663206836725E+03   -0.64752E-01   -0.64780E-01   768   0.175E+00 0.538E-03
CGA:   4    -0.663233855211E+03   -0.27018E-01   -0.27007E-01   768   0.535E-01-0.166E-03
CGA:   5    -0.663243167440E+03   -0.93122E-02   -0.93126E-02   768   0.195E-01 0.403E-04
CGA:   6    -0.663246602629E+03   -0.34352E-02   -0.34351E-02   768   0.949E-02-0.380E-04
CGA:   7    -0.663248234621E+03   -0.16320E-02   -0.16320E-02   768   0.484E-02-0.193E-05
CGA:   8    -0.663249138362E+03   -0.90374E-03   -0.90389E-03   768   0.211E-02-0.120E-04
CGA:   9    -0.663249560940E+03   -0.42258E-03   -0.42251E-03   768   0.843E-03 0.182E-05
CGA:  10    -0.663249706215E+03   -0.14528E-03   -0.14527E-03   768   0.382E-03-0.248E-06
CGA:  11    -0.663249766607E+03   -0.60391E-04   -0.60420E-04   768   0.131E-03 0.135E-05
  31 F= -.66980657E+03 E0= -.66979651E+03  d E =-.105433E-01  mag=     0.9057
       N       E                     dE             d eps       ncg     rms          ort
SDA:   1    -0.662933300441E+03    0.31641E+00    0.00000E+00   768   0.860E+00 0.000E+00
CGA:   2    -0.663115199993E+03   -0.18190E+00   -0.18192E+00   768   0.518E+00-0.518E-03
CGA:   3    -0.663198873097E+03   -0.83673E-01   -0.83702E-01   768   0.224E+00 0.540E-03
CGA:   4    -0.663233473689E+03   -0.34601E-01   -0.34586E-01   768   0.684E-01-0.225E-03
CGA:   5    -0.663245430230E+03   -0.11957E-01   -0.11957E-01   768   0.244E-01 0.468E-04
CGA:   6    -0.663249911520E+03   -0.44813E-02   -0.44818E-02   768   0.117E-01-0.553E-04
CGA:   7    -0.663251947230E+03   -0.20357E-02   -0.20357E-02   768   0.631E-02-0.587E-06
CGA:   8    -0.663253068543E+03   -0.11213E-02   -0.11213E-02   768   0.271E-02-0.144E-04
CGA:   9    -0.663253614554E+03   -0.54601E-03   -0.54592E-03   768   0.101E-02 0.249E-05
CGA:  10    -0.663253800902E+03   -0.18635E-03   -0.18635E-03   768   0.461E-03-0.354E-06
CGA:  11    -0.663253870315E+03   -0.69413E-04   -0.69455E-04   768   0.168E-03 0.141E-05
  32 F= -.66981069E+03 E0= -.66980054E+03  d E =-.146657E-01  mag=     0.9000
       N       E                     dE             d eps       ncg     rms          ort
SDA:   1    -0.663126058016E+03    0.12774E+00    0.00000E+00   768   0.342E+00 0.000E+00
CGA:   2    -0.663207905290E+03   -0.81847E-01   -0.81854E-01   768   0.209E+00-0.109E-03
CGA:   3    -0.663241167435E+03   -0.33262E-01   -0.33264E-01   768   0.861E-01 0.850E-05
CGA:   4    -0.663253905892E+03   -0.12738E-01   -0.12736E-01   768   0.245E-01-0.210E-04
CGA:   5    -0.663258284400E+03   -0.43785E-02   -0.43785E-02   768   0.800E-02 0.626E-05
CGA:   6    -0.663259816050E+03   -0.15316E-02   -0.15318E-02   768   0.357E-02-0.841E-05
CGA:   7    -0.663260505122E+03   -0.68907E-03   -0.68908E-03   768   0.202E-02-0.172E-05
CGA:   8    -0.663260832686E+03   -0.32756E-03   -0.32748E-03   768   0.998E-03-0.310E-05
CGA:   9    -0.663261026774E+03   -0.19409E-03   -0.19408E-03   768   0.361E-03 0.463E-06
CGA:  10    -0.663261103121E+03   -0.76347E-04   -0.76358E-04   768   0.147E-03-0.310E-06
  33 F= -.66981806E+03 E0= -.66980791E+03  d E =-.736704E-02  mag=     0.8978
       N       E                     dE             d eps       ncg     rms          ort
SDA:   1    -0.663031979405E+03    0.22905E+00    0.00000E+00   768   0.588E+00 0.000E+00
CGA:   2    -0.663172794371E+03   -0.14081E+00   -0.14084E+00   768   0.360E+00-0.328E-03
CGA:   3    -0.663230023416E+03   -0.57229E-01   -0.57244E-01   768   0.148E+00 0.191E-03
CGA:   4    -0.663251916429E+03   -0.21893E-01   -0.21884E-01   768   0.424E-01-0.586E-04
CGA:   5    -0.663259381264E+03   -0.74648E-02   -0.74651E-02   768   0.145E-01 0.250E-04
CGA:   6    -0.663262018896E+03   -0.26376E-02   -0.26376E-02   768   0.668E-02-0.172E-04
CGA:   7    -0.663263218957E+03   -0.12001E-02   -0.12001E-02   768   0.367E-02-0.140E-05
CGA:   8    -0.663263845532E+03   -0.62658E-03   -0.62649E-03   768   0.164E-02-0.565E-05
CGA:   9    -0.663264189315E+03   -0.34378E-03   -0.34374E-03   768   0.644E-03 0.105E-05
CGA:  10    -0.663264314354E+03   -0.12504E-03   -0.12505E-03   768   0.300E-03-0.585E-06
CGA:  11    -0.663264361172E+03   -0.46818E-04   -0.46837E-04   768   0.126E-03 0.705E-06
  34 F= -.66982149E+03 E0= -.66981135E+03  d E =-.107907E-01  mag=     0.8951
       N       E                     dE             d eps       ncg     rms          ort
SDA:   1    -0.663109306171E+03    0.15501E+00    0.00000E+00   768   0.408E+00 0.000E+00
CGA:   2    -0.663211170450E+03   -0.10186E+00   -0.10187E+00   768   0.246E+00-0.553E-04
CGA:   3    -0.663248891423E+03   -0.37721E-01   -0.37735E-01   768   0.100E+00 0.130E-03
CGA:   4    -0.663263693289E+03   -0.14802E-01   -0.14798E-01   768   0.275E-01-0.983E-05
CGA:   5    -0.663268515399E+03   -0.48221E-02   -0.48223E-02   768   0.938E-02 0.161E-04
CGA:   6    -0.663270246629E+03   -0.17312E-02   -0.17313E-02   768   0.446E-02-0.126E-04
CGA:   7    -0.663271025281E+03   -0.77865E-03   -0.77863E-03   768   0.242E-02-0.435E-05
CGA:   8    -0.663271452282E+03   -0.42700E-03   -0.42698E-03   768   0.109E-02-0.433E-05
CGA:   9    -0.663271676073E+03   -0.22379E-03   -0.22375E-03   768   0.424E-03 0.149E-05
CGA:  10    -0.663271758582E+03   -0.82510E-04   -0.82502E-04   768   0.200E-03 0.649E-06
  35 F= -.66982886E+03 E0= -.66981880E+03  d E =-.737414E-02  mag=     0.8950
       N       E                     dE             d eps       ncg     rms          ort
SDA:   1    -0.662667626885E+03    0.60405E+00    0.00000E+00   768   0.153E+01 0.000E+00
CGA:   2    -0.663050038236E+03   -0.38241E+00   -0.38245E+00   768   0.924E+00-0.399E-03
CGA:   3    -0.663191558655E+03   -0.14152E+00   -0.14165E+00   768   0.375E+00 0.131E-02
CGA:   4    -0.663247081892E+03   -0.55523E-01   -0.55491E-01   768   0.103E+00-0.149E-03
CGA:   5    -0.663265067684E+03   -0.17986E-01   -0.17988E-01   768   0.364E-01 0.117E-03
CGA:   6    -0.663271638549E+03   -0.65709E-02   -0.65708E-02   768   0.170E-01-0.655E-04
CGA:   7    -0.663274626940E+03   -0.29884E-02   -0.29884E-02   768   0.898E-02-0.320E-05
CGA:   8    -0.663276251655E+03   -0.16247E-02   -0.16247E-02   768   0.402E-02-0.158E-04
CGA:   9    -0.663277079179E+03   -0.82752E-03   -0.82733E-03   768   0.161E-02 0.577E-05
CGA:  10    -0.663277381510E+03   -0.30233E-03   -0.30233E-03   768   0.754E-03 0.569E-06
CGA:  11    -0.663277498778E+03   -0.11727E-03   -0.11732E-03   768   0.279E-03 0.215E-05
CGA:  12    -0.663277553687E+03   -0.54909E-04   -0.54908E-04   768   0.104E-03 0.212E-07
  36 F= -.66983459E+03 E0= -.66982469E+03  d E =-.131053E-01  mag=     0.8951
       N       E                     dE             d eps       ncg     rms          ort
SDA:   1    -0.663121762365E+03    0.15574E+00    0.00000E+00   768   0.437E+00 0.000E+00
CGA:   2    -0.663213586959E+03   -0.91825E-01   -0.91824E-01   768   0.251E+00 0.486E-05
CGA:   3    -0.663255386282E+03   -0.41799E-01   -0.41799E-01   768   0.121E+00-0.504E-04
CGA:   4    -0.663273943276E+03   -0.18557E-01   -0.18557E-01   768   0.335E-01-0.686E-05
CGA:   5    -0.663280098126E+03   -0.61548E-02   -0.61548E-02   768   0.120E-01 0.108E-04
CGA:   6    -0.663282525361E+03   -0.24272E-02   -0.24276E-02   768   0.538E-02-0.121E-04
CGA:   7    -0.663283659599E+03   -0.11342E-02   -0.11342E-02   768   0.288E-02 0.864E-06
CGA:   8    -0.663284143181E+03   -0.48358E-03   -0.48351E-03   768   0.152E-02-0.272E-05
CGA:   9    -0.663284389430E+03   -0.24625E-03   -0.24630E-03   768   0.483E-03 0.180E-05
CGA:  10    -0.663284490653E+03   -0.10122E-03   -0.10120E-03   768   0.156E-03 0.877E-06
CGA:  11    -0.663284521674E+03   -0.31021E-04   -0.31005E-04   768   0.802E-04 0.111E-05
  37 F= -.66984148E+03 E0= -.66983160E+03  d E =-.688941E-02  mag=     0.8932
       N       E                     dE             d eps       ncg     rms          ort
SDA:   1    -0.662208701506E+03    0.10758E+01    0.00000E+00   768   0.292E+01 0.000E+00
CGA:   2    -0.662819786952E+03   -0.61109E+00   -0.61096E+00   768   0.167E+01 0.188E-02
CGA:   3    -0.663099193444E+03   -0.27941E+00   -0.27930E+00   768   0.803E+00-0.394E-02
CGA:   4    -0.663222194368E+03   -0.12300E+00   -0.12304E+00   768   0.223E+00-0.111E-03
CGA:   5    -0.663263126692E+03   -0.40932E-01   -0.40933E-01   768   0.801E-01-0.250E-03
CGA:   6    -0.663279448635E+03   -0.16322E-01   -0.16325E-01   768   0.339E-01-0.945E-04
CGA:   7    -0.663287251168E+03   -0.78025E-02   -0.78035E-02   768   0.148E-01-0.177E-04
CGA:   8    -0.663290689869E+03   -0.34387E-02   -0.34399E-02   768   0.568E-02-0.181E-04
CGA:   9    -0.663291867117E+03   -0.11772E-02   -0.11770E-02   768   0.238E-02 0.936E-05
CGA:  10    -0.663292218400E+03   -0.35128E-03   -0.35127E-03   768   0.110E-02 0.687E-06
CGA:  11    -0.663292403554E+03   -0.18515E-03   -0.18520E-03   768   0.295E-03 0.272E-05
CGA:  12    -0.663292479604E+03   -0.76050E-04   -0.76021E-04   768   0.129E-03 0.399E-06
  38 F= -.66984923E+03 E0= -.66983938E+03  d E =-.146354E-01  mag=     0.8892
       N       E                     dE             d eps       ncg     rms          ort
SDA:   1    -0.662980307679E+03    0.31210E+00    0.00000E+00   768   0.891E+00 0.000E+00
CGA:   2    -0.663151368931E+03   -0.17106E+00   -0.17106E+00   768   0.489E+00 0.599E-03
CGA:   3    -0.663235052341E+03   -0.83683E-01   -0.83630E-01   768   0.259E+00-0.149E-02
CGA:   4    -0.663276194482E+03   -0.41142E-01   -0.41160E-01   768   0.746E-01 0.461E-04
CGA:   5    -0.663289825522E+03   -0.13631E-01   -0.13630E-01   768   0.277E-01-0.115E-03
CGA:   6    -0.663295233913E+03   -0.54084E-02   -0.54080E-02   768   0.125E-01 0.211E-04
CGA:   7    -0.663297743841E+03   -0.25099E-02   -0.25104E-02   768   0.694E-02-0.224E-04
CGA:   8    -0.663298854231E+03   -0.11104E-02   -0.11107E-02   768   0.320E-02 0.453E-05
CGA:   9    -0.663299425962E+03   -0.57173E-03   -0.57170E-03   768   0.101E-02-0.230E-05
CGA:  10    -0.663299632050E+03   -0.20609E-03   -0.20606E-03   768   0.363E-03 0.148E-05
CGA:  11    -0.663299695816E+03   -0.63766E-04   -0.63764E-04   768   0.186E-03-0.164E-06
  39 F= -.66985654E+03 E0= -.66984669E+03  d E =-.731333E-02  mag=     0.8855
       N       E                     dE             d eps       ncg     rms          ort
SDA:   1    -0.663022290994E+03    0.27734E+00    0.00000E+00   768   0.781E+00 0.000E+00
CGA:   2    -0.663171924987E+03   -0.14963E+00   -0.14963E+00   768   0.429E+00 0.556E-03
CGA:   3    -0.663245124396E+03   -0.73199E-01   -0.73163E-01   768   0.227E+00-0.130E-02
CGA:   4    -0.663281259656E+03   -0.36135E-01   -0.36148E-01   768   0.655E-01 0.524E-04
CGA:   5    -0.663293183240E+03   -0.11924E-01   -0.11923E-01   768   0.241E-01-0.977E-04
CGA:   6    -0.663297951031E+03   -0.47678E-02   -0.47673E-02   768   0.110E-01 0.192E-04
CGA:   7    -0.663300141083E+03   -0.21901E-02   -0.21905E-02   768   0.613E-02-0.180E-04
CGA:   8    -0.663301122294E+03   -0.98121E-03   -0.98141E-03   768   0.279E-02 0.427E-05
CGA:   9    -0.663301623517E+03   -0.50122E-03   -0.50121E-03   768   0.879E-03-0.197E-05
CGA:  10    -0.663301804044E+03   -0.18053E-03   -0.18049E-03   768   0.322E-03 0.137E-05
CGA:  11    -0.663301860042E+03   -0.55999E-04   -0.55997E-04   768   0.165E-03-0.181E-06
  40 F= -.66985880E+03 E0= -.66984894E+03  d E =-.957617E-02  mag=     0.8824
       N       E                     dE             d eps       ncg     rms          ort
SDA:   1    -0.663095870893E+03    0.20593E+00    0.00000E+00   768   0.582E+00 0.000E+00
CGA:   2    -0.663213524567E+03   -0.11765E+00   -0.11763E+00   768   0.332E+00 0.517E-03
CGA:   3    -0.663267954388E+03   -0.54430E-01   -0.54401E-01   768   0.162E+00-0.763E-03
CGA:   4    -0.663293457672E+03   -0.25503E-01   -0.25511E-01   768   0.457E-01 0.281E-04
CGA:   5    -0.663301667564E+03   -0.82099E-02   -0.82097E-02   768   0.168E-01-0.584E-04
CGA:   6    -0.663305012217E+03   -0.33447E-02   -0.33443E-02   768   0.785E-02 0.924E-05
CGA:   7    -0.663306534191E+03   -0.15220E-02   -0.15222E-02   768   0.442E-02-0.113E-04
CGA:   8    -0.663307250413E+03   -0.71622E-03   -0.71633E-03   768   0.196E-02 0.291E-05
CGA:   9    -0.663307610068E+03   -0.35965E-03   -0.35966E-03   768   0.637E-03-0.113E-05
CGA:  10    -0.663307740904E+03   -0.13084E-03   -0.13080E-03   768   0.242E-03 0.163E-05
CGA:  11    -0.663307781246E+03   -0.40341E-04   -0.40343E-04   768   0.119E-03 0.124E-06
  41 F= -.66986480E+03 E0= -.66985496E+03  d E =-.599800E-02  mag=     0.8806
       N       E                     dE             d eps       ncg     rms          ort
SDA:   1    -0.662481077348E+03    0.82666E+00    0.00000E+00   768   0.229E+01 0.000E+00
CGA:   2    -0.662941288348E+03   -0.46021E+00   -0.46003E+00   768   0.131E+01 0.451E-02
CGA:   3    -0.663155624872E+03   -0.21434E+00   -0.21411E+00   768   0.639E+00-0.662E-02
CGA:   4    -0.663256011199E+03   -0.10039E+00   -0.10045E+00   768   0.179E+00 0.295E-03
CGA:   5    -0.663288344118E+03   -0.32333E-01   -0.32333E-01   768   0.663E-01-0.537E-03
CGA:   6    -0.663301410597E+03   -0.13066E-01   -0.13064E-01   768   0.306E-01 0.787E-04
CGA:   7    -0.663307353162E+03   -0.59426E-02   -0.59446E-02   768   0.171E-01-0.949E-04
CGA:   8    -0.663310131212E+03   -0.27781E-02   -0.27787E-02   768   0.752E-02 0.157E-04
CGA:   9    -0.663311520195E+03   -0.13890E-02   -0.13890E-02   768   0.244E-02-0.834E-05
CGA:  10    -0.663312016562E+03   -0.49637E-03   -0.49626E-03   768   0.924E-03 0.420E-05
CGA:  11    -0.663312168112E+03   -0.15155E-03   -0.15155E-03   768   0.430E-03 0.275E-07
CGA:  12    -0.663312241315E+03   -0.73204E-04   -0.73222E-04   768   0.148E-03 0.165E-05
  42 F= -.66986943E+03 E0= -.66985961E+03  d E =-.106322E-01  mag=     0.8773
       N       E                     dE             d eps       ncg     rms          ort
SDA:   1    -0.663137251868E+03    0.17492E+00    0.00000E+00   768   0.477E+00 0.000E+00
CGA:   2    -0.663242649656E+03   -0.10540E+00   -0.10537E+00   768   0.289E+00 0.458E-03
CGA:   3    -0.663287081506E+03   -0.44432E-01   -0.44392E-01   768   0.129E+00-0.568E-03
CGA:   4    -0.663307132266E+03   -0.20051E-01   -0.20056E-01   768   0.346E-01-0.150E-05
CGA:   5    -0.663313267815E+03   -0.61355E-02   -0.61351E-02   768   0.123E-01-0.376E-04
CGA:   6    -0.663315562914E+03   -0.22951E-02   -0.22950E-02   768   0.593E-02 0.762E-05
CGA:   7    -0.663316658138E+03   -0.10952E-02   -0.10952E-02   768   0.318E-02-0.556E-05
CGA:   8    -0.663317214453E+03   -0.55631E-03   -0.55634E-03   768   0.142E-02 0.192E-05
CGA:   9    -0.663317496362E+03   -0.28191E-03   -0.28194E-03   768   0.531E-03-0.133E-05
CGA:  10    -0.663317597589E+03   -0.10123E-03   -0.10122E-03   768   0.242E-03 0.127E-05
CGA:  11    -0.663317636438E+03   -0.38849E-04   -0.38850E-04   768   0.963E-04 0.611E-07
  43 F= -.66987510E+03 E0= -.66986531E+03  d E =-.566121E-02  mag=     0.8772
       N       E                     dE             d eps       ncg     rms          ort
SDA:   1    -0.662298759725E+03    0.10188E+01    0.00000E+00   768   0.271E+01 0.000E+00
CGA:   2    -0.662897118607E+03   -0.59836E+00   -0.59793E+00   768   0.163E+01 0.605E-02
CGA:   3    -0.663149869003E+03   -0.25275E+00   -0.25227E+00   768   0.734E+00-0.752E-02
CGA:   4    -0.663262450164E+03   -0.11258E+00   -0.11267E+00   768   0.196E+00 0.217E-03
CGA:   5    -0.663297254666E+03   -0.34805E-01   -0.34800E-01   768   0.697E-01-0.578E-03
CGA:   6    -0.663310372741E+03   -0.13118E-01   -0.13117E-01   768   0.330E-01 0.955E-04
CGA:   7    -0.663316478703E+03   -0.61060E-02   -0.61063E-02   768   0.179E-01-0.824E-04
CGA:   8    -0.663319541450E+03   -0.30627E-02   -0.30631E-02   768   0.780E-02 0.169E-04
CGA:   9    -0.663321098654E+03   -0.15572E-02   -0.15575E-02   768   0.287E-02-0.110E-04
CGA:  10    -0.663321650380E+03   -0.55173E-03   -0.55168E-03   768   0.127E-02 0.436E-05
CGA:  11    -0.663321851014E+03   -0.20063E-03   -0.20063E-03   768   0.494E-03-0.102E-06
CGA:  12    -0.663321947010E+03   -0.95996E-04   -0.95976E-04   768   0.189E-03 0.168E-05
  44 F= -.66988005E+03 E0= -.66987034E+03  d E =-.106170E-01  mag=     0.8769
       N       E                     dE             d eps       ncg     rms          ort
SDA:   1    -0.663029686795E+03    0.29216E+00    0.00000E+00   768   0.769E+00 0.000E+00
CGA:   2    -0.663217481662E+03   -0.18779E+00   -0.18774E+00   768   0.441E+00 0.441E-03
CGA:   3    -0.663283923094E+03   -0.66441E-01   -0.66381E-01   768   0.196E+00-0.725E-03
CGA:   4    -0.663312840906E+03   -0.28918E-01   -0.28928E-01   768   0.495E-01-0.263E-04
CGA:   5    -0.663321548920E+03   -0.87080E-02   -0.87073E-02   768   0.165E-01-0.448E-04
CGA:   6    -0.663324558656E+03   -0.30097E-02   -0.30097E-02   768   0.782E-02 0.983E-05
CGA:   7    -0.663325977127E+03   -0.14185E-02   -0.14184E-02   768   0.397E-02-0.775E-05
CGA:   8    -0.663326690399E+03   -0.71327E-03   -0.71328E-03   768   0.186E-02 0.729E-06
CGA:   9    -0.663327067425E+03   -0.37703E-03   -0.37707E-03   768   0.767E-03-0.180E-05
CGA:  10    -0.663327212886E+03   -0.14546E-03   -0.14545E-03   768   0.367E-03 0.215E-05
CGA:  11    -0.663327273186E+03   -0.60300E-04   -0.60307E-04   768   0.142E-03 0.385E-06
  45 F= -.66988581E+03 E0= -.66987610E+03  d E =-.575528E-02  mag=     0.8772
       N       E                     dE             d eps       ncg     rms          ort
SDA:   1    -0.662599376780E+03    0.72784E+00    0.00000E+00   768   0.189E+01 0.000E+00
CGA:   2    -0.663062013285E+03   -0.46264E+00   -0.46246E+00   768   0.106E+01 0.149E-02
CGA:   3    -0.663224612010E+03   -0.16260E+00   -0.16239E+00   768   0.478E+00-0.268E-02
CGA:   4    -0.663294008963E+03   -0.69397E-01   -0.69446E-01   768   0.122E+00-0.302E-04
CGA:   5    -0.663315258384E+03   -0.21249E-01   -0.21246E-01   768   0.408E-01-0.193E-03
CGA:   6    -0.663322701031E+03   -0.74426E-02   -0.74427E-02   768   0.192E-01 0.316E-04
CGA:   7    -0.663326163245E+03   -0.34622E-02   -0.34621E-02   768   0.976E-02-0.265E-04
CGA:   8    -0.663327903727E+03   -0.17405E-02   -0.17405E-02   768   0.449E-02 0.455E-05
CGA:   9    -0.663328815467E+03   -0.91174E-03   -0.91187E-03   768   0.186E-02-0.484E-05
CGA:  10    -0.663329163812E+03   -0.34834E-03   -0.34833E-03   768   0.877E-03 0.368E-05
CGA:  11    -0.663329306564E+03   -0.14275E-03   -0.14276E-03   768   0.327E-03 0.474E-06
CGA:  12    -0.663329371633E+03   -0.65068E-04   -0.65047E-04   768   0.138E-03 0.134E-05
  46 F= -.66988858E+03 E0= -.66987885E+03  d E =-.852629E-02  mag=     0.8771
       N       E                     dE             d eps       ncg     rms          ort
SDA:   1    -0.663023464352E+03    0.30584E+00    0.00000E+00   768   0.793E+00 0.000E+00
CGA:   2    -0.663230093043E+03   -0.20663E+00   -0.20651E+00   768   0.409E+00 0.113E-02
CGA:   3    -0.663295305230E+03   -0.65212E-01   -0.65178E-01   768   0.179E+00-0.535E-03
CGA:   4    -0.663320586841E+03   -0.25282E-01   -0.25298E-01   768   0.455E-01-0.269E-05
CGA:   5    -0.663328395874E+03   -0.78090E-02   -0.78080E-02   768   0.147E-01-0.377E-04
CGA:   6    -0.663331057091E+03   -0.26612E-02   -0.26612E-02   768   0.688E-02-0.363E-06
CGA:   7    -0.663332263596E+03   -0.12065E-02   -0.12064E-02   768   0.342E-02-0.902E-05
CGA:   8    -0.663332875555E+03   -0.61196E-03   -0.61196E-03   768   0.158E-02-0.794E-06
CGA:   9    -0.663333199118E+03   -0.32356E-03   -0.32360E-03   768   0.672E-03-0.137E-05
CGA:  10    -0.663333328062E+03   -0.12894E-03   -0.12893E-03   768   0.324E-03 0.234E-05
CGA:  11    -0.663333380296E+03   -0.52233E-04   -0.52244E-04   768   0.126E-03 0.488E-06
  47 F= -.66989293E+03 E0= -.66988322E+03  d E =-.435702E-02  mag=     0.8775
       N       E                     dE             d eps       ncg     rms          ort
SDA:   1    -0.663247926547E+03    0.85402E-01    0.00000E+00   768   0.219E+00 0.000E+00
CGA:   2    -0.663305387768E+03   -0.57461E-01   -0.57446E-01   768   0.111E+00 0.146E-03
CGA:   3    -0.663323410762E+03   -0.18023E-01   -0.18019E-01   768   0.483E-01-0.715E-04
CGA:   4    -0.663330261072E+03   -0.68503E-02   -0.68522E-02   768   0.125E-01-0.230E-05
CGA:   5    -0.663332390130E+03   -0.21291E-02   -0.21290E-02   768   0.388E-02-0.148E-05
CGA:   6    -0.663333143747E+03   -0.75362E-03   -0.75362E-03   768   0.177E-02-0.133E-05
CGA:   7    -0.663333467264E+03   -0.32352E-03   -0.32351E-03   768   0.943E-03-0.306E-05
CGA:   8    -0.663333625682E+03   -0.15842E-03   -0.15841E-03   768   0.452E-03-0.894E-06
CGA:   9    -0.663333715464E+03   -0.89782E-04   -0.89788E-04   768   0.179E-03-0.407E-06
  48 F= -.66989345E+03 E0= -.66988375E+03  d E =-.487474E-02  mag=     0.8777
       N       E                     dE             d eps       ncg     rms          ort
SDA:   1    -0.663199762127E+03    0.13386E+00    0.00000E+00   768   0.352E+00 0.000E+00
CGA:   2    -0.663294165343E+03   -0.94403E-01   -0.94408E-01   768   0.172E+00-0.708E-04
CGA:   3    -0.663322277016E+03   -0.28112E-01   -0.28109E-01   768   0.713E-01-0.568E-04
CGA:   4    -0.663332642014E+03   -0.10365E-01   -0.10366E-01   768   0.187E-01 0.372E-05
CGA:   5    -0.663335878389E+03   -0.32364E-02   -0.32363E-02   768   0.557E-02 0.207E-06
CGA:   6    -0.663336987103E+03   -0.11087E-02   -0.11087E-02   768   0.229E-02-0.230E-05
CGA:   7    -0.663337485469E+03   -0.49837E-03   -0.49848E-03   768   0.895E-03-0.333E-05
CGA:   8    -0.663337710316E+03   -0.22485E-03   -0.22492E-03   768   0.406E-03-0.117E-05
CGA:   9    -0.663337804298E+03   -0.93983E-04   -0.93973E-04   768   0.193E-03 0.277E-06
  49 F= -.66989794E+03 E0= -.66988820E+03  d E =-.448815E-02  mag=     0.8764
       N       E                     dE             d eps       ncg     rms          ort
SDA:   1    -0.662959794918E+03    0.37792E+00    0.00000E+00   768   0.970E+00 0.000E+00
CGA:   2    -0.663219785507E+03   -0.25999E+00   -0.26001E+00   768   0.473E+00-0.319E-03
CGA:   3    -0.663297137145E+03   -0.77352E-01   -0.77338E-01   768   0.196E+00-0.220E-03
CGA:   4    -0.663325515952E+03   -0.28379E-01   -0.28388E-01   768   0.526E-01 0.160E-04
CGA:   5    -0.663334495564E+03   -0.89796E-02   -0.89788E-02   768   0.154E-01-0.152E-04
CGA:   6    -0.663337558398E+03   -0.30628E-02   -0.30629E-02   768   0.631E-02-0.333E-05
CGA:   7    -0.663338917712E+03   -0.13593E-02   -0.13595E-02   768   0.257E-02-0.690E-05
CGA:   8    -0.663339497999E+03   -0.58029E-03   -0.58026E-03   768   0.150E-02-0.583E-07
CGA:   9    -0.663339736824E+03   -0.23883E-03   -0.23880E-03   768   0.781E-03-0.458E-06
CGA:  10    -0.663339874020E+03   -0.13720E-03   -0.13723E-03   768   0.255E-03 0.176E-05
CGA:  11    -0.663339933270E+03   -0.59250E-04   -0.59248E-04   768   0.922E-04 0.561E-07
  50 F= -.66990072E+03 E0= -.66989091E+03  d E =-.726241E-02  mag=     0.8742
       N       E                     dE             d eps       ncg     rms          ort
SDA:   1    -0.663083600154E+03    0.25627E+00    0.00000E+00   768   0.700E+00 0.000E+00
CGA:   2    -0.663247469079E+03   -0.16387E+00   -0.16388E+00   768   0.386E+00-0.135E-03
CGA:   3    -0.663307083826E+03   -0.59615E-01   -0.59650E-01   768   0.160E+00 0.210E-03
CGA:   4    -0.663331418100E+03   -0.24334E-01   -0.24325E-01   768   0.464E-01-0.269E-04
CGA:   5    -0.663339327787E+03   -0.79097E-02   -0.79111E-02   768   0.149E-01 0.240E-04
CGA:   6    -0.663342041735E+03   -0.27139E-02   -0.27137E-02   768   0.743E-02-0.184E-04
CGA:   7    -0.663343337872E+03   -0.12961E-02   -0.12961E-02   768   0.379E-02-0.331E-05
CGA:   8    -0.663344005426E+03   -0.66755E-03   -0.66744E-03   768   0.163E-02-0.604E-05
CGA:   9    -0.663344349983E+03   -0.34456E-03   -0.34452E-03   768   0.659E-03 0.127E-05
CGA:  10    -0.663344473898E+03   -0.12391E-03   -0.12391E-03   768   0.315E-03-0.156E-06
CGA:  11    -0.663344522518E+03   -0.48620E-04   -0.48655E-04   768   0.116E-03 0.978E-06
  51 F= -.66990569E+03 E0= -.66989587E+03  d E =-.497179E-02  mag=     0.8735
       N       E                     dE             d eps       ncg     rms          ort
SDA:   1    -0.662030077335E+03    0.13144E+01    0.00000E+00   768   0.355E+01 0.000E+00
CGA:   2    -0.662858490658E+03   -0.82841E+00   -0.82840E+00   768   0.194E+01 0.143E-04
CGA:   3    -0.663160642865E+03   -0.30215E+00   -0.30235E+00   768   0.796E+00 0.130E-02
CGA:   4    -0.663282533843E+03   -0.12189E+00   -0.12183E+00   768   0.233E+00-0.448E-03
CGA:   5    -0.663322477410E+03   -0.39944E-01   -0.39951E-01   768   0.736E-01 0.150E-03
CGA:   6    -0.663336344814E+03   -0.13867E-01   -0.13868E-01   768   0.356E-01-0.196E-03
CGA:   7    -0.663342716705E+03   -0.63719E-02   -0.63723E-02   768   0.188E-01 0.176E-04
CGA:   8    -0.663345855913E+03   -0.31392E-02   -0.31379E-02   768   0.830E-02-0.319E-04
CGA:   9    -0.663347577643E+03   -0.17217E-02   -0.17213E-02   768   0.313E-02 0.121E-04
CGA:  10    -0.663348210143E+03   -0.63250E-03   -0.63257E-03   768   0.142E-02-0.264E-05
CGA:  11    -0.663348427712E+03   -0.21757E-03   -0.21764E-03   768   0.590E-03 0.207E-05
CGA:  12    -0.663348537174E+03   -0.10946E-03   -0.10946E-03   768   0.198E-03-0.345E-06
CGA:  13    -0.663348579937E+03   -0.42763E-04   -0.42732E-04   768   0.110E-03 0.106E-05
  52 F= -.66991054E+03 E0= -.66990069E+03  d E =-.982924E-02  mag=     0.8716
       N       E                     dE             d eps       ncg     rms          ort
SDA:   1    -0.662901528464E+03    0.44701E+00    0.00000E+00   768   0.128E+01 0.000E+00
CGA:   2    -0.663168459617E+03   -0.26693E+00   -0.26694E+00   768   0.690E+00-0.258E-03
CGA:   3    -0.663278776063E+03   -0.11032E+00   -0.11034E+00   768   0.299E+00 0.903E-04
CGA:   4    -0.663326394413E+03   -0.47618E-01   -0.47607E-01   768   0.934E-01-0.196E-03
CGA:   5    -0.663342745438E+03   -0.16351E-01   -0.16352E-01   768   0.307E-01 0.287E-04
CGA:   6    -0.663348614180E+03   -0.58687E-02   -0.58695E-02   768   0.147E-01-0.649E-04
CGA:   7    -0.663351392652E+03   -0.27785E-02   -0.27784E-02   768   0.813E-02 0.958E-05
CGA:   8    -0.663352687385E+03   -0.12947E-02   -0.12941E-02   768   0.358E-02-0.108E-04
CGA:   9    -0.663353399830E+03   -0.71244E-03   -0.71235E-03   768   0.126E-02 0.382E-05
CGA:  10    -0.663353658262E+03   -0.25843E-03   -0.25847E-03   768   0.509E-03-0.122E-05
CGA:  11    -0.663353738869E+03   -0.80606E-04   -0.80631E-04   768   0.238E-03 0.907E-06
  53 F= -.66991613E+03 E0= -.66990635E+03  d E =-.558245E-02  mag=     0.8733
       N       E                     dE             d eps       ncg     rms          ort
SDA:   1    -0.663164846087E+03    0.18881E+00    0.00000E+00   768   0.536E+00 0.000E+00
CGA:   2    -0.663276805799E+03   -0.11196E+00   -0.11196E+00   768   0.290E+00-0.978E-04
CGA:   3    -0.663322984655E+03   -0.46179E-01   -0.46185E-01   768   0.126E+00 0.407E-04
CGA:   4    -0.663343043700E+03   -0.20059E-01   -0.20056E-01   768   0.397E-01-0.510E-04
CGA:   5    -0.663349927212E+03   -0.68835E-02   -0.68838E-02   768   0.128E-01 0.931E-05
CGA:   6    -0.663352414483E+03   -0.24873E-02   -0.24877E-02   768   0.625E-02-0.208E-04
CGA:   7    -0.663353583857E+03   -0.11694E-02   -0.11694E-02   768   0.348E-02 0.457E-06
CGA:   8    -0.663354137906E+03   -0.55405E-03   -0.55387E-03   768   0.152E-02-0.441E-05
CGA:   9    -0.663354440888E+03   -0.30298E-03   -0.30295E-03   768   0.539E-03 0.140E-05
CGA:  10    -0.663354552078E+03   -0.11119E-03   -0.11120E-03   768   0.223E-03-0.432E-06
CGA:  11    -0.663354587270E+03   -0.35191E-04   -0.35206E-04   768   0.106E-03 0.595E-06
  54 F= -.66991720E+03 E0= -.66990747E+03  d E =-.665992E-02  mag=     0.8746
       N       E                     dE             d eps       ncg     rms          ort
SDA:   1    -0.662977012171E+03    0.37754E+00    0.00000E+00   768   0.107E+01 0.000E+00
CGA:   2    -0.663213383118E+03   -0.23637E+00   -0.23638E+00   768   0.571E+00-0.211E-03
CGA:   3    -0.663301088078E+03   -0.87705E-01   -0.87770E-01   768   0.237E+00 0.694E-03
CGA:   4    -0.663338125109E+03   -0.37037E-01   -0.37022E-01   768   0.729E-01-0.162E-03
CGA:   5    -0.663350173547E+03   -0.12048E-01   -0.12051E-01   768   0.236E-01 0.518E-04
CGA:   6    -0.663354408833E+03   -0.42353E-02   -0.42352E-02   768   0.118E-01-0.430E-04
CGA:   7    -0.663356458262E+03   -0.20494E-02   -0.20495E-02   768   0.588E-02 0.342E-06
CGA:   8    -0.663357524186E+03   -0.10659E-02   -0.10659E-02   768   0.251E-02-0.123E-04
CGA:   9    -0.663358044429E+03   -0.52024E-03   -0.52013E-03   768   0.107E-02 0.281E-05
CGA:  10    -0.663358235083E+03   -0.19065E-03   -0.19065E-03   768   0.489E-03-0.545E-06
CGA:  11    -0.663358312355E+03   -0.77272E-04   -0.77303E-04   768   0.169E-03 0.126E-05
  55 F= -.66992121E+03 E0= -.66991157E+03  d E =-.400105E-02  mag=     0.8764
       N       E                     dE             d eps       ncg     rms          ort
SDA:   1    -0.663322576470E+03    0.35659E-01    0.00000E+00   768   0.100E+00 0.000E+00
CGA:   2    -0.663344879642E+03   -0.22303E-01   -0.22304E-01   768   0.535E-01-0.107E-04
CGA:   3    -0.663353114141E+03   -0.82345E-02   -0.82357E-02   768   0.223E-01 0.769E-05
CGA:   4    -0.663356590610E+03   -0.34765E-02   -0.34762E-02   768   0.685E-02-0.217E-05
CGA:   5    -0.663357722237E+03   -0.11316E-02   -0.11317E-02   768   0.213E-02-0.171E-06
CGA:   6    -0.663358124476E+03   -0.40224E-03   -0.40228E-03   768   0.108E-02-0.396E-05
CGA:   7    -0.663358313586E+03   -0.18911E-03   -0.18910E-03   768   0.574E-03-0.248E-05
CGA:   8    -0.663358413186E+03   -0.99601E-04   -0.99588E-04   768   0.245E-03-0.188E-05
  56 F= -.66992138E+03 E0= -.66991177E+03  d E =-.417903E-02  mag=     0.8770
       N       E                     dE             d eps       ncg     rms          ort
SDA:   1    -0.663029563376E+03    0.32875E+00    0.00000E+00   768   0.899E+00 0.000E+00
CGA:   2    -0.663262690257E+03   -0.23313E+00   -0.23318E+00   768   0.388E+00-0.530E-03
CGA:   3    -0.663326558101E+03   -0.63868E-01   -0.63891E-01   768   0.167E+00 0.435E-03
CGA:   4    -0.663350458441E+03   -0.23900E-01   -0.23888E-01   768   0.462E-01-0.207E-04
CGA:   5    -0.663357883715E+03   -0.74253E-02   -0.74263E-02   768   0.134E-01 0.206E-04
CGA:   6    -0.663360153186E+03   -0.22695E-02   -0.22693E-02   768   0.619E-02-0.956E-05
CGA:   7    -0.663361203153E+03   -0.10500E-02   -0.10499E-02   768   0.261E-02-0.460E-05
CGA:   8    -0.663361687225E+03   -0.48407E-03   -0.48411E-03   768   0.121E-02-0.525E-05
CGA:   9    -0.663361943696E+03   -0.25647E-03   -0.25644E-03   768   0.617E-03 0.723E-06
CGA:  10    -0.663362054662E+03   -0.11097E-03   -0.11096E-03   768   0.305E-03-0.442E-06
CGA:  11    -0.663362108132E+03   -0.53470E-04   -0.53474E-04   768   0.115E-03 0.645E-06
  57 F= -.66992574E+03 E0= -.66991611E+03  d E =-.435981E-02  mag=     0.8760
       N       E                     dE             d eps       ncg     rms          ort
SDA:   1    -0.663044788810E+03    0.31727E+00    0.00000E+00   768   0.859E+00 0.000E+00
CGA:   2    -0.663268364249E+03   -0.22358E+00   -0.22362E+00   768   0.366E+00-0.436E-03
CGA:   3    -0.663329644260E+03   -0.61280E-01   -0.61295E-01   768   0.156E+00 0.299E-03
CGA:   4    -0.663352203846E+03   -0.22560E-01   -0.22550E-01   768   0.434E-01-0.237E-04
CGA:   5    -0.663359072854E+03   -0.68690E-02   -0.68701E-02   768   0.121E-01 0.162E-04
CGA:   6    -0.663361219953E+03   -0.21471E-02   -0.21470E-02   768   0.557E-02-0.102E-04
CGA:   7    -0.663362148449E+03   -0.92850E-03   -0.92844E-03   768   0.250E-02-0.468E-05
CGA:   8    -0.663362591294E+03   -0.44284E-03   -0.44282E-03   768   0.112E-02-0.478E-05
CGA:   9    -0.663362837282E+03   -0.24599E-03   -0.24595E-03   768   0.538E-03 0.728E-06
CGA:  10    -0.663362940668E+03   -0.10339E-03   -0.10339E-03   768   0.286E-03-0.377E-06
CGA:  11    -0.663362987321E+03   -0.46653E-04   -0.46665E-04   768   0.111E-03 0.580E-06
  58 F= -.66992725E+03 E0= -.66991759E+03  d E =-.587049E-02  mag=     0.8751
       N       E                     dE             d eps       ncg     rms          ort
SDA:   1    -0.663256870251E+03    0.10607E+00    0.00000E+00   768   0.287E+00 0.000E+00
CGA:   2    -0.663339445333E+03   -0.82575E-01   -0.82594E-01   768   0.940E-01-0.163E-03
CGA:   3    -0.663359644635E+03   -0.20199E-01   -0.20196E-01   768   0.293E-01 0.785E-04
CGA:   4    -0.663364388350E+03   -0.47437E-02   -0.47434E-02   768   0.932E-02 0.393E-05
CGA:   5    -0.663365641578E+03   -0.12532E-02   -0.12535E-02   768   0.253E-02 0.150E-05
CGA:   6    -0.663366142917E+03   -0.50134E-03   -0.50137E-03   768   0.105E-02-0.240E-05
CGA:   7    -0.663366293427E+03   -0.15051E-03   -0.15043E-03   768   0.434E-03-0.169E-05
CGA:   8    -0.663366380055E+03   -0.86627E-04   -0.86641E-04   768   0.204E-03-0.843E-06
  59 F= -.66993106E+03 E0= -.66992132E+03  d E =-.380653E-02  mag=     0.8737
       N       E                     dE             d eps       ncg     rms          ort
SDA:   1    -0.663224610441E+03    0.14168E+00    0.00000E+00   768   0.375E+00 0.000E+00
CGA:   2    -0.663331995893E+03   -0.10739E+00   -0.10741E+00   768   0.125E+00-0.241E-03
CGA:   3    -0.663357733035E+03   -0.25737E-01   -0.25734E-01   768   0.477E-01 0.108E-03
CGA:   4    -0.663364036818E+03   -0.63038E-02   -0.63032E-02   768   0.158E-01 0.153E-04
CGA:   5    -0.663366322062E+03   -0.22852E-02   -0.22851E-02   768   0.378E-02 0.212E-05
CGA:   6    -0.663367021055E+03   -0.69899E-03   -0.69899E-03   768   0.177E-02-0.197E-05
CGA:   7    -0.663367302290E+03   -0.28124E-03   -0.28116E-03   768   0.579E-03-0.278E-05
CGA:   8    -0.663367422470E+03   -0.12018E-03   -0.12020E-03   768   0.364E-03-0.108E-05
CGA:   9    -0.663367487289E+03   -0.64819E-04   -0.64825E-04   768   0.172E-03 0.728E-06
  60 F= -.66993262E+03 E0= -.66992279E+03  d E =-.536788E-02  mag=     0.8719
       N       E                     dE             d eps       ncg     rms          ort
SDA:   1    -0.663307815677E+03    0.59607E-01    0.00000E+00   768   0.162E+00 0.000E+00
CGA:   2    -0.663354693799E+03   -0.46878E-01   -0.46869E-01   768   0.546E-01 0.796E-04
CGA:   3    -0.663365456472E+03   -0.10763E-01   -0.10763E-01   768   0.228E-01 0.145E-04
CGA:   4    -0.663368347126E+03   -0.28907E-02   -0.28910E-02   768   0.671E-02 0.844E-05
CGA:   5    -0.663369341238E+03   -0.99411E-03   -0.99399E-03   768   0.169E-02-0.219E-05
CGA:   6    -0.663369646671E+03   -0.30543E-03   -0.30541E-03   768   0.722E-03-0.332E-05
CGA:   7    -0.663369766820E+03   -0.12015E-03   -0.12010E-03   768   0.258E-03-0.223E-05
CGA:   8    -0.663369814290E+03   -0.47470E-04   -0.47469E-04   768   0.148E-03-0.608E-06
  61 F= -.66993514E+03 E0= -.66992530E+03  d E =-.251889E-02  mag=     0.8719
       N       E                     dE             d eps       ncg     rms          ort
SDA:   1    -0.663221601569E+03    0.14817E+00    0.00000E+00   768   0.391E+00 0.000E+00
CGA:   2    -0.663333753111E+03   -0.11215E+00   -0.11212E+00   768   0.140E+00 0.317E-03
CGA:   3    -0.663358670392E+03   -0.24917E-01   -0.24918E-01   768   0.688E-01 0.197E-04
CGA:   4    -0.663366901567E+03   -0.82312E-02   -0.82383E-02   768   0.169E-01 0.118E-04
CGA:   5    -0.663369755793E+03   -0.28542E-02   -0.28542E-02   768   0.370E-02-0.988E-06
CGA:   6    -0.663370497883E+03   -0.74209E-03   -0.74217E-03   768   0.171E-02-0.558E-05
CGA:   7    -0.663370754814E+03   -0.25693E-03   -0.25681E-03   768   0.639E-03-0.312E-05
CGA:   8    -0.663370871794E+03   -0.11698E-03   -0.11698E-03   768   0.334E-03-0.101E-05
CGA:   9    -0.663370939228E+03   -0.67433E-04   -0.67420E-04   768   0.151E-03 0.814E-06
  62 F= -.66993655E+03 E0= -.66992670E+03  d E =-.393086E-02  mag=     0.8718
       N       E                     dE             d eps       ncg     rms          ort
SDA:   1    -0.663286775412E+03    0.84096E-01    0.00000E+00   768   0.229E+00 0.000E+00
CGA:   2    -0.663352419278E+03   -0.65644E-01   -0.65650E-01   768   0.764E-01-0.575E-04
CGA:   3    -0.663367593354E+03   -0.15174E-01   -0.15174E-01   768   0.292E-01 0.485E-04
CGA:   4    -0.663371614374E+03   -0.40210E-02   -0.40200E-02   768   0.877E-02 0.797E-05
CGA:   5    -0.663372892924E+03   -0.12785E-02   -0.12785E-02   768   0.232E-02-0.153E-05
CGA:   6    -0.663373293805E+03   -0.40088E-03   -0.40085E-03   768   0.108E-02-0.230E-05
CGA:   7    -0.663373461847E+03   -0.16804E-03   -0.16801E-03   768   0.346E-03-0.108E-05
CGA:   8    -0.663373532286E+03   -0.70439E-04   -0.70439E-04   768   0.187E-03-0.127E-07
  63 F= -.66993941E+03 E0= -.66992955E+03  d E =-.285409E-02  mag=     0.8722
       N       E                     dE             d eps       ncg     rms          ort
SDA:   1    -0.662868269208E+03    0.50519E+00    0.00000E+00   768   0.134E+01 0.000E+00
CGA:   2    -0.663250708145E+03   -0.38244E+00   -0.38255E+00   768   0.465E+00-0.896E-03
CGA:   3    -0.663337024394E+03   -0.86316E-01   -0.86324E-01   768   0.204E+00 0.643E-03
CGA:   4    -0.663362473871E+03   -0.25449E-01   -0.25453E-01   768   0.588E-01 0.849E-04
CGA:   5    -0.663371584277E+03   -0.91104E-02   -0.91095E-02   768   0.133E-01 0.144E-05
CGA:   6    -0.663374083184E+03   -0.24989E-02   -0.24989E-02   768   0.606E-02-0.705E-05
CGA:   7    -0.663375035328E+03   -0.95214E-03   -0.95205E-03   768   0.206E-02-0.231E-05
CGA:   8    -0.663375416894E+03   -0.38157E-03   -0.38157E-03   768   0.116E-02 0.198E-06
CGA:   9    -0.663375641155E+03   -0.22426E-03   -0.22424E-03   768   0.525E-03 0.225E-05
CGA:  10    -0.663375752180E+03   -0.11102E-03   -0.11102E-03   768   0.309E-03 0.123E-06
CGA:  11    -0.663375806284E+03   -0.54105E-04   -0.54111E-04   768   0.137E-03 0.645E-06
  64 F= -.66994228E+03 E0= -.66993245E+03  d E =-.572787E-02  mag=     0.8737
       N       E                     dE             d eps       ncg     rms          ort
SDA:   1    -0.663239543988E+03    0.13621E+00    0.00000E+00   768   0.375E+00 0.000E+00
CGA:   2    -0.663341844971E+03   -0.10230E+00   -0.10231E+00   768   0.145E+00-0.914E-04
CGA:   3    -0.663366849400E+03   -0.25004E-01   -0.25007E-01   768   0.606E-01 0.643E-04
CGA:   4    -0.663375396155E+03   -0.85468E-02   -0.85445E-02   768   0.165E-01 0.691E-05
CGA:   5    -0.663377979102E+03   -0.25829E-02   -0.25831E-02   768   0.423E-02 0.568E-06
CGA:   6    -0.663378743897E+03   -0.76480E-03   -0.76477E-03   768   0.195E-02-0.339E-05
CGA:   7    -0.663379050774E+03   -0.30688E-03   -0.30685E-03   768   0.802E-03-0.853E-06
CGA:   8    -0.663379190751E+03   -0.13998E-03   -0.13997E-03   768   0.362E-03-0.234E-06
CGA:   9    -0.663379272999E+03   -0.82248E-04   -0.82203E-04   768   0.174E-03 0.102E-05
  65 F= -.66994600E+03 E0= -.66993618E+03  d E =-.371705E-02  mag=     0.8744
       N       E                     dE             d eps       ncg     rms          ort
SDA:   1    -0.662124711459E+03    0.12545E+01    0.00000E+00   768   0.339E+01 0.000E+00
CGA:   2    -0.663043342689E+03   -0.91863E+00   -0.91888E+00   768   0.133E+01-0.234E-02
CGA:   3    -0.663268963621E+03   -0.22562E+00   -0.22575E+00   768   0.555E+00 0.248E-02
CGA:   4    -0.663347815191E+03   -0.78852E-01   -0.78776E-01   768   0.150E+00 0.493E-04
CGA:   5    -0.663371534353E+03   -0.23719E-01   -0.23726E-01   768   0.407E-01 0.977E-04
CGA:   6    -0.663378462610E+03   -0.69283E-02   -0.69275E-02   768   0.186E-01-0.219E-04
CGA:   7    -0.663381451235E+03   -0.29886E-02   -0.29886E-02   768   0.722E-02 0.139E-06
CGA:   8    -0.663382758001E+03   -0.13068E-02   -0.13067E-02   768   0.326E-02-0.263E-05
CGA:   9    -0.663383489130E+03   -0.73113E-03   -0.73088E-03   768   0.168E-02 0.568E-05
CGA:  10    -0.663383795705E+03   -0.30658E-03   -0.30657E-03   768   0.929E-03-0.723E-06
CGA:  11    -0.663383960401E+03   -0.16470E-03   -0.16470E-03   768   0.360E-03 0.102E-05
CGA:  12    -0.663384034338E+03   -0.73937E-04   -0.73957E-04   768   0.154E-03-0.980E-06
  66 F= -.66995149E+03 E0= -.66994171E+03  d E =-.920545E-02  mag=     0.8765
       N       E                     dE             d eps       ncg     rms          ort
SDA:   1    -0.663097296394E+03    0.28666E+00    0.00000E+00   768   0.785E+00 0.000E+00
CGA:   2    -0.663307449548E+03   -0.21015E+00   -0.21011E+00   768   0.329E+00 0.496E-03
CGA:   3    -0.663358768713E+03   -0.51319E-01   -0.51355E-01   768   0.145E+00 0.339E-03
CGA:   4    -0.663379157826E+03   -0.20389E-01   -0.20381E-01   768   0.382E-01 0.213E-04
CGA:   5    -0.663385070203E+03   -0.59124E-02   -0.59131E-02   768   0.104E-01 0.761E-05
CGA:   6    -0.663386784781E+03   -0.17146E-02   -0.17144E-02   768   0.442E-02-0.735E-05
CGA:   7    -0.663387538772E+03   -0.75399E-03   -0.75396E-03   768   0.172E-02-0.320E-05
CGA:   8    -0.663387853129E+03   -0.31436E-03   -0.31436E-03   768   0.833E-03-0.195E-05
CGA:   9    -0.663388023560E+03   -0.17043E-03   -0.17041E-03   768   0.442E-03 0.101E-05
CGA:  10    -0.663388106243E+03   -0.82683E-04   -0.82685E-04   768   0.218E-03-0.484E-06
  67 F= -.66995572E+03 E0= -.66994592E+03  d E =-.422985E-02  mag=     0.8758
       N       E                     dE             d eps       ncg     rms          ort
SDA:   1    -0.663340019191E+03    0.48004E-01    0.00000E+00   768   0.131E+00 0.000E+00
CGA:   2    -0.663374980127E+03   -0.34961E-01   -0.34958E-01   768   0.556E-01 0.264E-04
CGA:   3    -0.663383519490E+03   -0.85394E-02   -0.85417E-02   768   0.245E-01 0.182E-04
CGA:   4    -0.663387012838E+03   -0.34933E-02   -0.34934E-02   768   0.643E-02 0.872E-05
CGA:   5    -0.663387974464E+03   -0.96163E-03   -0.96161E-03   768   0.184E-02-0.152E-05
CGA:   6    -0.663388290878E+03   -0.31641E-03   -0.31638E-03   768   0.737E-03-0.262E-05
CGA:   7    -0.663388421209E+03   -0.13033E-03   -0.13032E-03   768   0.318E-03-0.162E-05
CGA:   8    -0.663388477107E+03   -0.55899E-04   -0.55895E-04   768   0.153E-03-0.743E-06
  68 F= -.66995615E+03 E0= -.66994635E+03  d E =-.466378E-02  mag=     0.8754
       N       E                     dE             d eps       ncg     rms          ort
SDA:   1    -0.663137259893E+03    0.25116E+00    0.00000E+00   768   0.680E+00 0.000E+00
CGA:   2    -0.663329704780E+03   -0.19244E+00   -0.19246E+00   768   0.230E+00-0.104E-03
CGA:   3    -0.663373743727E+03   -0.44039E-01   -0.44037E-01   768   0.950E-01 0.204E-03
CGA:   4    -0.663385981628E+03   -0.12238E-01   -0.12237E-01   768   0.282E-01 0.233E-04
CGA:   5    -0.663390123585E+03   -0.41420E-02   -0.41415E-02   768   0.666E-02-0.526E-06
CGA:   6    -0.663391322138E+03   -0.11986E-02   -0.11985E-02   768   0.284E-02-0.208E-05
CGA:   7    -0.663391778707E+03   -0.45657E-03   -0.45652E-03   768   0.941E-03-0.229E-05
CGA:   8    -0.663391953920E+03   -0.17521E-03   -0.17522E-03   768   0.519E-03-0.808E-06
CGA:   9    -0.663392051278E+03   -0.97358E-04   -0.97352E-04   768   0.244E-03 0.115E-05
  69 F= -.66995998E+03 E0= -.66995010E+03  d E =-.382643E-02  mag=     0.8731
       N       E                     dE             d eps       ncg     rms          ort
SDA:   1    -0.662735167281E+03    0.65679E+00    0.00000E+00   768   0.176E+01 0.000E+00
CGA:   2    -0.663233792990E+03   -0.49863E+00   -0.49867E+00   768   0.586E+00-0.406E-03
CGA:   3    -0.663349139811E+03   -0.11535E+00   -0.11533E+00   768   0.224E+00 0.100E-02
CGA:   4    -0.663380144005E+03   -0.31004E-01   -0.30983E-01   768   0.662E-01 0.128E-04
CGA:   5    -0.663389628547E+03   -0.94845E-02   -0.94839E-02   768   0.175E-01 0.671E-05
CGA:   6    -0.663392581710E+03   -0.29532E-02   -0.29531E-02   768   0.745E-02-0.167E-05
CGA:   7    -0.663393780468E+03   -0.11988E-02   -0.11987E-02   768   0.234E-02-0.290E-05
CGA:   8    -0.663394242965E+03   -0.46250E-03   -0.46251E-03   768   0.126E-02-0.871E-06
CGA:   9    -0.663394480098E+03   -0.23713E-03   -0.23712E-03   768   0.664E-03 0.208E-05
CGA:  10    -0.663394607589E+03   -0.12749E-03   -0.12749E-03   768   0.335E-03 0.169E-06
CGA:  11    -0.663394676072E+03   -0.68483E-04   -0.68472E-04   768   0.159E-03 0.550E-06
  70 F= -.66996299E+03 E0= -.66995300E+03  d E =-.684098E-02  mag=     0.8688
       N       E                     dE             d eps       ncg     rms          ort
SDA:   1    -0.663257757391E+03    0.13685E+00    0.00000E+00   768   0.373E+00 0.000E+00
CGA:   2    -0.663360851032E+03   -0.10309E+00   -0.10313E+00   768   0.146E+00-0.348E-03
CGA:   3    -0.663385610640E+03   -0.24760E-01   -0.24763E-01   768   0.645E-01 0.827E-04
CGA:   4    -0.663394167828E+03   -0.85572E-02   -0.85552E-02   768   0.168E-01 0.163E-04
CGA:   5    -0.663396829353E+03   -0.26615E-02   -0.26616E-02   768   0.449E-02 0.364E-05
CGA:   6    -0.663397586625E+03   -0.75727E-03   -0.75727E-03   768   0.193E-02 0.239E-06
CGA:   7    -0.663397912289E+03   -0.32566E-03   -0.32564E-03   768   0.729E-03-0.175E-05
CGA:   8    -0.663398044947E+03   -0.13266E-03   -0.13266E-03   768   0.366E-03-0.992E-06
CGA:   9    -0.663398119020E+03   -0.74073E-04   -0.74048E-04   768   0.187E-03 0.125E-05
  71 F= -.66996677E+03 E0= -.66995680E+03  d E =-.378280E-02  mag=     0.8704
       N       E                     dE             d eps       ncg     rms          ort
SDA:   1    -0.663364646234E+03    0.33399E-01    0.00000E+00   768   0.899E-01 0.000E+00
CGA:   2    -0.663389451929E+03   -0.24806E-01   -0.24810E-01   768   0.349E-01-0.385E-04
CGA:   3    -0.663395455086E+03   -0.60032E-02   -0.60036E-02   768   0.153E-01 0.113E-04
CGA:   4    -0.663397530805E+03   -0.20757E-02   -0.20754E-02   768   0.368E-02 0.281E-05
CGA:   5    -0.663398143991E+03   -0.61319E-03   -0.61320E-03   768   0.115E-02 0.610E-06
CGA:   6    -0.663398326758E+03   -0.18277E-03   -0.18277E-03   768   0.500E-03 0.134E-06
CGA:   7    -0.663398412125E+03   -0.85367E-04   -0.85356E-04   768   0.195E-03-0.907E-06
  72 F= -.66996723E+03 E0= -.66995726E+03  d E =-.423831E-02  mag=     0.8711
       N       E                     dE             d eps       ncg     rms          ort
SDA:   1    -0.663316310851E+03    0.82016E-01    0.00000E+00   768   0.225E+00 0.000E+00
CGA:   2    -0.663379415008E+03   -0.63104E-01   -0.63096E-01   768   0.913E-01 0.881E-04
CGA:   3    -0.663392572010E+03   -0.13157E-01   -0.13146E-01   768   0.454E-01-0.439E-04
CGA:   4    -0.663398717342E+03   -0.61453E-02   -0.61489E-02   768   0.909E-02 0.235E-04
CGA:   5    -0.663400398641E+03   -0.16813E-02   -0.16813E-02   768   0.196E-02-0.476E-05
CGA:   6    -0.663400797930E+03   -0.39929E-03   -0.39935E-03   768   0.922E-03-0.309E-05
CGA:   7    -0.663400927107E+03   -0.12918E-03   -0.12907E-03   768   0.332E-03-0.221E-05
CGA:   8    -0.663400990377E+03   -0.63270E-04   -0.63275E-04   768   0.174E-03-0.606E-06
  73 F= -.66996994E+03 E0= -.66996003E+03  d E =-.270993E-02  mag=     0.8737
       N       E                     dE             d eps       ncg     rms          ort
SDA:   1    -0.663269968371E+03    0.13096E+00    0.00000E+00   768   0.352E+00 0.000E+00
CGA:   2    -0.663367502544E+03   -0.97534E-01   -0.97514E-01   768   0.154E+00 0.208E-03
CGA:   3    -0.663388227048E+03   -0.20725E-01   -0.20690E-01   768   0.724E-01-0.419E-04
CGA:   4    -0.663398773656E+03   -0.10547E-01   -0.10551E-01   768   0.135E-01 0.423E-04
CGA:   5    -0.663401323195E+03   -0.25495E-02   -0.25496E-02   768   0.325E-02-0.616E-05
CGA:   6    -0.663401921638E+03   -0.59844E-03   -0.59845E-03   768   0.153E-02-0.295E-05
CGA:   7    -0.663402148044E+03   -0.22641E-03   -0.22630E-03   768   0.524E-03-0.291E-05
CGA:   8    -0.663402242119E+03   -0.94074E-04   -0.94073E-04   768   0.278E-03-0.917E-06
  74 F= -.66997135E+03 E0= -.66996153E+03  d E =-.411796E-02  mag=     0.8771
       N       E                     dE             d eps       ncg     rms          ort
SDA:   1    -0.663377743439E+03    0.24405E-01    0.00000E+00   768   0.706E-01 0.000E+00
CGA:   2    -0.663397206568E+03   -0.19463E-01   -0.19461E-01   768   0.335E-01 0.245E-04
CGA:   3    -0.663401533906E+03   -0.43273E-02   -0.43242E-02   768   0.146E-01-0.115E-05
CGA:   4    -0.663403733528E+03   -0.21996E-02   -0.22002E-02   768   0.287E-02 0.139E-04
CGA:   5    -0.663404284337E+03   -0.55081E-03   -0.55084E-03   768   0.747E-03-0.374E-05
CGA:   6    -0.663404420135E+03   -0.13580E-03   -0.13580E-03   768   0.349E-03-0.189E-05
CGA:   7    -0.663404473064E+03   -0.52929E-04   -0.52902E-04   768   0.137E-03-0.821E-06
  75 F= -.66997353E+03 E0= -.66996371E+03  d E =-.218284E-02  mag=     0.8768
       N       E                     dE             d eps       ncg     rms          ort
SDA:   1    -0.663336427007E+03    0.67993E-01    0.00000E+00   768   0.181E+00 0.000E+00
CGA:   2    -0.663387843949E+03   -0.51417E-01   -0.51407E-01   768   0.755E-01 0.927E-04
CGA:   3    -0.663398763596E+03   -0.10920E-01   -0.10915E-01   768   0.370E-01-0.146E-04
CGA:   4    -0.663403759746E+03   -0.49961E-02   -0.49981E-02   768   0.781E-02 0.214E-04
CGA:   5    -0.663405207324E+03   -0.14476E-02   -0.14476E-02   768   0.170E-02-0.585E-05
CGA:   6    -0.663405562718E+03   -0.35539E-03   -0.35549E-03   768   0.788E-03-0.378E-05
CGA:   7    -0.663405674982E+03   -0.11226E-03   -0.11222E-03   768   0.324E-03-0.894E-06
CGA:   8    -0.663405737307E+03   -0.62326E-04   -0.62322E-04   768   0.157E-03 0.333E-06
  76 F= -.66997471E+03 E0= -.66996487E+03  d E =-.336439E-02  mag=     0.8758
       N       E                     dE             d eps       ncg     rms          ort
SDA:   1    -0.663385326768E+03    0.20348E-01    0.00000E+00   768   0.572E-01 0.000E+00
CGA:   2    -0.663401569929E+03   -0.16243E-01   -0.16245E-01   768   0.227E-01-0.186E-04
CGA:   3    -0.663405105987E+03   -0.35361E-02   -0.35351E-02   768   0.113E-01-0.754E-05
CGA:   4    -0.663406535440E+03   -0.14295E-02   -0.14302E-02   768   0.231E-02 0.724E-05
CGA:   5    -0.663406970508E+03   -0.43507E-03   -0.43507E-03   768   0.536E-03-0.110E-05
CGA:   6    -0.663407077805E+03   -0.10730E-03   -0.10730E-03   768   0.245E-03 0.772E-07
CGA:   7    -0.663407114280E+03   -0.36476E-04   -0.36463E-04   768   0.956E-04-0.328E-06
  77 F= -.66997611E+03 E0= -.66996625E+03  d E =-.139994E-02  mag=     0.8749
       N       E                     dE             d eps       ncg     rms          ort
SDA:   1    -0.663349420884E+03    0.57657E-01    0.00000E+00   768   0.152E+00 0.000E+00
CGA:   2    -0.663393514481E+03   -0.44094E-01   -0.44106E-01   768   0.547E-01-0.105E-03
CGA:   3    -0.663403352706E+03   -0.98382E-02   -0.98379E-02   768   0.253E-01-0.157E-04
CGA:   4    -0.663406346459E+03   -0.29938E-02   -0.29961E-02   768   0.668E-02 0.871E-05
CGA:   5    -0.663407485682E+03   -0.11392E-02   -0.11392E-02   768   0.131E-02-0.234E-05
CGA:   6    -0.663407776089E+03   -0.29041E-03   -0.29043E-03   768   0.552E-03-0.697E-06
CGA:   7    -0.663407856149E+03   -0.80059E-04   -0.80046E-04   768   0.236E-03-0.235E-06
  78 F= -.66997689E+03 E0= -.66996698E+03  d E =-.217662E-02  mag=     0.8734
       N       E                     dE             d eps       ncg     rms          ort
SDA:   1    -0.663385722550E+03    0.22054E-01    0.00000E+00   768   0.622E-01 0.000E+00
CGA:   2    -0.663403499899E+03   -0.17777E-01   -0.17778E-01   768   0.242E-01-0.756E-05
CGA:   3    -0.663407345478E+03   -0.38456E-02   -0.38451E-02   768   0.118E-01-0.427E-05
CGA:   4    -0.663408818817E+03   -0.14733E-02   -0.14741E-02   768   0.268E-02 0.783E-05
CGA:   5    -0.663409302744E+03   -0.48393E-03   -0.48392E-03   768   0.613E-03-0.223E-05
CGA:   6    -0.663409424427E+03   -0.12168E-03   -0.12171E-03   768   0.282E-03-0.163E-05
CGA:   7    -0.663409467463E+03   -0.43035E-04   -0.43017E-04   768   0.113E-03-0.538E-06
  79 F= -.66997855E+03 E0= -.66996864E+03  d E =-.166145E-02  mag=     0.8737
       N       E                     dE             d eps       ncg     rms          ort
SDA:   1    -0.663197120793E+03    0.21230E+00    0.00000E+00   768   0.561E+00 0.000E+00
CGA:   2    -0.663356797799E+03   -0.15968E+00   -0.15969E+00   768   0.229E+00-0.915E-04
CGA:   3    -0.663390815910E+03   -0.34018E-01   -0.33984E-01   768   0.113E+00-0.170E-03
CGA:   4    -0.663405588899E+03   -0.14773E-01   -0.14783E-01   768   0.230E-01 0.396E-04
CGA:   5    -0.663409778425E+03   -0.41895E-02   -0.41895E-02   768   0.522E-02-0.902E-05
CGA:   6    -0.663410810014E+03   -0.10316E-02   -0.10316E-02   768   0.229E-02-0.357E-05
CGA:   7    -0.663411149017E+03   -0.33900E-03   -0.33891E-03   768   0.880E-03-0.193E-05
CGA:   8    -0.663411305973E+03   -0.15696E-03   -0.15696E-03   768   0.432E-03-0.297E-07
CGA:   9    -0.663411398305E+03   -0.92332E-04   -0.92276E-04   768   0.201E-03 0.183E-05
  80 F= -.66998062E+03 E0= -.66997073E+03  d E =-.373702E-02  mag=     0.8752
       N       E                     dE             d eps       ncg     rms          ort
SDA:   1    -0.663371658246E+03    0.39648E-01    0.00000E+00   768   0.108E+00 0.000E+00
CGA:   2    -0.663402765277E+03   -0.31107E-01   -0.31099E-01   768   0.437E-01 0.688E-04
CGA:   3    -0.663409203170E+03   -0.64379E-02   -0.64348E-02   768   0.218E-01-0.103E-04
CGA:   4    -0.663412092761E+03   -0.28896E-02   -0.28912E-02   768   0.420E-02 0.131E-04
CGA:   5    -0.663412870320E+03   -0.77756E-03   -0.77755E-03   768   0.103E-02-0.588E-05
CGA:   6    -0.663413066523E+03   -0.19620E-03   -0.19622E-03   768   0.461E-03-0.229E-05
CGA:   7    -0.663413137004E+03   -0.70481E-04   -0.70428E-04   768   0.173E-03-0.157E-05
  81 F= -.66998239E+03 E0= -.66997253E+03  d E =-.176377E-02  mag=     0.8763
