       N       E                     dE             d eps       ncg     rms          rms(c)
DAV:   1     0.248128113409E+04    0.24813E+04   -0.10777E+05  3352   0.107E+03
DAV:   2    -0.226882045273E+03   -0.27082E+04   -0.25905E+04  4216   0.280E+02
DAV:   3    -0.687150903477E+03   -0.46027E+03   -0.45744E+03  3568   0.122E+02
DAV:   4    -0.704041524166E+03   -0.16891E+02   -0.16748E+02  3552   0.287E+01
DAV:   5    -0.704593367422E+03   -0.55184E+00   -0.54996E+00  4024   0.438E+00    0.469E+01
RMM:   6    -0.731331221468E+03   -0.26738E+02   -0.52123E+02  4078   0.389E+01    0.841E+01
RMM:   7    -0.662782564730E+03    0.68549E+02   -0.59998E+01  3047   0.137E+01    0.326E+01
RMM:   8    -0.662713680780E+03    0.68884E-01   -0.23430E+01  3131   0.707E+00    0.286E+01
RMM:   9    -0.647392498976E+03    0.15321E+02   -0.20289E+01  2971   0.843E+00    0.120E+01
RMM:  10    -0.647812607112E+03   -0.42011E+00   -0.34397E+00  2996   0.321E+00    0.147E+01
RMM:  11    -0.646688819770E+03    0.11238E+01   -0.41403E-01  3131   0.107E+00    0.758E+00
RMM:  12    -0.646642774754E+03    0.46045E-01   -0.16320E-01  2946   0.939E-01    0.720E+00
RMM:  13    -0.646724693841E+03   -0.81919E-01   -0.30023E-02  2978   0.390E-01    0.733E+00
RMM:  14    -0.646473434540E+03    0.25126E+00   -0.33582E-02  2972   0.418E-01    0.731E+00
RMM:  15    -0.646570927857E+03   -0.97493E-01   -0.11484E-02  2995   0.199E-01    0.766E+00
RMM:  16    -0.646463199463E+03    0.10773E+00   -0.72113E-02  2971   0.415E-01    0.566E+00
RMM:  17    -0.646100350028E+03    0.36285E+00   -0.56479E-01  2948   0.114E+00    0.520E+00
RMM:  18    -0.645521200323E+03    0.57915E+00   -0.34022E-01  3047   0.764E-01    0.601E+00
RMM:  19    -0.645930519609E+03   -0.40932E+00   -0.59362E-02  3015   0.417E-01    0.515E+00
RMM:  20    -0.646377791627E+03   -0.44727E+00   -0.15442E-01  2958   0.592E-01    0.693E+00
RMM:  21    -0.646438595303E+03   -0.60804E-01   -0.26017E-01  2968   0.672E-01    0.473E+00
RMM:  22    -0.646639776162E+03   -0.20118E+00   -0.85147E-02  2976   0.370E-01    0.571E+00
RMM:  23    -0.646478457279E+03    0.16132E+00   -0.14655E-01  2956   0.662E-01    0.426E+00
RMM:  24    -0.646604573511E+03   -0.12612E+00   -0.47639E-02  2961   0.345E-01    0.343E+00
RMM:  25    -0.646315097418E+03    0.28948E+00   -0.16357E-01  2955   0.567E-01    0.248E+00
RMM:  26    -0.646717765006E+03   -0.40267E+00   -0.42935E-01  2962   0.673E-01    0.210E+00
RMM:  27    -0.646772482554E+03   -0.54718E-01   -0.92468E-02  3027   0.303E-01    0.227E+00
RMM:  28    -0.646773231591E+03   -0.74904E-03   -0.17148E-02  3179   0.117E-01    0.239E+00
RMM:  29    -0.646765492515E+03    0.77391E-02   -0.27970E-03  2724   0.594E-02    0.233E+00
RMM:  30    -0.646754042887E+03    0.11450E-01   -0.41248E-03  2918   0.916E-02    0.212E+00
RMM:  31    -0.646734676365E+03    0.19367E-01   -0.74838E-03  2945   0.109E-01    0.200E+00
RMM:  32    -0.646759321635E+03   -0.24645E-01   -0.73050E-03  2945   0.115E-01    0.211E+00
RMM:  33    -0.646593515758E+03    0.16581E+00   -0.19445E-01  2947   0.501E-01    0.191E+00
RMM:  34    -0.646641855780E+03   -0.48340E-01   -0.12817E-02  2980   0.134E-01    0.184E+00
RMM:  35    -0.646644880675E+03   -0.30249E-02   -0.24977E-03  2541   0.283E-02    0.186E+00
RMM:  36    -0.646333026176E+03    0.31185E+00   -0.16541E-01  2958   0.486E-01    0.200E+00
RMM:  37    -0.646585544694E+03   -0.25252E+00   -0.85523E-02  2945   0.396E-01    0.176E+00
RMM:  38    -0.646434801092E+03    0.15074E+00   -0.75726E-02  2964   0.456E-01    0.295E+00
RMM:  39    -0.646283250919E+03    0.15155E+00   -0.38576E-02  2992   0.289E-01    0.355E+00
RMM:  40    -0.646379605831E+03   -0.96355E-01   -0.85455E-03  2972   0.178E-01    0.302E+00
RMM:  41    -0.646356251568E+03    0.23354E-01   -0.12986E-03  3015   0.597E-02    0.324E+00
RMM:  42    -0.646408583244E+03   -0.52332E-01   -0.50898E-03  2936   0.863E-02    0.313E+00
RMM:  43    -0.646695265464E+03   -0.28668E+00   -0.18675E-01  3005   0.520E-01    0.223E+00
RMM:  44    -0.646782818923E+03   -0.87553E-01   -0.12783E-01  3080   0.344E-01    0.244E+00
RMM:  45    -0.646764844174E+03    0.17975E-01   -0.21240E-02  3096   0.177E-01    0.313E+00
RMM:  46    -0.646775545618E+03   -0.10701E-01   -0.37585E-03  3357   0.627E-02    0.312E+00
RMM:  47    -0.646697860609E+03    0.77685E-01   -0.36440E-02  2952   0.260E-01    0.254E+00
RMM:  48    -0.646700731294E+03   -0.28707E-02   -0.41411E-02  2991   0.348E-01    0.263E+00
RMM:  49    -0.646638494210E+03    0.62237E-01   -0.31468E-02  2996   0.279E-01    0.323E+00
RMM:  50    -0.646556801776E+03    0.81692E-01   -0.25862E-02  3023   0.223E-01
   1 F= -.65295609E+03 E0= -.65294202E+03  d E =-.652956E+03  mag=     0.8117
       N       E                     dE             d eps       ncg     rms          rms(c)
DAV:   1    -0.646387624764E+03    0.25087E+00   -0.10714E+00  3272   0.299E+00    0.359E+00
RMM:   2    -0.647299735601E+03   -0.91211E+00   -0.18892E+00  3065   0.172E+00    0.869E+00
RMM:   3    -0.646769390057E+03    0.53035E+00   -0.65733E-01  3091   0.112E+00    0.222E+00
RMM:   4    -0.646766258839E+03    0.31312E-02   -0.64818E-02  3156   0.369E-01    0.158E+00
RMM:   5    -0.646754426183E+03    0.11833E-01   -0.60817E-02  3171   0.310E-01    0.191E+00
RMM:   6    -0.646745102307E+03    0.93239E-02   -0.80619E-03  2994   0.155E-01    0.181E+00
RMM:   7    -0.646748838258E+03   -0.37360E-02   -0.21561E-03  2954   0.564E-02    0.164E+00
RMM:   8    -0.646710208451E+03    0.38630E-01   -0.18656E-02  2972   0.215E-01    0.130E+00
RMM:   9    -0.646687855195E+03    0.22353E-01   -0.36511E-02  2970   0.264E-01    0.149E+00
RMM:  10    -0.646494047140E+03    0.19381E+00   -0.17358E-01  2999   0.561E-01    0.220E+00
RMM:  11    -0.646726991708E+03   -0.23294E+00   -0.12952E-01  2993   0.431E-01    0.148E+00
RMM:  12    -0.646763891478E+03   -0.36900E-01   -0.33524E-02  3007   0.195E-01    0.123E+00
RMM:  13    -0.646777748667E+03   -0.13857E-01   -0.79048E-03  3096   0.976E-02    0.120E+00
RMM:  14    -0.646808669448E+03   -0.30921E-01   -0.16428E-02  3016   0.176E-01    0.140E+00
RMM:  15    -0.646863963454E+03   -0.55294E-01   -0.40497E-02  3049   0.258E-01    0.210E+00
RMM:  16    -0.646883150736E+03   -0.19187E-01   -0.13941E-02  3164   0.146E-01    0.232E+00
RMM:  17    -0.646860933669E+03    0.22217E-01   -0.17607E-03  2914   0.800E-02    0.237E+00
RMM:  18    -0.646874103831E+03   -0.13170E-01   -0.14611E-03  2864   0.378E-02    0.240E+00
RMM:  19    -0.646849679819E+03    0.24424E-01   -0.10372E-03  2906   0.546E-02    0.234E+00
RMM:  20    -0.646834623437E+03    0.15056E-01   -0.10681E-03  2990   0.478E-02    0.221E+00
RMM:  21    -0.646808883746E+03    0.25740E-01   -0.38441E-03  3050   0.906E-02    0.190E+00
RMM:  22    -0.646796437613E+03    0.12446E-01   -0.52894E-03  3090   0.962E-02    0.152E+00
RMM:  23    -0.646784087481E+03    0.12350E-01   -0.39844E-03  2979   0.844E-02    0.126E+00
RMM:  24    -0.646769714446E+03    0.14373E-01   -0.57601E-03  3024   0.944E-02    0.110E+00
RMM:  25    -0.646774282116E+03   -0.45677E-02   -0.28544E-03  3028   0.651E-02    0.104E+00
RMM:  26    -0.646647002176E+03    0.12728E+00   -0.85438E-02  2990   0.373E-01    0.135E+00
RMM:  27    -0.646690119556E+03   -0.43117E-01   -0.13167E-02  3179   0.155E-01    0.131E+00
RMM:  28    -0.646666826587E+03    0.23293E-01   -0.93317E-03  3213   0.109E-01    0.136E+00
RMM:  29    -0.646694083036E+03   -0.27256E-01   -0.62078E-03  2667   0.869E-02    0.129E+00
RMM:  30    -0.646638517626E+03    0.55565E-01   -0.19301E-02  2968   0.162E-01    0.144E+00
RMM:  31    -0.646529569662E+03    0.10895E+00   -0.39489E-02  3047   0.253E-01    0.167E+00
RMM:  32    -0.646584814635E+03   -0.55245E-01   -0.53436E-03  2814   0.913E-02    0.156E+00
RMM:  33    -0.646593394203E+03   -0.85796E-02   -0.65939E-04  2175   0.245E-02    0.153E+00
RMM:  34    -0.646531128961E+03    0.62265E-01   -0.89253E-03  2905   0.119E-01    0.169E+00
RMM:  35    -0.646518039374E+03    0.13090E-01   -0.15131E-03  2924   0.467E-02    0.175E+00
RMM:  36    -0.646575554558E+03   -0.57515E-01   -0.75248E-03  2929   0.107E-01    0.159E+00
RMM:  37    -0.646661219558E+03   -0.85665E-01   -0.31327E-02  3001   0.210E-01    0.136E+00
RMM:  38    -0.646677953894E+03   -0.16734E-01   -0.60646E-03  3037   0.815E-02    0.132E+00
RMM:  39    -0.646616540416E+03    0.61413E-01   -0.18364E-02  2906   0.161E-01    0.144E+00
RMM:  40    -0.646615893851E+03    0.64656E-03   -0.40326E-04  2214   0.250E-02    0.145E+00
RMM:  41    -0.646618709777E+03   -0.28159E-02   -0.59901E-05  1962   0.119E-02    0.145E+00
RMM:  42    -0.646633264823E+03   -0.14555E-01   -0.14266E-03  2748   0.478E-02    0.146E+00
RMM:  43    -0.646712243154E+03   -0.78978E-01   -0.40296E-02  2986   0.226E-01    0.126E+00
RMM:  44    -0.646760754563E+03   -0.48511E-01   -0.36732E-02  3047   0.220E-01    0.967E-01
RMM:  45    -0.646772352442E+03   -0.11598E-01   -0.12318E-02  3134   0.102E-01    0.101E+00
RMM:  46    -0.646806448630E+03   -0.34096E-01   -0.30812E-02  3026   0.174E-01    0.115E+00
RMM:  47    -0.646855976450E+03   -0.49528E-01   -0.44884E-02  3055   0.225E-01    0.184E+00
RMM:  48    -0.646911042016E+03   -0.55066E-01   -0.33588E-02  3117   0.204E-01    0.226E+00
RMM:  49    -0.646900568135E+03    0.10474E-01   -0.65045E-03  3132   0.111E-01    0.242E+00
RMM:  50    -0.646916697722E+03   -0.16130E-01   -0.40237E-03  3325   0.625E-02
   2 F= -.65331631E+03 E0= -.65330106E+03  d E =-.360222E+00  mag=     1.0013
       N       E                     dE             d eps       ncg     rms          rms(c)
DAV:   1    -0.646907687437E+03   -0.71193E-02   -0.10205E-03  3424   0.392E-02    0.263E+00
RMM:   2    -0.647112428620E+03   -0.20474E+00   -0.51975E-01  3064   0.922E-01    0.420E+00
RMM:   3    -0.646990243429E+03    0.12219E+00   -0.27685E-01  3091   0.741E-01    0.207E+00
RMM:   4    -0.646894713931E+03    0.95529E-01   -0.12315E-01  3081   0.431E-01    0.890E-01
RMM:   5    -0.646928240379E+03   -0.33526E-01   -0.44197E-02  3124   0.262E-01    0.518E-01
RMM:   6    -0.647007929852E+03   -0.79689E-01   -0.24983E-02  2992   0.176E-01    0.296E-01
RMM:   7    -0.647072135780E+03   -0.64206E-01   -0.20853E-02  2963   0.139E-01    0.172E-01
RMM:   8    -0.647106058068E+03   -0.33922E-01   -0.92683E-03  2957   0.843E-02    0.141E-01
RMM:   9    -0.647117915023E+03   -0.11857E-01   -0.26441E-03  2672   0.388E-02    0.128E-01
RMM:  10    -0.647107799957E+03    0.10115E-01   -0.69302E-04  2291   0.243E-02    0.235E-01
RMM:  11    -0.647133487008E+03   -0.25687E-01   -0.15749E-03  2504   0.383E-02    0.141E-01
RMM:  12    -0.647138561790E+03   -0.50748E-02   -0.78304E-04  2269   0.238E-02    0.716E-02
RMM:  13    -0.647138794717E+03   -0.23293E-03   -0.13845E-04  2218   0.123E-02    0.451E-02
RMM:  14    -0.647139092581E+03   -0.29786E-03   -0.53298E-05  2130   0.761E-03    0.204E-02
RMM:  15    -0.647139760109E+03   -0.66753E-03   -0.26580E-05  1685   0.586E-03    0.114E-02
RMM:  16    -0.647140029733E+03   -0.26962E-03   -0.32601E-05  1687   0.520E-03    0.557E-03
RMM:  17    -0.647140112045E+03   -0.82312E-04   -0.13460E-05  1330   0.371E-03    0.799E-03
RMM:  18    -0.647140198820E+03   -0.86775E-04   -0.90206E-06  1206   0.319E-03    0.469E-03
RMM:  19    -0.647140228742E+03   -0.29922E-04   -0.34921E-06  1054   0.219E-03    0.240E-03
RMM:  20    -0.647140239557E+03   -0.10815E-04   -0.11369E-06   896   0.178E-03    0.749E-04
RMM:  21    -0.647140244784E+03   -0.52271E-05   -0.58066E-07   773   0.158E-03
   3 F= -.65353985E+03 E0= -.65352445E+03  d E =-.583768E+00  mag=     1.7187
       N       E                     dE             d eps       ncg     rms          rms(c)
DAV:   1    -0.647145215095E+03   -0.49755E-02   -0.28207E-01  3432   0.162E+00    0.156E-01
RMM:   2    -0.647145940016E+03   -0.72492E-03   -0.12977E-02  3038   0.228E-01    0.910E-02
RMM:   3    -0.647145544861E+03    0.39515E-03   -0.77297E-04  3317   0.560E-02    0.597E-02
RMM:   4    -0.647145417455E+03    0.12741E-03   -0.15445E-04  2912   0.242E-02    0.464E-02
RMM:   5    -0.647145510013E+03   -0.92558E-04   -0.11554E-04  2061   0.178E-02    0.497E-02
RMM:   6    -0.647145658185E+03   -0.14817E-03   -0.32244E-05  1929   0.117E-02    0.800E-03
RMM:   7    -0.647145857715E+03   -0.19953E-03   -0.88687E-06  1792   0.524E-03    0.412E-03
RMM:   8    -0.647145991650E+03   -0.13393E-03   -0.50412E-06  1611   0.342E-03    0.207E-03
RMM:   9    -0.647146062449E+03   -0.70800E-04   -0.30132E-06  1208   0.236E-03    0.107E-03
RMM:  10    -0.647146086146E+03   -0.23697E-04   -0.10982E-06   980   0.184E-03    0.691E-04
RMM:  11    -0.647146095791E+03   -0.96447E-05   -0.59781E-07   846   0.167E-03
   4 F= -.65354553E+03 E0= -.65353042E+03  d E =-.589446E+00  mag=     1.7520
       N       E                     dE             d eps       ncg     rms          rms(c)
DAV:   1    -0.647146894403E+03   -0.80826E-03   -0.23379E-02  3392   0.465E-01    0.448E-02
RMM:   2    -0.647146916981E+03   -0.22578E-04   -0.10722E-03  3036   0.656E-02    0.260E-02
RMM:   3    -0.647146879864E+03    0.37117E-04   -0.58432E-05  2081   0.163E-02    0.172E-02
RMM:   4    -0.647146864483E+03    0.15381E-04   -0.14331E-05  1827   0.900E-03    0.112E-02
RMM:   5    -0.647146883867E+03   -0.19384E-04   -0.10460E-05  1811   0.716E-03    0.154E-02
RMM:   6    -0.647146901275E+03   -0.17408E-04   -0.33868E-06  1695   0.470E-03    0.259E-03
RMM:   7    -0.647146931719E+03   -0.30444E-04   -0.10383E-06  1147   0.221E-03    0.138E-03
RMM:   8    -0.647146954284E+03   -0.22565E-04   -0.66577E-07   943   0.181E-03    0.620E-04
RMM:   9    -0.647146962693E+03   -0.84084E-05   -0.28344E-07   689   0.155E-03
   5 F= -.65354635E+03 E0= -.65353133E+03  d E =-.590261E+00  mag=     1.7610
       N       E                     dE             d eps       ncg     rms          rms(c)
DAV:   1    -0.647147426199E+03   -0.47191E-03   -0.39235E-02  3328   0.603E-01    0.579E-02
RMM:   2    -0.647147478489E+03   -0.52289E-04   -0.17982E-03  3039   0.849E-02    0.337E-02
RMM:   3    -0.647147422259E+03    0.56230E-04   -0.10030E-04  2379   0.209E-02    0.223E-02
RMM:   4    -0.647147399365E+03    0.22894E-04   -0.22145E-05  1857   0.108E-02    0.141E-02
RMM:   5    -0.647147430207E+03   -0.30843E-04   -0.16081E-05  1850   0.855E-03    0.197E-02
RMM:   6    -0.647147453859E+03   -0.23651E-04   -0.54367E-06  1762   0.565E-03    0.319E-03
RMM:   7    -0.647147498874E+03   -0.45015E-04   -0.16363E-06  1354   0.256E-03    0.163E-03
RMM:   8    -0.647147529082E+03   -0.30208E-04   -0.91051E-07   992   0.196E-03    0.772E-04
RMM:   9    -0.647147542423E+03   -0.13341E-04   -0.46614E-07   755   0.166E-03    0.406E-04
RMM:  10    -0.647147547203E+03   -0.47798E-05   -0.19280E-07   631   0.154E-03
   6 F= -.65354686E+03 E0= -.65353197E+03  d E =-.590777E+00  mag=     1.7727
