       N       E                     dE             d eps       ncg     rms          rms(c)
DAV:   1     0.253133898248E+04    0.25313E+04   -0.11184E+05  4360   0.107E+03
DAV:   2    -0.237997570119E+03   -0.27693E+04   -0.26424E+04  5480   0.279E+02
DAV:   3    -0.702365470114E+03   -0.46437E+03   -0.46089E+03  4592   0.120E+02
DAV:   4    -0.719185093527E+03   -0.16820E+02   -0.16677E+02  4616   0.282E+01
DAV:   5    -0.719734636593E+03   -0.54954E+00   -0.54784E+00  5280   0.429E+00    0.477E+01
DAV:   6    -0.720018602028E+03   -0.28397E+00   -0.91463E+01  4856   0.274E+01    0.744E+01
DAV:   7    -0.673535550063E+03    0.46483E+02   -0.62710E+01  5040   0.535E+01    0.266E+01
DAV:   8    -0.669763350048E+03    0.37722E+01   -0.33815E+01  4816   0.134E+01    0.262E+01
DAV:   9    -0.664915956194E+03    0.48474E+01   -0.25184E+01  4624   0.142E+01    0.215E+01
DAV:  10    -0.662080219011E+03    0.28357E+01   -0.20411E+01  5224   0.140E+01    0.112E+01
DAV:  11    -0.661524399134E+03    0.55582E+00   -0.13823E+00  5264   0.313E+00    0.712E+00
DAV:  12    -0.661877846743E+03   -0.35345E+00   -0.61938E-01  4600   0.188E+00    0.661E+00
DAV:  13    -0.661992108875E+03   -0.11426E+00   -0.46190E-01  5064   0.161E+00    0.423E+00
DAV:  14    -0.662034717190E+03   -0.42608E-01   -0.98689E-02  4584   0.744E-01    0.375E+00
DAV:  15    -0.662020133428E+03    0.14584E-01   -0.85840E-02  4736   0.598E-01    0.275E+00
DAV:  16    -0.662007504771E+03    0.12629E-01   -0.13394E-02  4704   0.268E-01    0.224E+00
DAV:  17    -0.661988400178E+03    0.19105E-01   -0.10111E-02  5288   0.265E-01    0.175E+00
DAV:  18    -0.661977611548E+03    0.10789E-01   -0.58856E-03  5232   0.214E-01    0.138E+00
DAV:  19    -0.661966391332E+03    0.11220E-01   -0.99934E-03  5152   0.277E-01    0.768E-01
DAV:  20    -0.661963600263E+03    0.27911E-02   -0.26413E-03  4816   0.144E-01    0.460E-01
DAV:  21    -0.661962375232E+03    0.12250E-02   -0.17684E-03  4040   0.121E-01    0.217E-01
DAV:  22    -0.661962321549E+03    0.53683E-04   -0.53552E-04  3640   0.571E-02
   1 F= -.66838765E+03 E0= -.66838765E+03  d E =0.000000E+00  mag=    -1.0026
