       N       E                     dE             d eps       ncg     rms          rms(c)
DAV:   1     0.238938976109E+04    0.23894E+04   -0.92014E+04  3960   0.107E+03
DAV:   2     0.173194227677E+03   -0.22162E+04   -0.21230E+04  5048   0.249E+02
DAV:   3    -0.418311501013E+03   -0.59151E+03   -0.58585E+03  4272   0.138E+02
DAV:   4    -0.450315644216E+03   -0.32004E+02   -0.31024E+02  4160   0.423E+01
DAV:   5    -0.452201094577E+03   -0.18855E+01   -0.18607E+01  5184   0.909E+00    0.326E+01
DAV:   6    -0.435157740166E+03    0.17043E+02   -0.77972E+01  4656   0.192E+01    0.183E+01
DAV:   7    -0.434446502941E+03    0.71124E+00   -0.23596E+01  4216   0.136E+01    0.133E+01
DAV:   8    -0.434025167443E+03    0.42134E+00   -0.19320E+01  4160   0.102E+01    0.992E+00
DAV:   9    -0.434293696826E+03   -0.26853E+00   -0.24301E+01  5080   0.792E+00    0.708E+00
DAV:  10    -0.433182915497E+03    0.11108E+01   -0.75648E+00  4960   0.686E+00    0.343E+00
DAV:  11    -0.433056193317E+03    0.12672E+00   -0.36678E+00  4512   0.407E+00    0.273E+00
DAV:  12    -0.432915321215E+03    0.14087E+00   -0.15976E+00  4440   0.235E+00    0.126E+00
DAV:  13    -0.432905143289E+03    0.10178E-01   -0.17931E-01  4360   0.112E+00    0.790E-01
DAV:  14    -0.432901262441E+03    0.38808E-02   -0.54973E-02  4184   0.549E-01    0.544E-01
DAV:  15    -0.432903713433E+03   -0.24510E-02   -0.98836E-02  4640   0.449E-01    0.634E-01
DAV:  16    -0.432901086068E+03    0.26274E-02   -0.10926E-01  4480   0.415E-01    0.408E-01
DAV:  17    -0.432902126700E+03   -0.10406E-02   -0.14434E-02  4144   0.171E-01    0.392E-01
DAV:  18    -0.432898346737E+03    0.37800E-02   -0.18959E-02  4264   0.114E-01    0.222E-01
DAV:  19    -0.432898670217E+03   -0.32348E-03   -0.62698E-03  4328   0.771E-02    0.116E-01
DAV:  20    -0.432899338447E+03   -0.66823E-03   -0.16118E-03  3664   0.696E-02    0.791E-02
DAV:  21    -0.432899247089E+03    0.91358E-04   -0.93024E-04  2344   0.509E-02
   1 F= -.43611965E+03 E0= -.43611965E+03  d E =0.000000E+00  mag=     0.0000
