       N       E                     dE             d eps       ncg     rms          ort
DAV:   1     0.316451661610E+04    0.31645E+04   -0.12970E+05   688   0.139E+03
DAV:   2     0.108160557706E+02   -0.31537E+04   -0.30648E+04   688   0.383E+02
DAV:   3    -0.393572649287E+03   -0.40439E+03   -0.40001E+03   688   0.157E+02
DAV:   4    -0.407209423778E+03   -0.13637E+02   -0.13201E+02   688   0.380E+01
DAV:   5    -0.407744253735E+03   -0.53483E+00   -0.52831E+00   688   0.577E+00
SDA:   6    -0.173042593489E+03    0.23470E+03   -0.52831E+00   688   0.478E+03 0.000E+00
CGA:   7    -0.263141530004E+03   -0.90099E+02   -0.86438E+02   688   0.756E+02-0.792E+02
CGA:   8    -0.275418799301E+03   -0.12277E+02   -0.12273E+02   688   0.164E+02-0.246E+00
CGA:   9    -0.278606959956E+03   -0.31882E+01   -0.31889E+01   688   0.506E+01 0.842E-01
CGA:  10    -0.279936971664E+03   -0.13300E+01   -0.13555E+01   688   0.278E+01-0.312E+00
CGA:  11    -0.280552887684E+03   -0.61592E+00   -0.67953E+00   688   0.177E+01-0.779E+00
CGA:  12    -0.280779868049E+03   -0.22698E+00   -0.18451E+00   688   0.119E+01 0.941E-01
CGA:  13    -0.280913838602E+03   -0.13397E+00   -0.14531E+00   688   0.720E+00-0.545E-02
CGA:  14    -0.281020101586E+03   -0.10626E+00   -0.10770E+00   688   0.544E+00 0.107E-01
CGA:  15    -0.281103747249E+03   -0.83646E-01   -0.83013E-01   688   0.273E+00 0.702E-04
CGA:  16    -0.281141885626E+03   -0.38138E-01   -0.39098E-01   688   0.183E+00 0.335E-02
CGA:  17    -0.281168731818E+03   -0.26846E-01   -0.27800E-01   688   0.871E-01 0.625E-02
CGA:  18    -0.281183460641E+03   -0.14729E-01   -0.15036E-01   688   0.475E-01 0.557E-02
CGA:  19    -0.281196230622E+03   -0.12770E-01   -0.12591E-01   688   0.248E-01 0.195E-02
CGA:  20    -0.281203782046E+03   -0.75514E-02   -0.75826E-02   688   0.184E-01-0.304E-03
CGA:  21    -0.281207626087E+03   -0.38440E-02   -0.38369E-02   688   0.719E-02 0.263E-03
CGA:  22    -0.281209548881E+03   -0.19228E-02   -0.19219E-02   688   0.338E-02 0.115E-04
CGA:  23    -0.281210257955E+03   -0.70907E-03   -0.70921E-03   688   0.160E-02 0.312E-06
CGA:  24    -0.281210673957E+03   -0.41600E-03   -0.41574E-03   688   0.740E-03 0.439E-05
CGA:  25    -0.281210891732E+03   -0.21778E-03   -0.21846E-03   688   0.502E-03-0.794E-05
CGA:  26    -0.281211007703E+03   -0.11597E-03   -0.11608E-03   688   0.258E-03-0.346E-05
CGA:  27    -0.281211089016E+03   -0.81313E-04   -0.81782E-04   688   0.141E-03-0.427E-05
   1 F= -.28657069E+03 E0= -.28655257E+03  d E =-.286571E+03  mag=     0.0815
       N       E                     dE             d eps       ncg     rms          ort
SDA:   1     0.362023043945E+04    0.39014E+04    0.00000E+00   688   0.116E+05 0.000E+00
CGA:   2     0.978768626439E+03   -0.26415E+04   -0.26592E+04   688   0.335E+04-0.843E+03
CGA:   3     0.291553047124E+03   -0.68722E+03   -0.68605E+03   688   0.117E+04 0.302E+03
CGA:   4    -0.634956377654E+02   -0.35505E+03   -0.35607E+03   688   0.550E+03-0.158E+01
CGA:   5    -0.168729297717E+03   -0.10523E+03   -0.10782E+03   688   0.223E+03 0.458E+02
CGA:   6    -0.191373433929E+03   -0.22644E+02   -0.18293E+02   688   0.403E+03-0.112E+03
CGA:   7    -0.205538756503E+03   -0.14165E+02   -0.46418E+02   688   0.130E+03 0.115E+02
CGA:   8    -0.215625967892E+03   -0.10087E+02   -0.48195E+01   688   0.162E+03 0.185E+03
CGA:   9    -0.232811502519E+03   -0.17186E+02   -0.56888E+01   688   0.579E+02-0.717E+02
CGA:  10    -0.232564109414E+03    0.24739E+00   -0.18608E+01   688   0.283E+03-0.276E+02
CGA:  11    -0.237873609468E+03   -0.53095E+01   -0.70217E+01   688   0.432E+03-0.334E+01
CGA:  12    -0.253888260968E+03   -0.16015E+02   -0.15624E+02   688   0.731E+02-0.263E+03
CGA:  13    -0.255140545163E+03   -0.12523E+01   -0.47750E+01   688   0.175E+03-0.351E+02
CGA:  14    -0.261651485999E+03   -0.65109E+01   -0.57926E+01   688   0.671E+02 0.133E+02
CGA:  15    -0.261223526162E+03    0.42796E+00   -0.30827E+01   688   0.706E+02-0.546E+02
CGA:  16    -0.262662646316E+03   -0.14391E+01   -0.30276E+01   688   0.567E+02-0.517E+02
CGA:  17    -0.263722574117E+03   -0.10599E+01   -0.23716E+01   688   0.231E+02-0.173E+02
CGA:  18    -0.265275288922E+03   -0.15527E+01   -0.16103E+01   688   0.666E+01 0.605E+00
CGA:  19    -0.265834901361E+03   -0.55961E+00   -0.68173E+00   688   0.401E+01 0.583E+00
CGA:  20    -0.266596598603E+03   -0.76170E+00   -0.74593E+00   688   0.451E+01 0.250E+00
CGA:  21    -0.267701166275E+03   -0.11046E+01   -0.10125E+01   688   0.210E+01 0.941E+00
CGA:  22    -0.268033061910E+03   -0.33190E+00   -0.30912E+00   688   0.296E+01-0.303E+00
CGA:  23    -0.268394723164E+03   -0.36166E+00   -0.36165E+00   688   0.237E+01-0.169E-01
CGA:  24    -0.268496899303E+03   -0.10218E+00   -0.14929E+00   688   0.104E+01-0.395E+00
CGA:  25    -0.268711298472E+03   -0.21440E+00   -0.22538E+00   688   0.539E+00-0.976E-01
CGA:  26    -0.268808181656E+03   -0.96883E-01   -0.94076E-01   688   0.309E+00 0.430E-01
CGA:  27    -0.268880235250E+03   -0.72054E-01   -0.72628E-01   688   0.493E+00-0.687E-02
CGA:  28    -0.268952295989E+03   -0.72061E-01   -0.72164E-01   688   0.240E+00 0.293E-01
CGA:  29    -0.268996592589E+03   -0.44297E-01   -0.43596E-01   688   0.171E+00 0.215E-01
CGA:  30    -0.269040496728E+03   -0.43904E-01   -0.44090E-01   688   0.823E-01-0.206E-02
CGA:  31    -0.269060288289E+03   -0.19792E-01   -0.20341E-01   688   0.963E-01-0.502E-02
CGA:  32    -0.269078025657E+03   -0.17737E-01   -0.18366E-01   688   0.625E-01-0.112E-01
CGA:  33    -0.269086278252E+03   -0.82526E-02   -0.82001E-02   688   0.532E-01-0.132E-02
CGA:  34    -0.269093424716E+03   -0.71465E-02   -0.71559E-02   688   0.360E-01 0.234E-03
CGA:  35    -0.269098805925E+03   -0.53812E-02   -0.53703E-02   688   0.340E-01-0.263E-03
CGA:  36    -0.269103579062E+03   -0.47731E-02   -0.47142E-02   688   0.261E-01-0.869E-03
CGA:  37    -0.269106270999E+03   -0.26919E-02   -0.26253E-02   688   0.210E-01 0.134E-03
CGA:  38    -0.269108768175E+03   -0.24972E-02   -0.24560E-02   688   0.211E-01-0.109E-03
CGA:  39    -0.269110697316E+03   -0.19291E-02   -0.18569E-02   688   0.164E-01 0.348E-03
CGA:  40    -0.269112169539E+03   -0.14722E-02   -0.14317E-02   688   0.158E-01 0.204E-03
CGA:  41    -0.269113626443E+03   -0.14569E-02   -0.14204E-02   688   0.162E-01 0.135E-03
CGA:  42    -0.269114807597E+03   -0.11812E-02   -0.11519E-02   688   0.130E-01 0.232E-03
CGA:  43    -0.269115733876E+03   -0.92628E-03   -0.92072E-03   688   0.118E-01 0.494E-04
CGA:  44    -0.269116632509E+03   -0.89863E-03   -0.90155E-03   688   0.119E-01-0.245E-05
CGA:  45    -0.269117479280E+03   -0.84677E-03   -0.85136E-03   688   0.104E-01-0.117E-04
CGA:  46    -0.269118200837E+03   -0.72156E-03   -0.72580E-03   688   0.930E-02-0.118E-04
SDA:  47    -0.269118887829E+03   -0.68699E-03   -0.69318E-03   688   0.902E-02-0.155E-04
CGA:  48    -0.269120835841E+03   -0.19480E-02   -0.19444E-02   688   0.101E-01 0.356E-04
CGA:  49    -0.269124021537E+03   -0.31857E-02   -0.31582E-02   688   0.521E-02 0.168E-03
CGA:  50    -0.269125078925E+03   -0.10574E-02   -0.10586E-02   688   0.209E-02-0.184E-04
   2 F= -.27442882E+03 E0= -.27438645E+03  d E =0.121419E+02  mag=     2.2249
       N       E                     dE             d eps       ncg     rms          ort
SDA:   1     0.127523108600E+04    0.15444E+04    0.00000E+00   688   0.491E+04 0.000E+00
CGA:   2     0.376245362555E+03   -0.89899E+03   -0.87734E+03   688   0.185E+04 0.937E+03
CGA:   3    -0.903768822898E+02   -0.46662E+03   -0.54778E+03   688   0.104E+04-0.210E+03
CGA:   4    -0.232720944406E+03   -0.14234E+03   -0.14286E+03   688   0.344E+03-0.114E+03
CGA:   5    -0.295210884905E+03   -0.62490E+02   -0.59750E+02   688   0.131E+03 0.404E+02
CGA:   6    -0.318826599362E+03   -0.23616E+02   -0.23838E+02   688   0.146E+03-0.121E+02
CGA:   7    -0.332380384318E+03   -0.13554E+02   -0.12514E+02   688   0.405E+02-0.501E+01
CGA:   8    -0.339462434177E+03   -0.70820E+01   -0.69154E+01   688   0.220E+02 0.390E+01
CGA:   9    -0.342669228517E+03   -0.32068E+01   -0.25711E+01   688   0.145E+02-0.221E+01
CGA:  10    -0.345009361122E+03   -0.23401E+01   -0.23221E+01   688   0.106E+02 0.465E+00
CGA:  11    -0.345559867783E+03   -0.55051E+00   -0.67925E+00   688   0.517E+01-0.184E+01
CGA:  12    -0.346394936281E+03   -0.83507E+00   -0.83597E+00   688   0.443E+01-0.314E-01
CGA:  13    -0.346700625755E+03   -0.30569E+00   -0.31507E+00   688   0.147E+01-0.192E+00
CGA:  14    -0.347049478056E+03   -0.34885E+00   -0.34535E+00   688   0.719E+00 0.296E-01
CGA:  15    -0.347125919794E+03   -0.76442E-01   -0.76764E-01   688   0.622E+00-0.194E-02
CGA:  16    -0.347238676788E+03   -0.11276E+00   -0.11263E+00   688   0.186E+00 0.271E-02
CGA:  17    -0.347265895009E+03   -0.27218E-01   -0.27232E-01   688   0.231E+00 0.151E-02
CGA:  18    -0.347299749611E+03   -0.33855E-01   -0.33851E-01   688   0.570E-01-0.411E-03
CGA:  19    -0.347314111099E+03   -0.14361E-01   -0.14375E-01   688   0.724E-01-0.161E-03
CGA:  20    -0.347320957951E+03   -0.68469E-02   -0.68801E-02   688   0.271E-01-0.117E-03
CGA:  21    -0.347327818803E+03   -0.68609E-02   -0.68730E-02   688   0.145E-01-0.124E-03
CGA:  22    -0.347330103071E+03   -0.22843E-02   -0.22843E-02   688   0.184E-01-0.512E-04
CGA:  23    -0.347332698103E+03   -0.25950E-02   -0.25957E-02   688   0.493E-02 0.179E-05
CGA:  24    -0.347334223038E+03   -0.15249E-02   -0.15230E-02   688   0.889E-02 0.130E-04
CGA:  25    -0.347335064102E+03   -0.84106E-03   -0.84052E-03   688   0.260E-02 0.282E-05
CGA:  26    -0.347336263292E+03   -0.11992E-02   -0.11943E-02   688   0.393E-02 0.188E-04
CGA:  27    -0.347336698157E+03   -0.43486E-03   -0.43475E-03   688   0.317E-02-0.699E-05
CGA:  28    -0.347337942226E+03   -0.12441E-02   -0.12575E-02   688   0.369E-02-0.643E-04
CGA:  29    -0.347338823495E+03   -0.88127E-03   -0.86951E-03   688   0.795E-02 0.151E-03
CGA:  30    -0.347340440797E+03   -0.16173E-02   -0.16213E-02   688   0.640E-02-0.235E-03
CGA:  31    -0.347342827628E+03   -0.23868E-02   -0.26931E-02   688   0.777E-02-0.135E-02
SDA:  32    -0.347344175474E+03   -0.13478E-02   -0.13599E-02   688   0.804E-02-0.315E-03
CGA:  33    -0.347346406230E+03   -0.22308E-02   -0.22262E-02   688   0.110E-01 0.455E-04
CGA:  34    -0.347348263376E+03   -0.18571E-02   -0.18544E-02   688   0.372E-02-0.191E-04
CGA:  35    -0.347349227384E+03   -0.96401E-03   -0.96206E-03   688   0.191E-02 0.253E-04
CGA:  36    -0.347350070804E+03   -0.84342E-03   -0.84162E-03   688   0.898E-03 0.688E-05
CGA:  37    -0.347350463419E+03   -0.39261E-03   -0.39392E-03   688   0.894E-03-0.523E-05
CGA:  38    -0.347350605345E+03   -0.14193E-03   -0.14209E-03   688   0.695E-03 0.273E-05
CGA:  39    -0.347350825158E+03   -0.21981E-03   -0.21891E-03   688   0.270E-03 0.841E-05
CGA:  40    -0.347350971041E+03   -0.14588E-03   -0.14572E-03   688   0.142E-03 0.617E-06
CGA:  41    -0.347351039788E+03   -0.68747E-04   -0.68961E-04   688   0.101E-03-0.815E-06
   3 F= -.35268913E+03 E0= -.35267525E+03  d E =-.661184E+02  mag=     0.1671
       N       E                     dE             d eps       ncg     rms          ort
SDA:   1     0.967641502524E+03    0.13150E+04    0.00000E+00   688   0.496E+04 0.000E+00
CGA:   2     0.146087414237E+03   -0.82155E+03   -0.90484E+03   688   0.969E+03 0.390E+03
CGA:   3    -0.185239852428E+03   -0.33133E+03   -0.33037E+03   688   0.584E+03-0.104E+02
CGA:   4    -0.301767205029E+03   -0.11653E+03   -0.11975E+03   688   0.203E+03 0.291E+02
CGA:   5    -0.335421825846E+03   -0.33655E+02   -0.28834E+02   688   0.116E+03 0.263E+02
CGA:   6    -0.353715896294E+03   -0.18294E+02   -0.16974E+02   688   0.499E+02-0.218E+00
CGA:   7    -0.361234639787E+03   -0.75187E+01   -0.72195E+01   688   0.349E+02 0.223E+00
CGA:   8    -0.364771576298E+03   -0.35369E+01   -0.42838E+01   688   0.300E+02-0.377E+01
CGA:   9    -0.367027096262E+03   -0.22555E+01   -0.15768E+01   688   0.103E+02 0.113E+02
CGA:  10    -0.368150657632E+03   -0.11236E+01   -0.10043E+01   688   0.149E+02 0.111E+01
CGA:  11    -0.369467569887E+03   -0.13169E+01   -0.13486E+01   688   0.118E+02-0.265E+00
CGA:  12    -0.369795300517E+03   -0.32773E+00   -0.50764E+00   688   0.592E+01-0.373E+01
CGA:  13    -0.370139876300E+03   -0.34458E+00   -0.33984E+00   688   0.477E+01 0.492E-01
CGA:  14    -0.370368908688E+03   -0.22903E+00   -0.23943E+00   688   0.249E+01-0.281E+00
CGA:  15    -0.370698260535E+03   -0.32935E+00   -0.32874E+00   688   0.303E+01-0.285E-02
CGA:  16    -0.370832084618E+03   -0.13382E+00   -0.14482E+00   688   0.104E+01-0.201E+00
CGA:  17    -0.370969096206E+03   -0.13701E+00   -0.13752E+00   688   0.947E+00 0.390E-02
CGA:  18    -0.371034635373E+03   -0.65539E-01   -0.63391E-01   688   0.851E+00 0.192E-01
CGA:  19    -0.371125568382E+03   -0.90933E-01   -0.91314E-01   688   0.361E+00-0.554E-03
CGA:  20    -0.371156617105E+03   -0.31049E-01   -0.31861E-01   688   0.520E+00-0.398E-02
CGA:  21    -0.371213140702E+03   -0.56524E-01   -0.56336E-01   688   0.186E+00-0.102E-03
CGA:  22    -0.371233528210E+03   -0.20388E-01   -0.20311E-01   688   0.248E+00-0.225E-03
CGA:  23    -0.371251789170E+03   -0.18261E-01   -0.18703E-01   688   0.117E+00-0.326E-02
CGA:  24    -0.371271911991E+03   -0.20123E-01   -0.20113E-01   688   0.130E+00 0.263E-03
CGA:  25    -0.371279651267E+03   -0.77393E-02   -0.82263E-02   688   0.668E-01-0.506E-02
CGA:  26    -0.371293977027E+03   -0.14326E-01   -0.14364E-01   688   0.539E-01-0.452E-03
CGA:  27    -0.371302404203E+03   -0.84272E-02   -0.84316E-02   688   0.539E-01-0.586E-03
CGA:  28    -0.371307093904E+03   -0.46897E-02   -0.48176E-02   688   0.377E-01-0.335E-03
CGA:  29    -0.371314680821E+03   -0.75869E-02   -0.76097E-02   688   0.208E-01-0.328E-03
CGA:  30    -0.371318801925E+03   -0.41211E-02   -0.41219E-02   688   0.253E-01 0.314E-05
CGA:  31    -0.371321779294E+03   -0.29774E-02   -0.29607E-02   688   0.209E-01 0.358E-04
SDA:  32    -0.371324421047E+03   -0.26418E-02   -0.26415E-02   688   0.108E-01 0.301E-04
CGA:  33    -0.371328192552E+03   -0.37715E-02   -0.37607E-02   688   0.155E-01 0.561E-04
CGA:  34    -0.371329451524E+03   -0.12590E-02   -0.12576E-02   688   0.619E-02 0.671E-05
CGA:  35    -0.371331373465E+03   -0.19219E-02   -0.19025E-02   688   0.523E-02 0.127E-03
CGA:  36    -0.371332967577E+03   -0.15941E-02   -0.15829E-02   688   0.424E-02 0.808E-04
CGA:  37    -0.371334855719E+03   -0.18881E-02   -0.18713E-02   688   0.444E-02 0.575E-04
CGA:  38    -0.371336093916E+03   -0.12382E-02   -0.12807E-02   688   0.148E-01-0.358E-03
CGA:  39    -0.371337761134E+03   -0.16672E-02   -0.16931E-02   688   0.811E-02 0.452E-04
CGA:  40    -0.371338406719E+03   -0.64559E-03   -0.70125E-03   688   0.634E-02-0.326E-03
CGA:  41    -0.371340358544E+03   -0.19518E-02   -0.19107E-02   688   0.526E-02 0.256E-03
CGA:  42    -0.371340857541E+03   -0.49900E-03   -0.50109E-03   688   0.353E-02-0.141E-04
CGA:  43    -0.371342125757E+03   -0.12682E-02   -0.12802E-02   688   0.429E-02-0.670E-04
CGA:  44    -0.371342509418E+03   -0.38366E-03   -0.39531E-03   688   0.246E-02-0.646E-04
CGA:  45    -0.371343343778E+03   -0.83436E-03   -0.83870E-03   688   0.296E-02-0.282E-04
CGA:  46    -0.371343689184E+03   -0.34541E-03   -0.34504E-03   688   0.237E-02-0.809E-05
CGA:  47    -0.371344235474E+03   -0.54629E-03   -0.54594E-03   688   0.196E-02 0.430E-05
CGA:  48    -0.371344564498E+03   -0.32902E-03   -0.33060E-03   688   0.237E-02 0.234E-04
CGA:  49    -0.371344973566E+03   -0.40907E-03   -0.40874E-03   688   0.116E-02-0.357E-05
CGA:  50    -0.371345271334E+03   -0.29777E-03   -0.29743E-03   688   0.170E-02 0.535E-05
   4 F= -.37661446E+03 E0= -.37660142E+03  d E =-.239253E+02  mag=     0.0033
       N       E                     dE             d eps       ncg     rms          ort
SDA:   1    -0.140679801844E+03    0.23067E+03    0.00000E+00   688   0.629E+03 0.000E+00
CGA:   2    -0.294922435773E+03   -0.15424E+03   -0.15655E+03   688   0.434E+03-0.235E+02
CGA:   3    -0.337397804203E+03   -0.42475E+02   -0.48479E+02   688   0.199E+03-0.172E+02
CGA:   4    -0.363971840794E+03   -0.26574E+02   -0.19822E+02   688   0.794E+02-0.549E+00
CGA:   5    -0.374944056844E+03   -0.10972E+02   -0.11121E+02   688   0.318E+02-0.647E+00
CGA:   6    -0.376726066467E+03   -0.17820E+01   -0.27068E+01   688   0.333E+02-0.773E+01
CGA:   7    -0.379125507106E+03   -0.23994E+01   -0.24758E+01   688   0.589E+01-0.639E+00
CGA:   8    -0.380358657028E+03   -0.12331E+01   -0.12175E+01   688   0.515E+01 0.294E+00
CGA:   9    -0.380678282297E+03   -0.31963E+00   -0.30506E+00   688   0.207E+01 0.318E-01
CGA:  10    -0.381067474738E+03   -0.38919E+00   -0.38793E+00   688   0.929E+00 0.488E-01
CGA:  11    -0.381251846338E+03   -0.18437E+00   -0.18231E+00   688   0.140E+01 0.615E-01
CGA:  12    -0.381361025965E+03   -0.10918E+00   -0.10720E+00   688   0.302E+00 0.151E-01
CGA:  13    -0.381452408041E+03   -0.91382E-01   -0.90672E-01   688   0.990E-01 0.491E-02
CGA:  14    -0.381486697437E+03   -0.34289E-01   -0.34423E-01   688   0.761E-01-0.820E-03
CGA:  15    -0.381494228095E+03   -0.75307E-02   -0.78165E-02   688   0.659E-01-0.932E-03
CGA:  16    -0.381508473750E+03   -0.14246E-01   -0.14242E-01   688   0.243E-01 0.366E-04
CGA:  17    -0.381516556760E+03   -0.80830E-02   -0.79787E-02   688   0.272E-01 0.661E-03
CGA:  18    -0.381519910269E+03   -0.33535E-02   -0.33729E-02   688   0.222E-01-0.124E-04
CGA:  19    -0.381524551827E+03   -0.46416E-02   -0.46248E-02   688   0.118E-01 0.436E-03
CGA:  20    -0.381529374344E+03   -0.48225E-02   -0.49345E-02   688   0.991E-02-0.539E-03
CGA:  21    -0.381532494577E+03   -0.31202E-02   -0.30367E-02   688   0.123E-01 0.589E-03
CGA:  22    -0.381534305728E+03   -0.18112E-02   -0.18110E-02   688   0.811E-02 0.129E-04
CGA:  23    -0.381536844884E+03   -0.25392E-02   -0.24793E-02   688   0.371E-02 0.460E-03
CGA:  24    -0.381538633536E+03   -0.17887E-02   -0.17507E-02   688   0.321E-02 0.156E-03
CGA:  25    -0.381539154133E+03   -0.52060E-03   -0.51912E-03   688   0.275E-02 0.294E-06
CGA:  26    -0.381539868933E+03   -0.71480E-03   -0.71234E-03   688   0.997E-03 0.372E-04
CGA:  27    -0.381540207023E+03   -0.33809E-03   -0.33708E-03   688   0.132E-02 0.761E-05
CGA:  28    -0.381540378851E+03   -0.17183E-03   -0.17144E-03   688   0.519E-03 0.108E-05
CGA:  29    -0.381540566116E+03   -0.18726E-03   -0.18708E-03   688   0.352E-03 0.121E-05
CGA:  30    -0.381540646304E+03   -0.80188E-04   -0.80181E-04   688   0.383E-03 0.219E-05
   5 F= -.38684146E+03 E0= -.38682828E+03  d E =-.341523E+02  mag=     0.0999
       N       E                     dE             d eps       ncg     rms          ort
SDA:   1    -0.127257397743E+03    0.25428E+03    0.00000E+00   688   0.771E+03 0.000E+00
CGA:   2    -0.320284725875E+03   -0.19303E+03   -0.19328E+03   688   0.280E+03-0.511E+01
CGA:   3    -0.368692498031E+03   -0.48408E+02   -0.40697E+02   688   0.121E+03 0.200E+02
CGA:   4    -0.390733326501E+03   -0.22041E+02   -0.22197E+02   688   0.276E+02 0.257E+01
CGA:   5    -0.396778130720E+03   -0.60448E+01   -0.60456E+01   688   0.962E+01 0.206E+00
CGA:   6    -0.398288430901E+03   -0.15103E+01   -0.15723E+01   688   0.623E+01 0.266E+00
CGA:   7    -0.398992618831E+03   -0.70419E+00   -0.77091E+00   688   0.202E+01-0.145E+00
CGA:   8    -0.399446354729E+03   -0.45374E+00   -0.45373E+00   688   0.737E+00 0.998E-04
CGA:   9    -0.399662458765E+03   -0.21610E+00   -0.21565E+00   688   0.309E+00 0.426E-02
CGA:  10    -0.399765401369E+03   -0.10294E+00   -0.10292E+00   688   0.974E-01 0.532E-04
CGA:  11    -0.399796320414E+03   -0.30919E-01   -0.30911E-01   688   0.357E-01 0.866E-04
CGA:  12    -0.399805317687E+03   -0.89973E-02   -0.89964E-02   688   0.239E-01-0.373E-05
CGA:  13    -0.399809345753E+03   -0.40281E-02   -0.40400E-02   688   0.896E-02 0.232E-04
CGA:  14    -0.399812200595E+03   -0.28548E-02   -0.28558E-02   688   0.431E-02-0.126E-04
CGA:  15    -0.399813572273E+03   -0.13717E-02   -0.13707E-02   688   0.253E-02 0.987E-05
CGA:  16    -0.399814320853E+03   -0.74858E-03   -0.74940E-03   688   0.135E-02-0.139E-04
CGA:  17    -0.399814628046E+03   -0.30719E-03   -0.30718E-03   688   0.976E-03-0.356E-05
CGA:  18    -0.399814857491E+03   -0.22944E-03   -0.22945E-03   688   0.356E-03-0.261E-05
CGA:  19    -0.399815004487E+03   -0.14700E-03   -0.14674E-03   688   0.177E-03 0.149E-05
CGA:  20    -0.399815070270E+03   -0.65782E-04   -0.65757E-04   688   0.189E-03 0.208E-06
   6 F= -.40502663E+03 E0= -.40501281E+03  d E =-.181852E+02  mag=     0.2131
       N       E                     dE             d eps       ncg     rms          ort
SDA:   1    -0.110762262461E+03    0.28905E+03    0.00000E+00   688   0.846E+03 0.000E+00
CGA:   2    -0.318234288990E+03   -0.20747E+03   -0.20741E+03   688   0.304E+03-0.102E+02
CGA:   3    -0.375919470187E+03   -0.57685E+02   -0.56166E+02   688   0.133E+03-0.541E+01
CGA:   4    -0.396347472923E+03   -0.20428E+02   -0.20650E+02   688   0.271E+02 0.345E+01
CGA:   5    -0.402540817810E+03   -0.61933E+01   -0.61982E+01   688   0.718E+01 0.137E+00
CGA:   6    -0.404348133914E+03   -0.18073E+01   -0.18074E+01   688   0.247E+01-0.392E-02
CGA:   7    -0.404940004224E+03   -0.59187E+00   -0.59187E+00   688   0.138E+01 0.431E-01
CGA:   8    -0.405172914345E+03   -0.23291E+00   -0.23726E+00   688   0.690E+00 0.628E-02
CGA:   9    -0.405344912914E+03   -0.17200E+00   -0.17179E+00   688   0.249E+00 0.102E-01
CGA:  10    -0.405423106976E+03   -0.78194E-01   -0.78182E-01   688   0.791E-01 0.435E-04
CGA:  11    -0.405450627373E+03   -0.27520E-01   -0.27506E-01   688   0.262E-01 0.100E-03
CGA:  12    -0.405459782053E+03   -0.91547E-02   -0.91599E-02   688   0.114E-01-0.495E-04
CGA:  13    -0.405463133547E+03   -0.33515E-02   -0.33495E-02   688   0.817E-02 0.245E-04
CGA:  14    -0.405464993804E+03   -0.18603E-02   -0.18618E-02   688   0.384E-02 0.164E-04
CGA:  15    -0.405466270568E+03   -0.12768E-02   -0.12787E-02   688   0.174E-02-0.225E-04
CGA:  16    -0.405466870738E+03   -0.60017E-03   -0.60050E-03   688   0.827E-03-0.424E-05
CGA:  17    -0.405467165828E+03   -0.29509E-03   -0.29533E-03   688   0.374E-03-0.218E-05
CGA:  18    -0.405467301849E+03   -0.13602E-03   -0.13586E-03   688   0.224E-03 0.158E-05
CGA:  19    -0.405467361987E+03   -0.60138E-04   -0.60139E-04   688   0.150E-03 0.583E-07
   7 F= -.41061881E+03 E0= -.41060913E+03  d E =-.237773E+02  mag=     0.1645
       N       E                     dE             d eps       ncg     rms          ort
SDA:   1    -0.351073503482E+03    0.54394E+02    0.00000E+00   688   0.171E+03 0.000E+00
CGA:   2    -0.395660332734E+03   -0.44587E+02   -0.44545E+02   688   0.632E+02-0.143E+01
CGA:   3    -0.407963616057E+03   -0.12303E+02   -0.12381E+02   688   0.236E+02-0.821E+00
CGA:   4    -0.411704016531E+03   -0.37404E+01   -0.36519E+01   688   0.471E+01 0.453E+00
CGA:   5    -0.412800468575E+03   -0.10965E+01   -0.10942E+01   688   0.116E+01-0.217E-01
CGA:   6    -0.413078830891E+03   -0.27836E+00   -0.27880E+00   688   0.382E+00 0.104E-01
CGA:   7    -0.413165528682E+03   -0.86698E-01   -0.86865E-01   688   0.230E+00 0.170E-02
CGA:   8    -0.413212782352E+03   -0.47254E-01   -0.47588E-01   688   0.892E-01 0.167E-02
CGA:   9    -0.413242625210E+03   -0.29843E-01   -0.29777E-01   688   0.332E-01 0.620E-03
CGA:  10    -0.413253220435E+03   -0.10595E-01   -0.10586E-01   688   0.159E-01 0.132E-03
CGA:  11    -0.413256505367E+03   -0.32849E-02   -0.32931E-02   688   0.734E-02 0.368E-04
CGA:  12    -0.413258485533E+03   -0.19802E-02   -0.19800E-02   688   0.247E-02 0.273E-05
CGA:  13    -0.413259399502E+03   -0.91397E-03   -0.91354E-03   688   0.140E-02 0.232E-05
CGA:  14    -0.413259788896E+03   -0.38939E-03   -0.38941E-03   688   0.965E-03-0.193E-05
CGA:  15    -0.413260040044E+03   -0.25115E-03   -0.25115E-03   688   0.405E-03 0.222E-06
CGA:  16    -0.413260185004E+03   -0.14496E-03   -0.14510E-03   688   0.195E-03-0.146E-05
CGA:  17    -0.413260244205E+03   -0.59201E-04   -0.59219E-04   688   0.127E-03-0.602E-06
   8 F= -.41839346E+03 E0= -.41838532E+03  d E =-.777465E+01  mag=     0.1177
       N       E                     dE             d eps       ncg     rms          ort
SDA:   1     0.106918507413E+01    0.41433E+03    0.00000E+00   688   0.124E+04 0.000E+00
CGA:   2    -0.291454265316E+03   -0.29252E+03   -0.28864E+03   688   0.499E+03-0.305E+02
CGA:   3    -0.380305691168E+03   -0.88851E+02   -0.99001E+02   688   0.129E+03 0.486E+02
CGA:   4    -0.407105280202E+03   -0.26800E+02   -0.27768E+02   688   0.367E+02 0.335E+01
CGA:   5    -0.414630876360E+03   -0.75256E+01   -0.74816E+01   688   0.133E+02-0.751E+00
CGA:   6    -0.417348130411E+03   -0.27173E+01   -0.26790E+01   688   0.441E+01-0.176E+00
CGA:   7    -0.418474812092E+03   -0.11267E+01   -0.11265E+01   688   0.160E+01 0.335E-01
CGA:   8    -0.418951951497E+03   -0.47714E+00   -0.47593E+00   688   0.676E+00 0.201E-01
CGA:   9    -0.419156090447E+03   -0.20414E+00   -0.20352E+00   688   0.354E+00 0.103E-01
CGA:  10    -0.419238729956E+03   -0.82640E-01   -0.82857E-01   688   0.129E+00 0.276E-02
CGA:  11    -0.419278403644E+03   -0.39674E-01   -0.39682E-01   688   0.428E-01-0.129E-03
CGA:  12    -0.419292720682E+03   -0.14317E-01   -0.14307E-01   688   0.170E-01 0.898E-04
CGA:  13    -0.419298502722E+03   -0.57820E-02   -0.58147E-02   688   0.104E-01-0.335E-03
CGA:  14    -0.419301323294E+03   -0.28206E-02   -0.28188E-02   688   0.553E-02 0.105E-03
CGA:  15    -0.419303061025E+03   -0.17377E-02   -0.17613E-02   688   0.270E-02-0.344E-03
CGA:  16    -0.419303772886E+03   -0.71186E-03   -0.71248E-03   688   0.130E-02-0.381E-04
CGA:  17    -0.419304144460E+03   -0.37157E-03   -0.37180E-03   688   0.555E-03-0.863E-05
CGA:  18    -0.419304364082E+03   -0.21962E-03   -0.21992E-03   688   0.324E-03-0.206E-05
CGA:  19    -0.419304488519E+03   -0.12444E-03   -0.12486E-03   688   0.237E-03-0.302E-05
CGA:  20    -0.419304552676E+03   -0.64157E-04   -0.64138E-04   688   0.147E-03-0.104E-05
   9 F= -.42439448E+03 E0= -.42437761E+03  d E =-.137757E+02  mag=    -0.0439
       N       E                     dE             d eps       ncg     rms          ort
SDA:   1    -0.406132155252E+03    0.13172E+02    0.00000E+00   688   0.369E+02 0.000E+00
CGA:   2    -0.415917253699E+03   -0.97851E+01   -0.97887E+01   688   0.114E+02 0.826E-01
CGA:   3    -0.418796335358E+03   -0.28791E+01   -0.28801E+01   688   0.309E+01 0.125E-01
CGA:   4    -0.419380467717E+03   -0.58413E+00   -0.58316E+00   688   0.749E+00 0.439E-03
CGA:   5    -0.419538506671E+03   -0.15804E+00   -0.15774E+00   688   0.188E+00-0.614E-03
CGA:   6    -0.419583218547E+03   -0.44712E-01   -0.44665E-01   688   0.593E-01-0.425E-03
CGA:   7    -0.419600838499E+03   -0.17620E-01   -0.17623E-01   688   0.257E-01-0.531E-04
CGA:   8    -0.419608665985E+03   -0.78275E-02   -0.78287E-02   688   0.132E-01-0.141E-04
CGA:   9    -0.419612004762E+03   -0.33388E-02   -0.33379E-02   688   0.582E-02-0.149E-04
CGA:  10    -0.419613439415E+03   -0.14347E-02   -0.14344E-02   688   0.197E-02-0.686E-05
CGA:  11    -0.419614004483E+03   -0.56507E-03   -0.56498E-03   688   0.742E-03 0.641E-05
CGA:  12    -0.419614217834E+03   -0.21335E-03   -0.21332E-03   688   0.368E-03 0.254E-05
CGA:  13    -0.419614317428E+03   -0.99595E-04   -0.99594E-04   688   0.186E-03-0.393E-06
  10 F= -.42471269E+03 E0= -.42469821E+03  d E =-.140939E+02  mag=    -0.0179
       N       E                     dE             d eps       ncg     rms          ort
SDA:   1    -0.394571492900E+03    0.25043E+02    0.00000E+00   688   0.803E+02 0.000E+00
CGA:   2    -0.417185867284E+03   -0.22614E+02   -0.22619E+02   688   0.256E+02-0.369E+00
CGA:   3    -0.423038847207E+03   -0.58530E+01   -0.58551E+01   688   0.728E+01 0.182E-01
CGA:   4    -0.424397234693E+03   -0.13584E+01   -0.13680E+01   688   0.174E+01-0.832E-02
CGA:   5    -0.424776110235E+03   -0.37888E+00   -0.37910E+00   688   0.424E+00 0.145E-02
CGA:   6    -0.424885018964E+03   -0.10891E+00   -0.10893E+00   688   0.145E+00 0.856E-03
CGA:   7    -0.424927510062E+03   -0.42491E-01   -0.42474E-01   688   0.695E-01 0.373E-03
CGA:   8    -0.424947116562E+03   -0.19606E-01   -0.19602E-01   688   0.356E-01 0.205E-03
CGA:   9    -0.424956839068E+03   -0.97225E-02   -0.97219E-02   688   0.125E-01 0.813E-04
CGA:  10    -0.424960544428E+03   -0.37054E-02   -0.37047E-02   688   0.487E-02 0.183E-04
CGA:  11    -0.424961876960E+03   -0.13325E-02   -0.13326E-02   688   0.205E-02-0.629E-05
CGA:  12    -0.424962465657E+03   -0.58870E-03   -0.58874E-03   688   0.971E-03-0.178E-05
CGA:  13    -0.424962773903E+03   -0.30825E-03   -0.30823E-03   688   0.470E-03 0.494E-06
CGA:  14    -0.424962923012E+03   -0.14911E-03   -0.14910E-03   688   0.245E-03 0.287E-06
CGA:  15    -0.424962993531E+03   -0.70520E-04   -0.70540E-04   688   0.110E-03-0.158E-05
  11 F= -.43006029E+03 E0= -.43004963E+03  d E =-.534760E+01  mag=    -0.0075
       N       E                     dE             d eps       ncg     rms          ort
SDA:   1    -0.371682375134E+03    0.53281E+02    0.00000E+00   688   0.148E+03 0.000E+00
CGA:   2    -0.413140962543E+03   -0.41459E+02   -0.41462E+02   688   0.468E+02-0.775E+00
CGA:   3    -0.423798037798E+03   -0.10657E+02   -0.10651E+02   688   0.139E+02-0.302E-01
CGA:   4    -0.426333061218E+03   -0.25350E+01   -0.25896E+01   688   0.318E+01-0.181E-01
CGA:   5    -0.427054991966E+03   -0.72193E+00   -0.72092E+00   688   0.737E+00-0.604E-02
CGA:   6    -0.427251378053E+03   -0.19639E+00   -0.19640E+00   688   0.252E+00 0.300E-02
CGA:   7    -0.427326741319E+03   -0.75363E-01   -0.75354E-01   688   0.122E+00 0.197E-03
CGA:   8    -0.427361596309E+03   -0.34855E-01   -0.34839E-01   688   0.615E-01 0.566E-03
CGA:   9    -0.427378583186E+03   -0.16987E-01   -0.16987E-01   688   0.216E-01 0.564E-04
CGA:  10    -0.427385207800E+03   -0.66246E-02   -0.66235E-02   688   0.826E-02 0.236E-04
CGA:  11    -0.427387551401E+03   -0.23436E-02   -0.23439E-02   688   0.358E-02-0.173E-04
CGA:  12    -0.427388575296E+03   -0.10239E-02   -0.10239E-02   688   0.170E-02-0.233E-05
CGA:  13    -0.427389129178E+03   -0.55388E-03   -0.55400E-03   688   0.785E-03-0.163E-05
CGA:  14    -0.427389391358E+03   -0.26218E-03   -0.26233E-03   688   0.417E-03-0.222E-05
CGA:  15    -0.427389507407E+03   -0.11605E-03   -0.11605E-03   688   0.184E-03-0.275E-05
CGA:  16    -0.427389564647E+03   -0.57240E-04   -0.57277E-04   688   0.733E-04-0.107E-05
  12 F= -.43248628E+03 E0= -.43247581E+03  d E =-.777359E+01  mag=    -0.0063
       N       E                     dE             d eps       ncg     rms          ort
SDA:   1    -0.388552061768E+03    0.38837E+02    0.00000E+00   688   0.115E+03 0.000E+00
CGA:   2    -0.421498438743E+03   -0.32946E+02   -0.32950E+02   688   0.369E+02-0.558E+00
CGA:   3    -0.429698886813E+03   -0.82004E+01   -0.81821E+01   688   0.104E+02-0.663E-01
CGA:   4    -0.431701341244E+03   -0.20025E+01   -0.20307E+01   688   0.219E+01 0.299E-01
CGA:   5    -0.432203410326E+03   -0.50207E+00   -0.50134E+00   688   0.513E+00-0.401E-02
CGA:   6    -0.432338111765E+03   -0.13470E+00   -0.13473E+00   688   0.160E+00 0.158E-02
CGA:   7    -0.432388207567E+03   -0.50096E-01   -0.50098E-01   688   0.753E-01-0.405E-04
CGA:   8    -0.432410246175E+03   -0.22039E-01   -0.22033E-01   688   0.386E-01 0.188E-03
CGA:   9    -0.432420527372E+03   -0.10281E-01   -0.10280E-01   688   0.140E-01-0.540E-04
CGA:  10    -0.432424770307E+03   -0.42429E-02   -0.42425E-02   688   0.472E-02 0.130E-04
CGA:  11    -0.432426176607E+03   -0.14063E-02   -0.14066E-02   688   0.202E-02-0.929E-05
CGA:  12    -0.432426737299E+03   -0.56069E-03   -0.56069E-03   688   0.944E-03-0.107E-05
CGA:  13    -0.432427031885E+03   -0.29459E-03   -0.29467E-03   688   0.423E-03-0.183E-05
CGA:  14    -0.432427175405E+03   -0.14352E-03   -0.14359E-03   688   0.210E-03-0.943E-06
CGA:  15    -0.432427237113E+03   -0.61707E-04   -0.61727E-04   688   0.103E-03-0.137E-05
  13 F= -.43752316E+03 E0= -.43751403E+03  d E =-.503688E+01  mag=    -0.0032
       N       E                     dE             d eps       ncg     rms          ort
SDA:   1    -0.411892251483E+03    0.20535E+02    0.00000E+00   688   0.576E+02 0.000E+00
CGA:   2    -0.428421303591E+03   -0.16529E+02   -0.16530E+02   688   0.186E+02-0.155E+00
CGA:   3    -0.432512471481E+03   -0.40912E+01   -0.39945E+01   688   0.551E+01-0.664E-01
CGA:   4    -0.433567610386E+03   -0.10551E+01   -0.10624E+01   688   0.108E+01 0.445E-02
CGA:   5    -0.433821803621E+03   -0.25419E+00   -0.25389E+00   688   0.261E+00-0.225E-02
CGA:   6    -0.433885818305E+03   -0.64015E-01   -0.64052E-01   688   0.895E-01 0.588E-03
CGA:   7    -0.433909758420E+03   -0.23940E-01   -0.23939E-01   688   0.431E-01-0.147E-03
CGA:   8    -0.433921596805E+03   -0.11838E-01   -0.11838E-01   688   0.205E-01 0.122E-03
CGA:   9    -0.433927507492E+03   -0.59107E-02   -0.59132E-02   688   0.803E-02-0.818E-04
CGA:  10    -0.433929743369E+03   -0.22359E-02   -0.22358E-02   688   0.322E-02 0.132E-04
CGA:  11    -0.433930551412E+03   -0.80804E-03   -0.80771E-03   688   0.128E-02-0.885E-05
CGA:  12    -0.433930909682E+03   -0.35827E-03   -0.35828E-03   688   0.522E-03-0.777E-06
CGA:  13    -0.433931073318E+03   -0.16364E-03   -0.16369E-03   688   0.287E-03-0.106E-05
CGA:  14    -0.433931151424E+03   -0.78107E-04   -0.78107E-04   688   0.141E-03 0.494E-06
  14 F= -.43902487E+03 E0= -.43901622E+03  d E =-.653859E+01  mag=    -0.0020
       N       E                     dE             d eps       ncg     rms          ort
SDA:   1    -0.346261189216E+03    0.87670E+02    0.00000E+00   688   0.233E+03 0.000E+00
CGA:   2    -0.412259491911E+03   -0.65998E+02   -0.66003E+02   688   0.717E+02-0.313E+00
CGA:   3    -0.427563309775E+03   -0.15304E+02   -0.12958E+02   688   0.240E+02 0.251E+01
CGA:   4    -0.432078961230E+03   -0.45157E+01   -0.46774E+01   688   0.599E+01 0.127E+00
CGA:   5    -0.433222680237E+03   -0.11437E+01   -0.10049E+01   688   0.277E+01 0.151E+00
CGA:   6    -0.433631704872E+03   -0.40902E+00   -0.44124E+00   688   0.782E+00-0.457E-01
CGA:   7    -0.433786891281E+03   -0.15519E+00   -0.15302E+00   688   0.451E+00-0.746E-02
CGA:   8    -0.433859509794E+03   -0.72619E-01   -0.75408E-01   688   0.190E+00 0.357E-03
CGA:   9    -0.433905832572E+03   -0.46323E-01   -0.46252E-01   688   0.119E+00-0.462E-02
CGA:  10    -0.433926077135E+03   -0.20245E-01   -0.20584E-01   688   0.602E-01 0.502E-03
CGA:  11    -0.433939040349E+03   -0.12963E-01   -0.12935E-01   688   0.258E-01-0.283E-03
CGA:  12    -0.433943746606E+03   -0.47063E-02   -0.47425E-02   688   0.139E-01 0.116E-03
CGA:  13    -0.433946508804E+03   -0.27622E-02   -0.27531E-02   688   0.570E-02-0.632E-04
CGA:  14    -0.433947712626E+03   -0.12038E-02   -0.12046E-02   688   0.363E-02 0.609E-05
CGA:  15    -0.433948410959E+03   -0.69833E-03   -0.69671E-03   688   0.173E-02-0.133E-04
CGA:  16    -0.433948818608E+03   -0.40765E-03   -0.40764E-03   688   0.115E-02 0.532E-05
CGA:  17    -0.433949038434E+03   -0.21983E-03   -0.21939E-03   688   0.620E-03-0.408E-05
CGA:  18    -0.433949182903E+03   -0.14447E-03   -0.14447E-03   688   0.361E-03-0.128E-05
CGA:  19    -0.433949253068E+03   -0.70164E-04   -0.69984E-04   688   0.220E-03-0.315E-05
  15 F= -.43903560E+03 E0= -.43902370E+03  d E =-.654932E+01  mag=     0.0052
       N       E                     dE             d eps       ncg     rms          ort
SDA:   1    -0.365097675337E+03    0.68852E+02    0.00000E+00   688   0.190E+03 0.000E+00
CGA:   2    -0.422275956796E+03   -0.57178E+02   -0.57160E+02   688   0.599E+02 0.308E+00
CGA:   3    -0.434828597759E+03   -0.12553E+02   -0.12230E+02   688   0.367E+02-0.466E+01
CGA:   4    -0.438218803766E+03   -0.33902E+01   -0.42483E+01   688   0.809E+01-0.193E+01
CGA:   5    -0.439741442240E+03   -0.15226E+01   -0.14934E+01   688   0.190E+01-0.267E+00
CGA:   6    -0.440128163479E+03   -0.38672E+00   -0.38791E+00   688   0.883E+00 0.326E-01
CGA:   7    -0.440266943227E+03   -0.13878E+00   -0.13583E+00   688   0.491E+00-0.245E-02
CGA:   8    -0.440372527433E+03   -0.10558E+00   -0.10564E+00   688   0.174E+00 0.462E-02
CGA:   9    -0.440423939392E+03   -0.51412E-01   -0.51590E-01   688   0.125E+00-0.178E-02
CGA:  10    -0.440441329360E+03   -0.17390E-01   -0.17766E-01   688   0.601E-01-0.234E-03
CGA:  11    -0.440455536054E+03   -0.14207E-01   -0.14204E-01   688   0.187E-01 0.100E-03
CGA:  12    -0.440460113088E+03   -0.45770E-02   -0.45748E-02   688   0.151E-01 0.604E-04
CGA:  13    -0.440462369720E+03   -0.22566E-02   -0.22411E-02   688   0.498E-02-0.718E-05
CGA:  14    -0.440463907705E+03   -0.15380E-02   -0.15342E-02   688   0.323E-02 0.321E-04
CGA:  15    -0.440464589865E+03   -0.68216E-03   -0.68139E-03   688   0.285E-02-0.230E-04
CGA:  16    -0.440465248288E+03   -0.65842E-03   -0.65782E-03   688   0.196E-02 0.366E-04
CGA:  17    -0.440465999430E+03   -0.75114E-03   -0.77492E-03   688   0.301E-02-0.135E-03
CGA:  18    -0.440466918314E+03   -0.91888E-03   -0.88699E-03   688   0.403E-02 0.276E-03
CGA:  19    -0.440468101253E+03   -0.11829E-02   -0.13096E-02   688   0.941E-02-0.145E-02
CGA:  20    -0.440468622780E+03   -0.52153E-03   -0.45918E-03   688   0.125E-01 0.640E-03
CGA:  21    -0.440469921319E+03   -0.12985E-02   -0.13845E-02   688   0.723E-02-0.358E-03
CGA:  22    -0.440470769034E+03   -0.84771E-03   -0.87170E-03   688   0.683E-02-0.551E-04
CGA:  23    -0.440471683075E+03   -0.91404E-03   -0.90891E-03   688   0.630E-02 0.705E-05
CGA:  24    -0.440472554108E+03   -0.87103E-03   -0.86842E-03   688   0.747E-02 0.287E-05
CGA:  25    -0.440473486532E+03   -0.93242E-03   -0.92220E-03   688   0.659E-02 0.278E-04
CGA:  26    -0.440474209491E+03   -0.72296E-03   -0.72370E-03   688   0.663E-02-0.490E-05
CGA:  27    -0.440475129241E+03   -0.91975E-03   -0.91552E-03   688   0.845E-02-0.887E-05
CGA:  28    -0.440475956133E+03   -0.82689E-03   -0.83441E-03   688   0.589E-02-0.444E-04
CGA:  29    -0.440476535124E+03   -0.57899E-03   -0.58923E-03   688   0.519E-02-0.540E-04
CGA:  30    -0.440477198350E+03   -0.66323E-03   -0.66380E-03   688   0.571E-02-0.687E-05
CGA:  31    -0.440477792683E+03   -0.59433E-03   -0.60050E-03   688   0.418E-02-0.251E-04
SDA:  32    -0.440478236817E+03   -0.44413E-03   -0.45098E-03   688   0.342E-02-0.177E-04
CGA:  33    -0.440479820593E+03   -0.15838E-02   -0.15872E-02   688   0.638E-02-0.132E-04
CGA:  34    -0.440481100176E+03   -0.12796E-02   -0.12800E-02   688   0.286E-02-0.284E-04
CGA:  35    -0.440482100569E+03   -0.10004E-02   -0.99983E-03   688   0.102E-02 0.350E-05
CGA:  36    -0.440482445134E+03   -0.34456E-03   -0.34496E-03   688   0.441E-03-0.283E-05
CGA:  37    -0.440482580950E+03   -0.13582E-03   -0.13580E-03   688   0.269E-03 0.231E-06
CGA:  38    -0.440482669386E+03   -0.88436E-04   -0.88385E-04   688   0.256E-03 0.329E-06
  16 F= -.44557535E+03 E0= -.44556530E+03  d E =-.653976E+01  mag=    -0.0260
       N       E                     dE             d eps       ncg     rms          ort
SDA:   1    -0.305856195609E+03    0.13463E+03    0.00000E+00   688   0.347E+03 0.000E+00
CGA:   2    -0.410536755203E+03   -0.10468E+03   -0.10521E+03   688   0.113E+03-0.412E+01
CGA:   3    -0.435262653269E+03   -0.24726E+02   -0.24725E+02   688   0.307E+02 0.157E+01
CGA:   4    -0.440493642857E+03   -0.52310E+01   -0.53983E+01   688   0.944E+01 0.722E+00
CGA:   5    -0.442267616235E+03   -0.17740E+01   -0.17148E+01   688   0.310E+01-0.435E+00
CGA:   6    -0.442917801343E+03   -0.65019E+00   -0.65022E+00   688   0.977E+00-0.635E-02
CGA:   7    -0.443194981760E+03   -0.27718E+00   -0.27736E+00   688   0.471E+00-0.824E-03
CGA:   8    -0.443303691866E+03   -0.10871E+00   -0.10872E+00   688   0.299E+00-0.608E-03
CGA:   9    -0.443367158995E+03   -0.63467E-01   -0.63431E-01   688   0.128E+00-0.172E-02
CGA:  10    -0.443397567664E+03   -0.30409E-01   -0.30398E-01   688   0.508E-01 0.379E-03
CGA:  11    -0.443410617426E+03   -0.13050E-01   -0.13050E-01   688   0.228E-01 0.500E-05
CGA:  12    -0.443415624474E+03   -0.50070E-02   -0.50066E-02   688   0.128E-01-0.652E-04
CGA:  13    -0.443418493547E+03   -0.28691E-02   -0.28690E-02   688   0.599E-02 0.140E-04
CGA:  14    -0.443420284533E+03   -0.17910E-02   -0.17905E-02   688   0.352E-02 0.247E-05
CGA:  15    -0.443421303386E+03   -0.10189E-02   -0.10181E-02   688   0.237E-02 0.785E-05
CGA:  16    -0.443421844829E+03   -0.54144E-03   -0.54140E-03   688   0.154E-02-0.133E-04
CGA:  17    -0.443422255396E+03   -0.41057E-03   -0.41013E-03   688   0.755E-03 0.498E-05
CGA:  18    -0.443422506348E+03   -0.25095E-03   -0.25226E-03   688   0.614E-03-0.104E-04
CGA:  19    -0.443422669254E+03   -0.16291E-03   -0.16260E-03   688   0.442E-03 0.667E-05
CGA:  20    -0.443422795563E+03   -0.12631E-03   -0.12634E-03   688   0.385E-03 0.404E-06
CGA:  21    -0.443422916750E+03   -0.12119E-03   -0.12072E-03   688   0.232E-03 0.562E-05
CGA:  22    -0.443423008468E+03   -0.91718E-04   -0.91982E-04   688   0.241E-03-0.158E-05
  17 F= -.44854485E+03 E0= -.44852777E+03  d E =-.950926E+01  mag=     0.2292
       N       E                     dE             d eps       ncg     rms          ort
SDA:   1    -0.370348519571E+03    0.73074E+02    0.00000E+00   688   0.193E+03 0.000E+00
CGA:   2    -0.429621051582E+03   -0.59273E+02   -0.59393E+02   688   0.804E+02-0.109E+01
CGA:   3    -0.443110415520E+03   -0.13489E+02   -0.14417E+02   688   0.319E+02 0.711E+00
CGA:   4    -0.447475302079E+03   -0.43649E+01   -0.45461E+01   688   0.960E+01-0.185E+01
CGA:   5    -0.449172165271E+03   -0.16969E+01   -0.16023E+01   688   0.223E+01-0.277E+00
CGA:   6    -0.449675064050E+03   -0.50290E+00   -0.50275E+00   688   0.881E+00-0.745E-02
CGA:   7    -0.449828755254E+03   -0.15369E+00   -0.15475E+00   688   0.622E+00 0.802E-03
CGA:   8    -0.449929608184E+03   -0.10085E+00   -0.10228E+00   688   0.221E+00 0.142E-02
CGA:   9    -0.449996876497E+03   -0.67268E-01   -0.67262E-01   688   0.106E+00-0.254E-04
CGA:  10    -0.450026986684E+03   -0.30110E-01   -0.30023E-01   688   0.512E-01 0.126E-02
CGA:  11    -0.450039858805E+03   -0.12872E-01   -0.12861E-01   688   0.293E-01 0.681E-03
CGA:  12    -0.450045301453E+03   -0.54426E-02   -0.54654E-02   688   0.169E-01 0.709E-04
CGA:  13    -0.450049768125E+03   -0.44667E-02   -0.44663E-02   688   0.729E-02 0.491E-05
CGA:  14    -0.450052811223E+03   -0.30431E-02   -0.30388E-02   688   0.521E-02 0.199E-04
CGA:  15    -0.450054658706E+03   -0.18475E-02   -0.18486E-02   688   0.371E-02-0.501E-05
CGA:  16    -0.450055899180E+03   -0.12405E-02   -0.12336E-02   688   0.257E-02 0.612E-04
CGA:  17    -0.450056519278E+03   -0.62010E-03   -0.62055E-03   688   0.189E-02 0.833E-05
CGA:  18    -0.450057011798E+03   -0.49252E-03   -0.49250E-03   688   0.882E-03 0.110E-05
CGA:  19    -0.450057332325E+03   -0.32053E-03   -0.32047E-03   688   0.514E-03 0.462E-06
CGA:  20    -0.450057525794E+03   -0.19347E-03   -0.19319E-03   688   0.286E-03 0.220E-05
CGA:  21    -0.450057616574E+03   -0.90780E-04   -0.90804E-04   688   0.203E-03-0.398E-06
  18 F= -.45518699E+03 E0= -.45517445E+03  d E =-.664213E+01  mag=     0.0062
       N       E                     dE             d eps       ncg     rms          ort
SDA:   1    -0.376652573070E+03    0.73405E+02    0.00000E+00   688   0.182E+03 0.000E+00
CGA:   2    -0.433709051777E+03   -0.57056E+02   -0.56962E+02   688   0.615E+02 0.121E+01
CGA:   3    -0.447509909655E+03   -0.13801E+02   -0.13580E+02   688   0.143E+02-0.646E+00
CGA:   4    -0.450621722481E+03   -0.31118E+01   -0.31322E+01   688   0.304E+01 0.143E+00
CGA:   5    -0.451369201952E+03   -0.74748E+00   -0.74706E+00   688   0.862E+00-0.696E-02
CGA:   6    -0.451613612222E+03   -0.24441E+00   -0.24426E+00   688   0.330E+00 0.490E-02
CGA:   7    -0.451712588852E+03   -0.98977E-01   -0.98777E-01   688   0.173E+00 0.377E-02
CGA:   8    -0.451761072608E+03   -0.48484E-01   -0.48476E-01   688   0.824E-01 0.486E-03
CGA:   9    -0.451783464077E+03   -0.22391E-01   -0.22387E-01   688   0.286E-01 0.692E-03
CGA:  10    -0.451792081465E+03   -0.86174E-02   -0.86167E-02   688   0.964E-02 0.635E-05
CGA:  11    -0.451795146510E+03   -0.30650E-02   -0.30630E-02   688   0.365E-02 0.251E-04
CGA:  12    -0.451796433983E+03   -0.12875E-02   -0.12874E-02   688   0.166E-02-0.923E-08
CGA:  13    -0.451797007394E+03   -0.57341E-03   -0.57320E-03   688   0.823E-03 0.147E-05
CGA:  14    -0.451797271640E+03   -0.26425E-03   -0.26443E-03   688   0.399E-03-0.490E-05
CGA:  15    -0.451797390252E+03   -0.11861E-03   -0.11863E-03   688   0.167E-03-0.115E-05
CGA:  16    -0.451797441979E+03   -0.51727E-04   -0.51733E-04   688   0.697E-04-0.210E-06
  19 F= -.45694107E+03 E0= -.45692747E+03  d E =-.839622E+01  mag=    -0.0317
       N       E                     dE             d eps       ncg     rms          ort
SDA:   1    -0.371222825343E+03    0.80575E+02    0.00000E+00   688   0.198E+03 0.000E+00
CGA:   2    -0.435033064237E+03   -0.63810E+02   -0.63618E+02   688   0.748E+02 0.343E+01
CGA:   3    -0.450738192867E+03   -0.15705E+02   -0.15901E+02   688   0.164E+02 0.755E+00
CGA:   4    -0.454102111783E+03   -0.33639E+01   -0.33985E+01   688   0.398E+01 0.105E+00
CGA:   5    -0.455025209447E+03   -0.92310E+00   -0.92401E+00   688   0.102E+01 0.772E-02
CGA:   6    -0.455307527337E+03   -0.28232E+00   -0.28232E+00   688   0.378E+00 0.978E-03
CGA:   7    -0.455420729653E+03   -0.11320E+00   -0.11317E+00   688   0.162E+00 0.887E-03
CGA:   8    -0.455474538712E+03   -0.53809E-01   -0.53800E-01   688   0.661E-01 0.118E-03
CGA:   9    -0.455495418747E+03   -0.20880E-01   -0.20873E-01   688   0.231E-01 0.136E-03
CGA:  10    -0.455502718853E+03   -0.73001E-02   -0.73014E-02   688   0.792E-02-0.226E-04
CGA:  11    -0.455505465223E+03   -0.27464E-02   -0.27442E-02   688   0.347E-02 0.235E-04
CGA:  12    -0.455506824669E+03   -0.13594E-02   -0.13600E-02   688   0.192E-02-0.391E-05
CGA:  13    -0.455507619470E+03   -0.79480E-03   -0.79348E-03   688   0.109E-02 0.762E-05
CGA:  14    -0.455508050753E+03   -0.43128E-03   -0.43162E-03   688   0.548E-03-0.382E-05
CGA:  15    -0.455508266990E+03   -0.21624E-03   -0.21602E-03   688   0.266E-03 0.183E-05
CGA:  16    -0.455508378708E+03   -0.11172E-03   -0.11182E-03   688   0.145E-03-0.747E-06
CGA:  17    -0.455508442231E+03   -0.63523E-04   -0.63743E-04   688   0.817E-04-0.795E-06
  20 F= -.46065339E+03 E0= -.46064035E+03  d E =-.371231E+01  mag=    -0.0197
       N       E                     dE             d eps       ncg     rms          ort
SDA:   1    -0.454009518172E+03    0.14989E+01    0.00000E+00   688   0.381E+01 0.000E+00
CGA:   2    -0.455219728917E+03   -0.12102E+01   -0.12100E+01   688   0.147E+01-0.113E-01
CGA:   3    -0.455541927587E+03   -0.32220E+00   -0.32289E+00   688   0.330E+00 0.639E-03
CGA:   4    -0.455607456175E+03   -0.65529E-01   -0.65513E-01   688   0.785E-01 0.995E-04
CGA:   5    -0.455624840015E+03   -0.17384E-01   -0.17381E-01   688   0.204E-01 0.313E-04
CGA:   6    -0.455630222980E+03   -0.53830E-02   -0.53835E-02   688   0.695E-02 0.828E-05
CGA:   7    -0.455632418469E+03   -0.21955E-02   -0.21955E-02   688   0.308E-02 0.115E-05
CGA:   8    -0.455633447548E+03   -0.10291E-02   -0.10291E-02   688   0.127E-02 0.195E-05
CGA:   9    -0.455633862042E+03   -0.41449E-03   -0.41453E-03   688   0.406E-03-0.178E-05
CGA:  10    -0.455633993440E+03   -0.13140E-03   -0.13140E-03   688   0.125E-03 0.385E-07
CGA:  11    -0.455634036266E+03   -0.42826E-04   -0.42840E-04   688   0.460E-04-0.415E-06
  21 F= -.46077939E+03 E0= -.46076591E+03  d E =-.383832E+01  mag=    -0.0190
       N       E                     dE             d eps       ncg     rms          ort
SDA:   1    -0.430909142985E+03    0.24725E+02    0.00000E+00   688   0.649E+02 0.000E+00
CGA:   2    -0.452223673760E+03   -0.21315E+02   -0.21313E+02   688   0.217E+02 0.971E-01
CGA:   3    -0.457344879758E+03   -0.51212E+01   -0.51325E+01   688   0.439E+01 0.340E-01
CGA:   4    -0.458329893447E+03   -0.98501E+00   -0.98533E+00   688   0.105E+01 0.133E-02
CGA:   5    -0.458577976305E+03   -0.24808E+00   -0.24809E+00   688   0.299E+00 0.237E-03
CGA:   6    -0.458663194750E+03   -0.85218E-01   -0.85220E-01   688   0.115E+00 0.567E-04
CGA:   7    -0.458701961768E+03   -0.38767E-01   -0.38765E-01   688   0.506E-01 0.483E-04
CGA:   8    -0.458719171603E+03   -0.17210E-01   -0.17209E-01   688   0.185E-01 0.285E-04
CGA:   9    -0.458725116134E+03   -0.59445E-02   -0.59443E-02   688   0.536E-02 0.134E-04
CGA:  10    -0.458726852574E+03   -0.17364E-02   -0.17365E-02   688   0.167E-02-0.198E-05
CGA:  11    -0.458727451684E+03   -0.59911E-03   -0.59920E-03   688   0.622E-03-0.186E-05
CGA:  12    -0.458727697972E+03   -0.24629E-03   -0.24645E-03   688   0.274E-03-0.185E-05
CGA:  13    -0.458727800703E+03   -0.10273E-03   -0.10284E-03   688   0.122E-03-0.175E-05
CGA:  14    -0.458727840451E+03   -0.39748E-04   -0.39755E-04   688   0.531E-04-0.666E-06
  22 F= -.46387347E+03 E0= -.46386251E+03  d E =-.309408E+01  mag=    -0.0575
       N       E                     dE             d eps       ncg     rms          ort
SDA:   1    -0.454153461762E+03    0.45743E+01    0.00000E+00   688   0.113E+02 0.000E+00
CGA:   2    -0.457872802109E+03   -0.37193E+01   -0.37192E+01   688   0.379E+01 0.794E-02
CGA:   3    -0.458775221967E+03   -0.90242E+00   -0.90260E+00   688   0.768E+00 0.730E-03
CGA:   4    -0.458945986166E+03   -0.17076E+00   -0.17077E+00   688   0.181E+00 0.272E-04
CGA:   5    -0.458988889378E+03   -0.42903E-01   -0.42907E-01   688   0.504E-01 0.279E-04
CGA:   6    -0.459003390849E+03   -0.14501E-01   -0.14502E-01   688   0.197E-01 0.104E-04
CGA:   7    -0.459009980987E+03   -0.65901E-02   -0.65900E-02   688   0.881E-02 0.286E-05
CGA:   8    -0.459012931530E+03   -0.29505E-02   -0.29505E-02   688   0.333E-02 0.343E-05
CGA:   9    -0.459013978386E+03   -0.10469E-02   -0.10468E-02   688   0.998E-03 0.397E-05
CGA:  10    -0.459014296196E+03   -0.31781E-03   -0.31782E-03   688   0.315E-03-0.142E-05
CGA:  11    -0.459014409142E+03   -0.11295E-03   -0.11298E-03   688   0.119E-03-0.715E-06
CGA:  12    -0.459014456448E+03   -0.47306E-04   -0.47338E-04   688   0.541E-04-0.363E-06
  23 F= -.46415922E+03 E0= -.46414852E+03  d E =-.337983E+01  mag=    -0.0842
       N       E                     dE             d eps       ncg     rms          ort
SDA:   1    -0.444668753084E+03    0.14346E+02    0.00000E+00   688   0.376E+02 0.000E+00
CGA:   2    -0.456809563022E+03   -0.12141E+02   -0.12141E+02   688   0.128E+02 0.237E-01
CGA:   3    -0.459835605444E+03   -0.30260E+01   -0.30296E+01   688   0.248E+01 0.120E-01
CGA:   4    -0.460397291672E+03   -0.56169E+00   -0.56215E+00   688   0.576E+00 0.104E-02
CGA:   5    -0.460531299795E+03   -0.13401E+00   -0.13396E+00   688   0.167E+00 0.545E-05
CGA:   6    -0.460578966421E+03   -0.47667E-01   -0.47668E-01   688   0.682E-01 0.267E-04
CGA:   7    -0.460599510534E+03   -0.20544E-01   -0.20544E-01   688   0.321E-01-0.154E-04
CGA:   8    -0.460609247720E+03   -0.97372E-02   -0.97372E-02   688   0.121E-01 0.968E-05
CGA:   9    -0.460612899357E+03   -0.36516E-02   -0.36517E-02   688   0.365E-02 0.584E-05
CGA:  10    -0.460614063483E+03   -0.11641E-02   -0.11641E-02   688   0.108E-02 0.174E-05
CGA:  11    -0.460614462024E+03   -0.39854E-03   -0.39864E-03   688   0.433E-03-0.152E-05
CGA:  12    -0.460614629349E+03   -0.16732E-03   -0.16727E-03   688   0.216E-03 0.685E-06
CGA:  13    -0.460614707126E+03   -0.77777E-04   -0.77815E-04   688   0.109E-03-0.691E-06
  24 F= -.46575959E+03 E0= -.46574983E+03  d E =-.160037E+01  mag=    -0.1538
       N       E                     dE             d eps       ncg     rms          ort
SDA:   1    -0.409367136227E+03    0.51247E+02    0.00000E+00   688   0.124E+03 0.000E+00
CGA:   2    -0.449081682189E+03   -0.39715E+02   -0.39714E+02   688   0.425E+02 0.384E-01
CGA:   3    -0.459127167287E+03   -0.10045E+02   -0.10079E+02   688   0.823E+01 0.131E+00
CGA:   4    -0.460987231280E+03   -0.18601E+01   -0.18631E+01   688   0.206E+01 0.848E-02
CGA:   5    -0.461450481101E+03   -0.46325E+00   -0.46257E+00   688   0.592E+00-0.342E-03
CGA:   6    -0.461619364530E+03   -0.16888E+00   -0.16889E+00   688   0.235E+00 0.330E-03
CGA:   7    -0.461691771212E+03   -0.72407E-01   -0.72407E-01   688   0.110E+00-0.322E-04
CGA:   8    -0.461725239449E+03   -0.33468E-01   -0.33468E-01   688   0.428E-01 0.349E-04
CGA:   9    -0.461737852338E+03   -0.12613E-01   -0.12613E-01   688   0.131E-01-0.292E-05
CGA:  10    -0.461741997361E+03   -0.41450E-02   -0.41450E-02   688   0.388E-02 0.136E-05
CGA:  11    -0.461743402253E+03   -0.14049E-02   -0.14049E-02   688   0.152E-02-0.593E-07
CGA:  12    -0.461743995159E+03   -0.59291E-03   -0.59315E-03   688   0.712E-03-0.289E-05
CGA:  13    -0.461744262096E+03   -0.26694E-03   -0.26704E-03   688   0.339E-03-0.133E-05
CGA:  14    -0.461744369679E+03   -0.10758E-03   -0.10759E-03   688   0.155E-03-0.945E-06
CGA:  15    -0.461744419464E+03   -0.49785E-04   -0.49777E-04   688   0.595E-04 0.163E-05
  25 F= -.46688675E+03 E0= -.46687612E+03  d E =-.272753E+01  mag=    -0.2017
       N       E                     dE             d eps       ncg     rms          ort
SDA:   1    -0.453115604382E+03    0.86288E+01    0.00000E+00   688   0.235E+02 0.000E+00
CGA:   2    -0.460566218780E+03   -0.74506E+01   -0.74506E+01   688   0.783E+01 0.144E-02
CGA:   3    -0.462416583331E+03   -0.18504E+01   -0.18477E+01   688   0.157E+01-0.196E-02
CGA:   4    -0.462767091640E+03   -0.35051E+00   -0.35072E+00   688   0.355E+00 0.452E-03
CGA:   5    -0.462845711701E+03   -0.78620E-01   -0.78571E-01   688   0.106E+00 0.494E-04
CGA:   6    -0.462874028046E+03   -0.28316E-01   -0.28316E-01   688   0.395E-01-0.182E-05
CGA:   7    -0.462886311327E+03   -0.12283E-01   -0.12283E-01   688   0.179E-01 0.786E-06
CGA:   8    -0.462891925592E+03   -0.56143E-02   -0.56141E-02   688   0.715E-02 0.132E-04
CGA:   9    -0.462893982574E+03   -0.20570E-02   -0.20570E-02   688   0.222E-02 0.155E-05
CGA:  10    -0.462894651420E+03   -0.66885E-03   -0.66885E-03   688   0.624E-03 0.697E-06
CGA:  11    -0.462894865581E+03   -0.21416E-03   -0.21419E-03   688   0.244E-03-0.551E-06
CGA:  12    -0.462894949987E+03   -0.84406E-04   -0.84381E-04   688   0.114E-03 0.603E-06
  26 F= -.46803426E+03 E0= -.46802310E+03  d E =-.114751E+01  mag=    -0.2208
       N       E                     dE             d eps       ncg     rms          ort
SDA:   1    -0.376568597824E+03    0.86326E+02    0.00000E+00   688   0.216E+03 0.000E+00
CGA:   2    -0.442810986572E+03   -0.66242E+02   -0.66242E+02   688   0.730E+02-0.132E+00
CGA:   3    -0.459845837004E+03   -0.17035E+02   -0.17013E+02   688   0.153E+02 0.208E+00
CGA:   4    -0.463108686174E+03   -0.32628E+01   -0.32787E+01   688   0.406E+01 0.279E-01
CGA:   5    -0.463991426077E+03   -0.88274E+00   -0.87989E+00   688   0.104E+01-0.209E-02
CGA:   6    -0.464290819125E+03   -0.29939E+00   -0.29939E+00   688   0.392E+00-0.128E-03
CGA:   7    -0.464411290605E+03   -0.12047E+00   -0.12046E+00   688   0.181E+00 0.464E-03
CGA:   8    -0.464468024581E+03   -0.56734E-01   -0.56738E-01   688   0.707E-01-0.976E-04
CGA:   9    -0.464489203787E+03   -0.21179E-01   -0.21179E-01   688   0.222E-01 0.183E-04
CGA:  10    -0.464495865065E+03   -0.66613E-02   -0.66613E-02   688   0.677E-02 0.155E-05
CGA:  11    -0.464497998385E+03   -0.21333E-02   -0.21334E-02   688   0.265E-02-0.196E-05
CGA:  12    -0.464498877978E+03   -0.87959E-03   -0.87961E-03   688   0.120E-02-0.411E-06
CGA:  13    -0.464499290659E+03   -0.41268E-03   -0.41289E-03   688   0.558E-03-0.438E-05
CGA:  14    -0.464499482583E+03   -0.19192E-03   -0.19194E-03   688   0.221E-03-0.227E-06
CGA:  15    -0.464499563429E+03   -0.80846E-04   -0.80849E-04   688   0.872E-04-0.178E-07
  27 F= -.46962447E+03 E0= -.46961099E+03  d E =-.273771E+01  mag=    -0.2935
       N       E                     dE             d eps       ncg     rms          ort
SDA:   1    -0.458386978979E+03    0.61125E+01    0.00000E+00   688   0.168E+02 0.000E+00
CGA:   2    -0.463744552072E+03   -0.53576E+01   -0.53571E+01   688   0.541E+01 0.300E-01
CGA:   3    -0.465025579559E+03   -0.12810E+01   -0.12797E+01   688   0.113E+01-0.230E-02
CGA:   4    -0.465274657708E+03   -0.24908E+00   -0.24917E+00   688   0.253E+00 0.186E-03
CGA:   5    -0.465331566629E+03   -0.56909E-01   -0.56893E-01   688   0.723E-01 0.217E-04
CGA:   6    -0.465351046521E+03   -0.19480E-01   -0.19480E-01   688   0.276E-01 0.132E-05
CGA:   7    -0.465359553903E+03   -0.85074E-02   -0.85073E-02   688   0.130E-01 0.591E-05
CGA:   8    -0.465363622691E+03   -0.40688E-02   -0.40686E-02   688   0.527E-02 0.133E-04
CGA:   9    -0.465365185959E+03   -0.15633E-02   -0.15633E-02   688   0.169E-02 0.436E-05
CGA:  10    -0.465365710152E+03   -0.52419E-03   -0.52419E-03   688   0.496E-03 0.531E-06
CGA:  11    -0.465365886180E+03   -0.17603E-03   -0.17599E-03   688   0.198E-03 0.773E-06
CGA:  12    -0.465365963657E+03   -0.77477E-04   -0.77472E-04   688   0.985E-04 0.570E-07
  28 F= -.47048701E+03 E0= -.47047254E+03  d E =-.862548E+00  mag=    -0.3636
       N       E                     dE             d eps       ncg     rms          ort
SDA:   1    -0.444187703232E+03    0.21178E+02    0.00000E+00   688   0.526E+02 0.000E+00
CGA:   2    -0.460875506743E+03   -0.16688E+02   -0.16686E+02   688   0.169E+02 0.165E+00
CGA:   3    -0.464876966773E+03   -0.40015E+01   -0.39977E+01   688   0.361E+01 0.202E-02
CGA:   4    -0.465659143714E+03   -0.78218E+00   -0.78304E+00   688   0.860E+00 0.164E-02
CGA:   5    -0.465847541658E+03   -0.18840E+00   -0.18823E+00   688   0.235E+00-0.469E-04
CGA:   6    -0.465911782979E+03   -0.64241E-01   -0.64245E-01   688   0.877E-01 0.585E-04
CGA:   7    -0.465939255250E+03   -0.27472E-01   -0.27472E-01   688   0.407E-01 0.224E-04
CGA:   8    -0.465952269818E+03   -0.13015E-01   -0.13014E-01   688   0.166E-01 0.306E-04
CGA:   9    -0.465957211851E+03   -0.49420E-02   -0.49421E-02   688   0.534E-02 0.109E-04
CGA:  10    -0.465958864720E+03   -0.16529E-02   -0.16529E-02   688   0.157E-02 0.522E-06
CGA:  11    -0.465959407625E+03   -0.54291E-03   -0.54284E-03   688   0.619E-03 0.149E-05
CGA:  12    -0.465959640227E+03   -0.23260E-03   -0.23266E-03   688   0.290E-03-0.794E-06
CGA:  13    -0.465959754788E+03   -0.11456E-03   -0.11465E-03   688   0.130E-03-0.999E-06
CGA:  14    -0.465959805807E+03   -0.51020E-04   -0.51057E-04   688   0.542E-04-0.438E-06
  29 F= -.47107546E+03 E0= -.47106055E+03  d E =-.145099E+01  mag=    -0.4877
       N       E                     dE             d eps       ncg     rms          ort
SDA:   1    -0.458573559603E+03    0.73862E+01    0.00000E+00   688   0.200E+02 0.000E+00
CGA:   2    -0.464698672742E+03   -0.61251E+01   -0.61265E+01   688   0.647E+01 0.443E-01
CGA:   3    -0.466233487013E+03   -0.15348E+01   -0.15318E+01   688   0.137E+01-0.397E-02
CGA:   4    -0.466536177861E+03   -0.30269E+00   -0.30272E+00   688   0.297E+00 0.137E-03
CGA:   5    -0.466603103188E+03   -0.66925E-01   -0.66920E-01   688   0.818E-01 0.623E-04
CGA:   6    -0.466624764130E+03   -0.21661E-01   -0.21662E-01   688   0.296E-01 0.128E-04
CGA:   7    -0.466633842448E+03   -0.90783E-02   -0.90783E-02   688   0.138E-01 0.803E-05
CGA:   8    -0.466638088749E+03   -0.42463E-02   -0.42463E-02   688   0.579E-02 0.116E-04
CGA:   9    -0.466639785107E+03   -0.16964E-02   -0.16964E-02   688   0.184E-02 0.496E-05
CGA:  10    -0.466640355447E+03   -0.57034E-03   -0.57034E-03   688   0.535E-03-0.266E-07
CGA:  11    -0.466640531955E+03   -0.17651E-03   -0.17653E-03   688   0.204E-03-0.647E-06
CGA:  12    -0.466640602812E+03   -0.70856E-04   -0.70874E-04   688   0.923E-04-0.417E-06
  30 F= -.47175203E+03 E0= -.47173622E+03  d E =-.676573E+00  mag=    -0.5268
       N       E                     dE             d eps       ncg     rms          ort
SDA:   1    -0.438073814670E+03    0.28567E+02    0.00000E+00   688   0.724E+02 0.000E+00
CGA:   2    -0.460122232800E+03   -0.22048E+02   -0.22051E+02   688   0.230E+02 0.274E+00
CGA:   3    -0.465604029252E+03   -0.54818E+01   -0.54779E+01   688   0.490E+01 0.101E-01
CGA:   4    -0.466675645756E+03   -0.10716E+01   -0.10724E+01   688   0.112E+01 0.218E-02
CGA:   5    -0.466924824019E+03   -0.24918E+00   -0.24894E+00   688   0.304E+00-0.120E-03
CGA:   6    -0.467005619676E+03   -0.80796E-01   -0.80806E-01   688   0.110E+00 0.136E-03
CGA:   7    -0.467039504764E+03   -0.33885E-01   -0.33885E-01   688   0.502E-01 0.142E-05
CGA:   8    -0.467055392102E+03   -0.15887E-01   -0.15887E-01   688   0.206E-01 0.323E-04
CGA:   9    -0.467061522650E+03   -0.61305E-02   -0.61305E-02   688   0.651E-02 0.108E-04
CGA:  10    -0.467063546024E+03   -0.20234E-02   -0.20234E-02   688   0.186E-02 0.136E-05
CGA:  11    -0.467064175759E+03   -0.62973E-03   -0.62979E-03   688   0.680E-03-0.132E-05
CGA:  12    -0.467064425717E+03   -0.24996E-03   -0.25007E-03   688   0.297E-03-0.167E-05
CGA:  13    -0.467064540831E+03   -0.11511E-03   -0.11523E-03   688   0.130E-03-0.129E-05
CGA:  14    -0.467064590225E+03   -0.49394E-04   -0.49466E-04   688   0.512E-04-0.965E-06
  31 F= -.47216931E+03 E0= -.47215181E+03  d E =-.109385E+01  mag=    -0.6042
       N       E                     dE             d eps       ncg     rms          ort
SDA:   1    -0.457513109580E+03    0.95514E+01    0.00000E+00   688   0.259E+02 0.000E+00
CGA:   2    -0.465285793497E+03   -0.77727E+01   -0.77748E+01   688   0.821E+01 0.647E-01
CGA:   3    -0.467255649750E+03   -0.19699E+01   -0.19655E+01   688   0.174E+01-0.775E-02
CGA:   4    -0.467642260846E+03   -0.38661E+00   -0.38688E+00   688   0.377E+00 0.428E-03
CGA:   5    -0.467726794191E+03   -0.84533E-01   -0.84495E-01   688   0.105E+00 0.212E-04
CGA:   6    -0.467754554914E+03   -0.27761E-01   -0.27763E-01   688   0.391E-01 0.145E-04
CGA:   7    -0.467766442056E+03   -0.11887E-01   -0.11887E-01   688   0.181E-01 0.112E-04
CGA:   8    -0.467772125562E+03   -0.56835E-02   -0.56833E-02   688   0.748E-02 0.170E-04
CGA:   9    -0.467774341589E+03   -0.22160E-02   -0.22160E-02   688   0.238E-02 0.434E-05
CGA:  10    -0.467775075063E+03   -0.73347E-03   -0.73347E-03   688   0.677E-03 0.973E-06
CGA:  11    -0.467775300783E+03   -0.22572E-03   -0.22571E-03   688   0.247E-03 0.446E-06
CGA:  12    -0.467775389417E+03   -0.88634E-04   -0.88633E-04   688   0.105E-03 0.771E-08
  32 F= -.47287388E+03 E0= -.47285582E+03  d E =-.704567E+00  mag=    -0.6133
       N       E                     dE             d eps       ncg     rms          ort
SDA:   1    -0.425723443801E+03    0.42052E+02    0.00000E+00   688   0.108E+03 0.000E+00
CGA:   2    -0.457951556695E+03   -0.32228E+02   -0.32237E+02   688   0.342E+02 0.355E+00
CGA:   3    -0.466124885265E+03   -0.81733E+01   -0.81671E+01   688   0.743E+01 0.262E-01
CGA:   4    -0.467719692722E+03   -0.15948E+01   -0.15991E+01   688   0.180E+01 0.683E-02
CGA:   5    -0.468112336337E+03   -0.39264E+00   -0.39199E+00   688   0.461E+00-0.330E-03
CGA:   6    -0.468239174723E+03   -0.12684E+00   -0.12684E+00   688   0.166E+00 0.151E-03
CGA:   7    -0.468291048843E+03   -0.51874E-01   -0.51872E-01   688   0.764E-01 0.870E-04
CGA:   8    -0.468315446855E+03   -0.24398E-01   -0.24398E-01   688   0.315E-01 0.306E-04
CGA:   9    -0.468324871497E+03   -0.94246E-02   -0.94246E-02   688   0.100E-01 0.203E-04
CGA:  10    -0.468328000289E+03   -0.31288E-02   -0.31288E-02   688   0.294E-02 0.117E-05
CGA:  11    -0.468328992330E+03   -0.99204E-03   -0.99196E-03   688   0.112E-02 0.229E-05
CGA:  12    -0.468329410142E+03   -0.41781E-03   -0.41790E-03   688   0.506E-03-0.127E-05
CGA:  13    -0.468329620564E+03   -0.21042E-03   -0.21077E-03   688   0.244E-03-0.302E-05
CGA:  14    -0.468329723055E+03   -0.10249E-03   -0.10255E-03   688   0.128E-03-0.602E-06
CGA:  15    -0.468329776442E+03   -0.53387E-04   -0.53436E-04   688   0.870E-04-0.472E-06
  33 F= -.47341621E+03 E0= -.47339900E+03  d E =-.124689E+01  mag=    -0.4836
       N       E                     dE             d eps       ncg     rms          ort
SDA:   1    -0.461641268108E+03    0.66885E+01    0.00000E+00   688   0.188E+02 0.000E+00
CGA:   2    -0.467102280707E+03   -0.54610E+01   -0.54607E+01   688   0.570E+01-0.315E-02
CGA:   3    -0.468514371493E+03   -0.14121E+01   -0.14114E+01   688   0.121E+01-0.745E-03
CGA:   4    -0.468785346916E+03   -0.27098E+00   -0.27114E+00   688   0.264E+00 0.176E-03
CGA:   5    -0.468844787933E+03   -0.59441E-01   -0.59414E-01   688   0.724E-01 0.316E-04
CGA:   6    -0.468863796451E+03   -0.19009E-01   -0.19009E-01   688   0.276E-01-0.130E-04
CGA:   7    -0.468872190449E+03   -0.83940E-02   -0.83940E-02   688   0.126E-01-0.428E-05
CGA:   8    -0.468876284492E+03   -0.40940E-02   -0.40939E-02   688   0.521E-02 0.815E-05
CGA:   9    -0.468877861621E+03   -0.15771E-02   -0.15771E-02   688   0.170E-02 0.153E-05
CGA:  10    -0.468878384022E+03   -0.52240E-03   -0.52240E-03   688   0.513E-03-0.608E-06
CGA:  11    -0.468878560912E+03   -0.17689E-03   -0.17690E-03   688   0.210E-03-0.186E-06
CGA:  12    -0.468878641107E+03   -0.80195E-04   -0.80161E-04   688   0.107E-03 0.468E-06
  34 F= -.47395976E+03 E0= -.47394474E+03  d E =-.543557E+00  mag=    -0.3887
       N       E                     dE             d eps       ncg     rms          ort
SDA:   1    -0.454470071910E+03    0.14408E+02    0.00000E+00   688   0.382E+02 0.000E+00
CGA:   2    -0.465547333181E+03   -0.11077E+02   -0.11077E+02   688   0.116E+02-0.751E-02
CGA:   3    -0.468424720542E+03   -0.28774E+01   -0.28757E+01   688   0.249E+01-0.151E-02
CGA:   4    -0.468976236570E+03   -0.55152E+00   -0.55206E+00   688   0.559E+00 0.825E-03
CGA:   5    -0.469100346875E+03   -0.12411E+00   -0.12400E+00   688   0.150E+00-0.575E-05
CGA:   6    -0.469139991573E+03   -0.39645E-01   -0.39646E-01   688   0.561E-01-0.442E-05
CGA:   7    -0.469157206921E+03   -0.17215E-01   -0.17215E-01   688   0.257E-01-0.425E-05
CGA:   8    -0.469165608760E+03   -0.84018E-02   -0.84018E-02   688   0.108E-01 0.945E-05
CGA:   9    -0.469168876510E+03   -0.32677E-02   -0.32678E-02   688   0.351E-02 0.396E-05
CGA:  10    -0.469169956744E+03   -0.10802E-02   -0.10802E-02   688   0.103E-02-0.798E-06
CGA:  11    -0.469170303967E+03   -0.34722E-03   -0.34723E-03   688   0.410E-03-0.194E-06
CGA:  12    -0.469170448754E+03   -0.14479E-03   -0.14477E-03   688   0.192E-03 0.269E-06
CGA:  13    -0.469170520072E+03   -0.71318E-04   -0.71314E-04   688   0.887E-04 0.886E-07
  35 F= -.47424388E+03 E0= -.47423143E+03  d E =-.827672E+00  mag=    -0.2927
       N       E                     dE             d eps       ncg     rms          ort
SDA:   1    -0.461763163606E+03    0.74073E+01    0.00000E+00   688   0.200E+02 0.000E+00
CGA:   2    -0.467673855028E+03   -0.59107E+01   -0.59111E+01   688   0.645E+01 0.105E-01
CGA:   3    -0.469244705203E+03   -0.15709E+01   -0.15691E+01   688   0.140E+01-0.441E-02
CGA:   4    -0.469550813090E+03   -0.30611E+00   -0.30624E+00   688   0.290E+00 0.211E-03
CGA:   5    -0.469618411649E+03   -0.67599E-01   -0.67589E-01   688   0.803E-01 0.407E-04
CGA:   6    -0.469639852070E+03   -0.21440E-01   -0.21440E-01   688   0.306E-01-0.101E-04
CGA:   7    -0.469649220322E+03   -0.93683E-02   -0.93683E-02   688   0.139E-01-0.147E-06
CGA:   8    -0.469653660939E+03   -0.44406E-02   -0.44405E-02   688   0.570E-02 0.865E-05
CGA:   9    -0.469655353175E+03   -0.16922E-02   -0.16922E-02   688   0.184E-02 0.173E-05
CGA:  10    -0.469655914671E+03   -0.56150E-03   -0.56150E-03   688   0.543E-03-0.138E-05
CGA:  11    -0.469656094629E+03   -0.17996E-03   -0.17999E-03   688   0.214E-03-0.104E-05
CGA:  12    -0.469656167987E+03   -0.73358E-04   -0.73352E-04   688   0.998E-04 0.129E-06
  36 F= -.47471539E+03 E0= -.47470473E+03  d E =-.471513E+00  mag=    -0.2314
       N       E                     dE             d eps       ncg     rms          ort
SDA:   1    -0.462457611756E+03    0.71985E+01    0.00000E+00   688   0.187E+02 0.000E+00
CGA:   2    -0.467966355489E+03   -0.55087E+01   -0.55090E+01   688   0.601E+01 0.100E-01
CGA:   3    -0.469430720788E+03   -0.14644E+01   -0.14626E+01   688   0.130E+01-0.584E-02
CGA:   4    -0.469715817191E+03   -0.28510E+00   -0.28521E+00   688   0.265E+00 0.237E-03
CGA:   5    -0.469778360423E+03   -0.62543E-01   -0.62535E-01   688   0.737E-01 0.270E-04
CGA:   6    -0.469797996142E+03   -0.19636E-01   -0.19636E-01   688   0.285E-01-0.837E-05
CGA:   7    -0.469806674851E+03   -0.86787E-02   -0.86788E-02   688   0.129E-01-0.162E-05
CGA:   8    -0.469810851906E+03   -0.41771E-02   -0.41769E-02   688   0.515E-02 0.776E-05
CGA:   9    -0.469812419098E+03   -0.15672E-02   -0.15672E-02   688   0.164E-02 0.700E-06
CGA:  10    -0.469812925084E+03   -0.50599E-03   -0.50600E-03   688   0.485E-03-0.126E-05
CGA:  11    -0.469813087607E+03   -0.16252E-03   -0.16257E-03   688   0.192E-03-0.114E-05
CGA:  12    -0.469813153525E+03   -0.65918E-04   -0.65912E-04   688   0.888E-04 0.116E-06
  37 F= -.47485697E+03 E0= -.47484812E+03  d E =-.613090E+00  mag=    -0.1744
       N       E                     dE             d eps       ncg     rms          ort
SDA:   1    -0.463478249011E+03    0.63348E+01    0.00000E+00   688   0.166E+02 0.000E+00
CGA:   2    -0.468524128426E+03   -0.50459E+01   -0.50458E+01   688   0.567E+01 0.467E-01
CGA:   3    -0.469860436447E+03   -0.13363E+01   -0.13341E+01   688   0.122E+01-0.536E-02
CGA:   4    -0.470124737224E+03   -0.26430E+00   -0.26448E+00   688   0.256E+00 0.297E-03
CGA:   5    -0.470184563518E+03   -0.59826E-01   -0.59819E-01   688   0.726E-01 0.508E-05
CGA:   6    -0.470204445057E+03   -0.19882E-01   -0.19881E-01   688   0.272E-01-0.193E-04
CGA:   7    -0.470213113561E+03   -0.86685E-02   -0.86682E-02   688   0.122E-01 0.739E-05
CGA:   8    -0.470217092444E+03   -0.39789E-02   -0.39785E-02   688   0.472E-02 0.119E-04
CGA:   9    -0.470218502163E+03   -0.14097E-02   -0.14097E-02   688   0.153E-02 0.169E-05
CGA:  10    -0.470218963412E+03   -0.46125E-03   -0.46125E-03   688   0.455E-03-0.618E-06
CGA:  11    -0.470219117837E+03   -0.15442E-03   -0.15439E-03   688   0.174E-03 0.803E-06
CGA:  12    -0.470219183089E+03   -0.65252E-04   -0.65217E-04   688   0.770E-04 0.456E-06
  38 F= -.47524806E+03 E0= -.47524122E+03  d E =-.391086E+00  mag=    -0.1217
       N       E                     dE             d eps       ncg     rms          ort
SDA:   1    -0.465392708262E+03    0.48264E+01    0.00000E+00   688   0.122E+02 0.000E+00
CGA:   2    -0.469094399888E+03   -0.37017E+01   -0.37018E+01   688   0.417E+01 0.297E-01
CGA:   3    -0.470078055649E+03   -0.98366E+00   -0.98211E+00   688   0.900E+00-0.365E-02
CGA:   4    -0.470272414727E+03   -0.19436E+00   -0.19448E+00   688   0.192E+00 0.152E-03
CGA:   5    -0.470316736017E+03   -0.44321E-01   -0.44318E-01   688   0.543E-01 0.113E-04
CGA:   6    -0.470331532264E+03   -0.14796E-01   -0.14796E-01   688   0.199E-01-0.172E-04
CGA:   7    -0.470337976797E+03   -0.64445E-02   -0.64444E-02   688   0.882E-02 0.321E-05
CGA:   8    -0.470340917189E+03   -0.29404E-02   -0.29400E-02   688   0.338E-02 0.984E-05
CGA:   9    -0.470341944970E+03   -0.10278E-02   -0.10278E-02   688   0.109E-02 0.973E-06
CGA:  10    -0.470342276762E+03   -0.33179E-03   -0.33180E-03   688   0.324E-03-0.805E-06
CGA:  11    -0.470342388200E+03   -0.11144E-03   -0.11140E-03   688   0.123E-03 0.754E-06
CGA:  12    -0.470342434887E+03   -0.46687E-04   -0.46654E-04   688   0.535E-04 0.412E-06
  39 F= -.47535780E+03 E0= -.47535256E+03  d E =-.500827E+00  mag=    -0.0849
       N       E                     dE             d eps       ncg     rms          ort
SDA:   1    -0.462405811983E+03    0.79366E+01    0.00000E+00   688   0.203E+02 0.000E+00
CGA:   2    -0.468685071307E+03   -0.62793E+01   -0.62789E+01   688   0.697E+01 0.779E-01
CGA:   3    -0.470329894289E+03   -0.16448E+01   -0.16420E+01   688   0.137E+01-0.450E-02
CGA:   4    -0.470646996216E+03   -0.31710E+00   -0.31718E+00   688   0.288E+00 0.262E-03
CGA:   5    -0.470716431198E+03   -0.69435E-01   -0.69426E-01   688   0.890E-01-0.253E-05
CGA:   6    -0.470740979600E+03   -0.24548E-01   -0.24549E-01   688   0.339E-01 0.852E-06
CGA:   7    -0.470752126646E+03   -0.11147E-01   -0.11147E-01   688   0.153E-01 0.980E-05
CGA:   8    -0.470757023492E+03   -0.48968E-02   -0.48966E-02   688   0.567E-02 0.119E-04
CGA:   9    -0.470758698019E+03   -0.16745E-02   -0.16745E-02   688   0.177E-02 0.162E-05
CGA:  10    -0.470759230620E+03   -0.53260E-03   -0.53260E-03   688   0.527E-03-0.533E-06
CGA:  11    -0.470759416223E+03   -0.18560E-03   -0.18559E-03   688   0.202E-03 0.149E-06
CGA:  12    -0.470759495626E+03   -0.79404E-04   -0.79389E-04   688   0.853E-04 0.162E-06
  40 F= -.47576421E+03 E0= -.47576089E+03  d E =-.406413E+00  mag=    -0.0467
       N       E                     dE             d eps       ncg     rms          ort
SDA:   1    -0.449416048370E+03    0.21343E+02    0.00000E+00   688   0.526E+02 0.000E+00
CGA:   2    -0.465678955530E+03   -0.16263E+02   -0.16264E+02   688   0.179E+02 0.232E+00
CGA:   3    -0.469924362163E+03   -0.42454E+01   -0.42449E+01   688   0.348E+01 0.135E-01
CGA:   4    -0.470729603031E+03   -0.80524E+00   -0.80554E+00   688   0.768E+00 0.128E-02
CGA:   5    -0.470911139950E+03   -0.18154E+00   -0.18147E+00   688   0.233E+00-0.134E-03
CGA:   6    -0.470975999827E+03   -0.64860E-01   -0.64863E-01   688   0.882E-01 0.684E-04
CGA:   7    -0.471005028103E+03   -0.29028E-01   -0.29028E-01   688   0.401E-01 0.155E-04
CGA:   8    -0.471017818358E+03   -0.12790E-01   -0.12790E-01   688   0.149E-01 0.242E-04
CGA:   9    -0.471022218842E+03   -0.44005E-02   -0.44005E-02   688   0.463E-02 0.511E-05
CGA:  10    -0.471023629690E+03   -0.14108E-02   -0.14108E-02   688   0.133E-02-0.272E-06
CGA:  11    -0.471024112822E+03   -0.48313E-03   -0.48313E-03   688   0.505E-03 0.912E-07
CGA:  12    -0.471024314906E+03   -0.20208E-03   -0.20211E-03   688   0.214E-03-0.241E-06
CGA:  13    -0.471024399173E+03   -0.84268E-04   -0.84345E-04   688   0.790E-04-0.900E-06
  41 F= -.47601258E+03 E0= -.47601098E+03  d E =-.654787E+00  mag=    -0.0160
       N       E                     dE             d eps       ncg     rms          ort
SDA:   1    -0.460298261539E+03    0.10726E+02    0.00000E+00   688   0.267E+02 0.000E+00
CGA:   2    -0.468750007255E+03   -0.84517E+01   -0.84515E+01   688   0.919E+01 0.113E+00
CGA:   3    -0.470895184821E+03   -0.21452E+01   -0.21425E+01   688   0.173E+01 0.811E-03
CGA:   4    -0.471306587783E+03   -0.41140E+00   -0.41149E+00   688   0.383E+00 0.381E-03
CGA:   5    -0.471398723629E+03   -0.92136E-01   -0.92122E-01   688   0.117E+00-0.115E-04
CGA:   6    -0.471432045364E+03   -0.33322E-01   -0.33322E-01   688   0.431E-01-0.674E-05
CGA:   7    -0.471446588668E+03   -0.14543E-01   -0.14543E-01   688   0.196E-01 0.944E-05
CGA:   8    -0.471452742761E+03   -0.61541E-02   -0.61540E-02   688   0.719E-02 0.128E-04
CGA:   9    -0.471454843847E+03   -0.21011E-02   -0.21011E-02   688   0.218E-02 0.192E-05
CGA:  10    -0.471455505044E+03   -0.66120E-03   -0.66120E-03   688   0.629E-03-0.455E-06
CGA:  11    -0.471455736386E+03   -0.23134E-03   -0.23133E-03   688   0.236E-03 0.167E-06
CGA:  12    -0.471455832220E+03   -0.95834E-04   -0.95871E-04   688   0.101E-03-0.380E-06
  42 F= -.47643533E+03 E0= -.47643438E+03  d E =-.422751E+00  mag=    -0.0078
       N       E                     dE             d eps       ncg     rms          ort
SDA:   1    -0.441509706249E+03    0.29946E+02    0.00000E+00   688   0.725E+02 0.000E+00
CGA:   2    -0.464409981262E+03   -0.22900E+02   -0.22901E+02   688   0.247E+02 0.371E+00
CGA:   3    -0.470211844154E+03   -0.58019E+01   -0.58064E+01   688   0.465E+01 0.384E-01
CGA:   4    -0.471316298480E+03   -0.11045E+01   -0.11051E+01   688   0.107E+01 0.264E-02
CGA:   5    -0.471570994842E+03   -0.25470E+00   -0.25460E+00   688   0.322E+00-0.190E-03
CGA:   6    -0.471663531254E+03   -0.92536E-01   -0.92537E-01   688   0.119E+00 0.381E-04
CGA:   7    -0.471703681866E+03   -0.40151E-01   -0.40150E-01   688   0.536E-01 0.269E-04
CGA:   8    -0.471720747963E+03   -0.17066E-01   -0.17066E-01   688   0.192E-01 0.262E-04
CGA:   9    -0.471726465952E+03   -0.57180E-02   -0.57180E-02   688   0.576E-02 0.578E-05
CGA:  10    -0.471728236365E+03   -0.17704E-02   -0.17704E-02   688   0.168E-02-0.386E-06
CGA:  11    -0.471728858697E+03   -0.62233E-03   -0.62235E-03   688   0.628E-03-0.185E-06
CGA:  12    -0.471729116144E+03   -0.25745E-03   -0.25759E-03   688   0.267E-03-0.138E-05
CGA:  13    -0.471729220150E+03   -0.10401E-03   -0.10413E-03   688   0.971E-04-0.158E-05
CGA:  14    -0.471729255390E+03   -0.35240E-04   -0.35255E-04   688   0.322E-04-0.219E-06
  43 F= -.47669612E+03 E0= -.47669571E+03  d E =-.683537E+00  mag=    -0.0022
       N       E                     dE             d eps       ncg     rms          ort
SDA:   1    -0.455439516051E+03    0.16290E+02    0.00000E+00   688   0.397E+02 0.000E+00
CGA:   2    -0.468385541253E+03   -0.12946E+02   -0.12945E+02   688   0.130E+02 0.119E+00
CGA:   3    -0.471378559983E+03   -0.29930E+01   -0.29951E+01   688   0.255E+01 0.101E-01
CGA:   4    -0.471965435588E+03   -0.58688E+00   -0.58704E+00   688   0.568E+00 0.703E-03
CGA:   5    -0.472101850399E+03   -0.13641E+00   -0.13638E+00   688   0.170E+00-0.220E-04
CGA:   6    -0.472150409952E+03   -0.48560E-01   -0.48561E-01   688   0.631E-01 0.217E-04
CGA:   7    -0.472171854535E+03   -0.21445E-01   -0.21444E-01   688   0.291E-01 0.185E-04
CGA:   8    -0.472180977412E+03   -0.91229E-02   -0.91228E-02   688   0.105E-01 0.200E-04
CGA:   9    -0.472184122831E+03   -0.31454E-02   -0.31455E-02   688   0.308E-02 0.419E-05
CGA:  10    -0.472185070400E+03   -0.94757E-03   -0.94757E-03   688   0.911E-03 0.283E-06
CGA:  11    -0.472185408034E+03   -0.33763E-03   -0.33760E-03   688   0.344E-03 0.556E-06
CGA:  12    -0.472185549640E+03   -0.14161E-03   -0.14171E-03   688   0.152E-03-0.104E-05
CGA:  13    -0.472185607078E+03   -0.57438E-04   -0.57481E-04   688   0.573E-04-0.688E-06
  44 F= -.47714506E+03 E0= -.47714486E+03  d E =-.448936E+00  mag=    -0.0016
       N       E                     dE             d eps       ncg     rms          ort
SDA:   1    -0.439958311562E+03    0.32227E+02    0.00000E+00   688   0.772E+02 0.000E+00
CGA:   2    -0.465004181925E+03   -0.25046E+02   -0.25045E+02   688   0.252E+02 0.275E+00
CGA:   3    -0.470832275375E+03   -0.58281E+01   -0.58419E+01   688   0.491E+01 0.428E-01
CGA:   4    -0.471967208946E+03   -0.11349E+01   -0.11356E+01   688   0.113E+01 0.269E-02
CGA:   5    -0.472236615803E+03   -0.26941E+00   -0.26929E+00   688   0.334E+00-0.147E-03
CGA:   6    -0.472333032995E+03   -0.96417E-01   -0.96422E-01   688   0.124E+00 0.109E-03
CGA:   7    -0.472375119497E+03   -0.42087E-01   -0.42085E-01   688   0.572E-01 0.391E-04
CGA:   8    -0.472392988136E+03   -0.17869E-01   -0.17869E-01   688   0.207E-01 0.323E-04
CGA:   9    -0.472399137178E+03   -0.61490E-02   -0.61492E-02   688   0.606E-02 0.894E-05
CGA:  10    -0.472401003159E+03   -0.18660E-02   -0.18660E-02   688   0.180E-02 0.469E-06
CGA:  11    -0.472401668355E+03   -0.66520E-03   -0.66517E-03   688   0.678E-03 0.421E-06
CGA:  12    -0.472401945464E+03   -0.27711E-03   -0.27730E-03   688   0.299E-03-0.195E-05
CGA:  13    -0.472402058481E+03   -0.11302E-03   -0.11310E-03   688   0.111E-03-0.141E-05
CGA:  14    -0.472402098683E+03   -0.40203E-04   -0.40212E-04   688   0.361E-04-0.216E-06
  45 F= -.47735373E+03 E0= -.47735363E+03  d E =-.657605E+00  mag=    -0.0008
       N       E                     dE             d eps       ncg     rms          ort
SDA:   1    -0.450342320321E+03    0.22060E+02    0.00000E+00   688   0.535E+02 0.000E+00
CGA:   2    -0.467808098554E+03   -0.17466E+02   -0.17466E+02   688   0.172E+02 0.424E-01
[...]
CGA:   3    -0.482120461512E+03   -0.10626E+00   -0.10626E+00   688   0.878E-01 0.680E-04
CGA:   4    -0.482139295815E+03   -0.18834E-01   -0.18835E-01   688   0.210E-01-0.150E-05
CGA:   5    -0.482144279978E+03   -0.49842E-02   -0.49845E-02   688   0.662E-02 0.150E-04
CGA:   6    -0.482146048767E+03   -0.17688E-02   -0.17688E-02   688   0.268E-02-0.325E-05
CGA:   7    -0.482146882153E+03   -0.83339E-03   -0.83323E-03   688   0.121E-02 0.385E-05
CGA:   8    -0.482147254481E+03   -0.37233E-03   -0.37222E-03   688   0.425E-03 0.300E-05
CGA:   9    -0.482147380462E+03   -0.12598E-03   -0.12598E-03   688   0.132E-03-0.757E-07
CGA:  10    -0.482147417515E+03   -0.37053E-04   -0.37050E-04   688   0.485E-04 0.519E-06
 240 F= -.48706015E+03 E0= -.48705528E+03  d E =-.846934E-02  mag=    -0.0559
       N       E                     dE             d eps       ncg     rms          ort
SDA:   1    -0.481620086937E+03    0.52729E+00    0.00000E+00   688   0.124E+01 0.000E+00
CGA:   2    -0.482036138344E+03   -0.41605E+00   -0.41605E+00   688   0.389E+00-0.528E-05
CGA:   3    -0.482128555461E+03   -0.92417E-01   -0.92418E-01   688   0.775E-01 0.345E-04
CGA:   4    -0.482145263804E+03   -0.16708E-01   -0.16709E-01   688   0.185E-01-0.676E-05
CGA:   5    -0.482149641783E+03   -0.43780E-02   -0.43783E-02   688   0.562E-02 0.106E-04
CGA:   6    -0.482151183239E+03   -0.15415E-02   -0.15415E-02   688   0.221E-02-0.288E-05
CGA:   7    -0.482151889381E+03   -0.70614E-03   -0.70602E-03   688   0.995E-03 0.254E-05
CGA:   8    -0.482152195003E+03   -0.30562E-03   -0.30556E-03   688   0.363E-03 0.183E-05
CGA:   9    -0.482152297433E+03   -0.10243E-03   -0.10243E-03   688   0.124E-03 0.184E-06
CGA:  10    -0.482152328425E+03   -0.30992E-04   -0.31007E-04   688   0.470E-04 0.572E-06
 241 F= -.48706514E+03 E0= -.48706006E+03  d E =-.498996E-02  mag=    -0.0591
       N       E                     dE             d eps       ncg     rms          ort
SDA:   1    -0.482132981130E+03    0.19316E-01    0.00000E+00   688   0.455E-01 0.000E+00
CGA:   2    -0.482148208052E+03   -0.15227E-01   -0.15227E-01   688   0.143E-01-0.121E-05
CGA:   3    -0.482151588476E+03   -0.33804E-02   -0.33806E-02   688   0.285E-02 0.392E-05
CGA:   4    -0.482152195618E+03   -0.60714E-03   -0.60706E-03   688   0.713E-03-0.163E-05
CGA:   5    -0.482152356119E+03   -0.16050E-03   -0.16054E-03   688   0.220E-03 0.952E-06
CGA:   6    -0.482152415009E+03   -0.58890E-04   -0.58891E-04   688   0.907E-04 0.177E-06
 242 F= -.48706524E+03 E0= -.48706012E+03  d E =-.509160E-02  mag=    -0.0597
       N       E                     dE             d eps       ncg     rms          ort
SDA:   1    -0.481695823909E+03    0.45653E+00    0.00000E+00   688   0.108E+01 0.000E+00
CGA:   2    -0.482055960430E+03   -0.36014E+00   -0.36015E+00   688   0.337E+00-0.101E-03
CGA:   3    -0.482136338441E+03   -0.80378E-01   -0.80383E-01   688   0.662E-01 0.463E-04
CGA:   4    -0.482150742274E+03   -0.14404E-01   -0.14404E-01   688   0.162E-01 0.141E-06
CGA:   5    -0.482154546271E+03   -0.38040E-02   -0.38042E-02   688   0.504E-02 0.909E-05
CGA:   6    -0.482155870815E+03   -0.13245E-02   -0.13245E-02   688   0.214E-02-0.582E-06
CGA:   7    -0.482156485890E+03   -0.61507E-03   -0.61507E-03   688   0.100E-02 0.520E-06
CGA:   8    -0.482156784040E+03   -0.29815E-03   -0.29809E-03   688   0.352E-03 0.214E-05
CGA:   9    -0.482156890294E+03   -0.10625E-03   -0.10627E-03   688   0.109E-03-0.559E-06
CGA:  10    -0.482156920414E+03   -0.30119E-04   -0.30116E-04   688   0.413E-04 0.454E-06
 243 F= -.48706992E+03 E0= -.48706465E+03  d E =-.467428E-02  mag=    -0.0615
       N       E                     dE             d eps       ncg     rms          ort
SDA:   1    -0.482110920926E+03    0.45969E-01    0.00000E+00   688   0.108E+00 0.000E+00
CGA:   2    -0.482147059190E+03   -0.36138E-01   -0.36138E-01   688   0.337E-01 0.871E-06
CGA:   3    -0.482155108400E+03   -0.80492E-02   -0.80494E-02   688   0.665E-02 0.279E-05
CGA:   4    -0.482156538816E+03   -0.14304E-02   -0.14304E-02   688   0.163E-02-0.654E-06
CGA:   5    -0.482156913138E+03   -0.37432E-03   -0.37442E-03   688   0.500E-03 0.254E-05
CGA:   6    -0.482157046311E+03   -0.13317E-03   -0.13317E-03   688   0.209E-03-0.881E-07
CGA:   7    -0.482157107932E+03   -0.61620E-04   -0.61622E-04   688   0.101E-03-0.534E-07
 244 F= -.48707016E+03 E0= -.48706485E+03  d E =-.491580E-02  mag=    -0.0620
       N       E                     dE             d eps       ncg     rms          ort
SDA:   1    -0.481834210046E+03    0.32284E+00    0.00000E+00   688   0.768E+00 0.000E+00
CGA:   2    -0.482089413455E+03   -0.25520E+00   -0.25520E+00   688   0.239E+00-0.239E-05
CGA:   3    -0.482146330346E+03   -0.56917E-01   -0.56918E-01   688   0.498E-01 0.186E-04
CGA:   4    -0.482156668734E+03   -0.10338E-01   -0.10341E-01   688   0.125E-01 0.304E-05
CGA:   5    -0.482159509700E+03   -0.28410E-02   -0.28408E-02   688   0.382E-02 0.191E-05
CGA:   6    -0.482160528660E+03   -0.10190E-02   -0.10190E-02   688   0.153E-02 0.105E-05
CGA:   7    -0.482160995565E+03   -0.46691E-03   -0.46693E-03   688   0.720E-03-0.761E-06
CGA:   8    -0.482161214307E+03   -0.21874E-03   -0.21867E-03   688   0.279E-03 0.186E-05
CGA:   9    -0.482161294242E+03   -0.79935E-04   -0.79935E-04   688   0.965E-04-0.682E-08
 245 F= -.48707457E+03 E0= -.48706910E+03  d E =-.441541E-02  mag=    -0.0639
       N       E                     dE             d eps       ncg     rms          ort
SDA:   1    -0.481932574833E+03    0.22864E+00    0.00000E+00   688   0.539E+00 0.000E+00
CGA:   2    -0.482111783079E+03   -0.17921E+00   -0.17921E+00   688   0.168E+00-0.385E-06
CGA:   3    -0.482151791731E+03   -0.40009E-01   -0.40010E-01   688   0.344E-01 0.147E-04
CGA:   4    -0.482159088792E+03   -0.72971E-02   -0.72982E-02   688   0.834E-02 0.130E-06
CGA:   5    -0.482160992085E+03   -0.19033E-02   -0.19032E-02   688   0.266E-02 0.171E-05
CGA:   6    -0.482161682407E+03   -0.69032E-03   -0.69033E-03   688   0.107E-02 0.844E-06
CGA:   7    -0.482162009001E+03   -0.32659E-03   -0.32662E-03   688   0.496E-03-0.670E-06
CGA:   8    -0.482162163064E+03   -0.15406E-03   -0.15400E-03   688   0.195E-03 0.148E-05
CGA:   9    -0.482162218433E+03   -0.55369E-04   -0.55370E-04   688   0.725E-04-0.581E-07
 246 F= -.48707569E+03 E0= -.48707007E+03  d E =-.553543E-02  mag=    -0.0657
       N       E                     dE             d eps       ncg     rms          ort
SDA:   1    -0.481901273350E+03    0.26089E+00    0.00000E+00   688   0.626E+00 0.000E+00
CGA:   2    -0.482105993361E+03   -0.20472E+00   -0.20472E+00   688   0.200E+00 0.355E-04
CGA:   3    -0.482153314625E+03   -0.47321E-01   -0.47318E-01   688   0.422E-01-0.255E-04
CGA:   4    -0.482162110092E+03   -0.87955E-02   -0.87982E-02   688   0.102E-01 0.636E-05
CGA:   5    -0.482164430562E+03   -0.23205E-02   -0.23203E-02   688   0.324E-02 0.140E-05
CGA:   6    -0.482165264372E+03   -0.83381E-03   -0.83382E-03   688   0.127E-02 0.707E-06
CGA:   7    -0.482165657062E+03   -0.39269E-03   -0.39271E-03   688   0.581E-03-0.361E-06
CGA:   8    -0.482165840297E+03   -0.18323E-03   -0.18316E-03   688   0.236E-03 0.166E-05
CGA:   9    -0.482165905535E+03   -0.65238E-04   -0.65239E-04   688   0.922E-04-0.124E-06
 247 F= -.48707922E+03 E0= -.48707336E+03  d E =-.352605E-02  mag=    -0.0687
       N       E                     dE             d eps       ncg     rms          ort
SDA:   1    -0.482062868371E+03    0.10297E+00    0.00000E+00   688   0.245E+00 0.000E+00
CGA:   2    -0.482143142056E+03   -0.80274E-01   -0.80273E-01   688   0.783E-01 0.104E-04
CGA:   3    -0.482161697888E+03   -0.18556E-01   -0.18555E-01   688   0.164E-01-0.386E-05
CGA:   4    -0.482165139553E+03   -0.34417E-02   -0.34422E-02   688   0.391E-02 0.831E-06
CGA:   5    -0.482166033899E+03   -0.89435E-03   -0.89433E-03   688   0.129E-02 0.135E-05
CGA:   6    -0.482166360666E+03   -0.32677E-03   -0.32677E-03   688   0.512E-03 0.634E-06
CGA:   7    -0.482166519582E+03   -0.15892E-03   -0.15893E-03   688   0.232E-03-0.323E-06
CGA:   8    -0.482166594902E+03   -0.75320E-04   -0.75266E-04   688   0.922E-04 0.947E-06
 248 F= -.48707981E+03 E0= -.48707378E+03  d E =-.411771E-02  mag=    -0.0708
       N       E                     dE             d eps       ncg     rms          ort
SDA:   1    -0.481878633079E+03    0.28789E+00    0.00000E+00   688   0.692E+00 0.000E+00
CGA:   2    -0.482103551101E+03   -0.22492E+00   -0.22491E+00   688   0.222E+00 0.128E-03
CGA:   3    -0.482156054485E+03   -0.52503E-01   -0.52500E-01   688   0.465E-01-0.178E-04
CGA:   4    -0.482166011637E+03   -0.99572E-02   -0.99576E-02   688   0.104E-01-0.657E-05
CGA:   5    -0.482168513123E+03   -0.25015E-02   -0.25015E-02   688   0.337E-02 0.244E-05
CGA:   6    -0.482169376779E+03   -0.86366E-03   -0.86364E-03   688   0.136E-02-0.999E-06
CGA:   7    -0.482169777087E+03   -0.40031E-03   -0.40030E-03   688   0.652E-03 0.229E-06
CGA:   8    -0.482169967538E+03   -0.19045E-03   -0.19041E-03   688   0.268E-03 0.182E-05
CGA:   9    -0.482170040511E+03   -0.72974E-04   -0.72974E-04   688   0.971E-04-0.145E-06
 249 F= -.48708261E+03 E0= -.48707633E+03  d E =-.279961E-02  mag=    -0.0742
       N       E                     dE             d eps       ncg     rms          ort
SDA:   1    -0.482168818494E+03    0.11490E-02    0.00000E+00   688   0.313E-02 0.000E+00
CGA:   2    -0.482169822366E+03   -0.10039E-02   -0.10039E-02   688   0.107E-02-0.840E-06
CGA:   3    -0.482170057480E+03   -0.23511E-03   -0.23517E-03   688   0.271E-03 0.106E-05
CGA:   4    -0.482170109147E+03   -0.51667E-04   -0.51630E-04   688   0.670E-04-0.451E-06
 250 F= -.48708264E+03 E0= -.48707633E+03  d E =-.282526E-02  mag=    -0.0746
       N       E                     dE             d eps       ncg     rms          ort
SDA:   1    -0.481934577389E+03    0.23548E+00    0.00000E+00   688   0.570E+00 0.000E+00
CGA:   2    -0.482120017637E+03   -0.18544E+00   -0.18543E+00   688   0.178E+00 0.849E-04
CGA:   3    -0.482162892875E+03   -0.42875E-01   -0.42874E-01   688   0.369E-01-0.765E-05
CGA:   4    -0.482170826369E+03   -0.79335E-02   -0.79334E-02   688   0.849E-02-0.528E-05
CGA:   5    -0.482172830582E+03   -0.20042E-02   -0.20043E-02   688   0.280E-02 0.637E-05
CGA:   6    -0.482173529982E+03   -0.69940E-03   -0.69939E-03   688   0.116E-02-0.117E-05
CGA:   7    -0.482173866889E+03   -0.33691E-03   -0.33688E-03   688   0.520E-03 0.874E-06
CGA:   8    -0.482174030181E+03   -0.16329E-03   -0.16321E-03   688   0.192E-03 0.159E-05
CGA:   9    -0.482174086521E+03   -0.56340E-04   -0.56346E-04   688   0.694E-04-0.221E-06
 251 F= -.48708583E+03 E0= -.48707933E+03  d E =-.319244E-02  mag=    -0.0776
       N       E                     dE             d eps       ncg     rms          ort
SDA:   1    -0.482015412000E+03    0.15862E+00    0.00000E+00   688   0.381E+00 0.000E+00
CGA:   2    -0.482139461221E+03   -0.12405E+00   -0.12405E+00   688   0.119E+00 0.421E-04
CGA:   3    -0.482168056351E+03   -0.28595E-01   -0.28595E-01   688   0.242E-01-0.673E-06
CGA:   4    -0.482173356201E+03   -0.52998E-02   -0.52997E-02   688   0.532E-02-0.373E-05
CGA:   5    -0.482174657066E+03   -0.13009E-02   -0.13009E-02   688   0.173E-02 0.469E-05
CGA:   6    -0.482175098394E+03   -0.44133E-03   -0.44132E-03   688   0.733E-03-0.979E-06
CGA:   7    -0.482175309956E+03   -0.21156E-03   -0.21154E-03   688   0.332E-03 0.928E-06
CGA:   8    -0.482175413868E+03   -0.10391E-03   -0.10386E-03   688   0.119E-03 0.106E-05
CGA:   9    -0.482175450462E+03   -0.36595E-04   -0.36604E-04   688   0.394E-04-0.250E-06
 252 F= -.48708655E+03 E0= -.48707989E+03  d E =-.391662E-02  mag=    -0.0803
       N       E                     dE             d eps       ncg     rms          ort
SDA:   1    -0.481898142766E+03    0.27727E+00    0.00000E+00   688   0.674E+00 0.000E+00
CGA:   2    -0.482116644222E+03   -0.21850E+00   -0.21849E+00   688   0.208E+00 0.751E-04
CGA:   3    -0.482166845509E+03   -0.50201E-01   -0.50200E-01   688   0.432E-01-0.499E-05
CGA:   4    -0.482176030854E+03   -0.91853E-02   -0.91852E-02   688   0.988E-02-0.791E-05
CGA:   5    -0.482178328783E+03   -0.22979E-02   -0.22982E-02   688   0.321E-02 0.689E-05
CGA:   6    -0.482179135263E+03   -0.80648E-03   -0.80643E-03   688   0.129E-02-0.235E-05
CGA:   7    -0.482179514533E+03   -0.37927E-03   -0.37924E-03   688   0.593E-03 0.862E-06
CGA:   8    -0.482179696630E+03   -0.18210E-03   -0.18203E-03   688   0.238E-03 0.162E-05
CGA:   9    -0.482179762410E+03   -0.65781E-04   -0.65778E-04   688   0.920E-04 0.356E-06
 253 F= -.48708992E+03 E0= -.48708311E+03  d E =-.336915E-02  mag=    -0.0825
       N       E                     dE             d eps       ncg     rms          ort
SDA:   1    -0.481830184158E+03    0.34951E+00    0.00000E+00   688   0.842E+00 0.000E+00
CGA:   2    -0.482103174555E+03   -0.27299E+00   -0.27298E+00   688   0.260E+00 0.100E-03
CGA:   3    -0.482165928177E+03   -0.62754E-01   -0.62752E-01   688   0.539E-01-0.906E-05
CGA:   4    -0.482177433637E+03   -0.11505E-01   -0.11505E-01   688   0.121E-01-0.777E-05
CGA:   5    -0.482180296540E+03   -0.28629E-02   -0.28631E-02   688   0.396E-02 0.777E-05
CGA:   6    -0.482181291943E+03   -0.99540E-03   -0.99535E-03   688   0.162E-02-0.297E-05
CGA:   7    -0.482181764926E+03   -0.47298E-03   -0.47294E-03   688   0.747E-03 0.122E-05
CGA:   8    -0.482181994894E+03   -0.22997E-03   -0.22989E-03   688   0.296E-03 0.187E-05
CGA:   9    -0.482182077967E+03   -0.83074E-04   -0.83070E-04   688   0.113E-03 0.348E-06
 254 F= -.48709119E+03 E0= -.48708421E+03  d E =-.463088E-02  mag=    -0.0850
       N       E                     dE             d eps       ncg     rms          ort
SDA:   1    -0.481763467713E+03    0.41853E+00    0.00000E+00   688   0.102E+01 0.000E+00
CGA:   2    -0.482090857926E+03   -0.32739E+00   -0.32738E+00   688   0.316E+00 0.588E-04
CGA:   3    -0.482166593390E+03   -0.75735E-01   -0.75732E-01   688   0.681E-01-0.387E-04
CGA:   4    -0.482180589770E+03   -0.13996E-01   -0.13994E-01   688   0.158E-01-0.102E-04
CGA:   5    -0.482184186416E+03   -0.35966E-02   -0.35972E-02   688   0.500E-02 0.111E-04
CGA:   6    -0.482185452212E+03   -0.12658E-02   -0.12657E-02   688   0.194E-02-0.410E-05
CGA:   7    -0.482186039050E+03   -0.58684E-03   -0.58679E-03   688   0.888E-03 0.102E-05
CGA:   8    -0.482186320057E+03   -0.28101E-03   -0.28092E-03   688   0.362E-03 0.168E-05
CGA:   9    -0.482186420275E+03   -0.10022E-03   -0.10021E-03   688   0.146E-03 0.696E-06
CGA:  10    -0.482186456241E+03   -0.35967E-04   -0.35956E-04   688   0.490E-04-0.448E-06
 255 F= -.48709448E+03 E0= -.48708732E+03  d E =-.329659E-02  mag=    -0.0875
       N       E                     dE             d eps       ncg     rms          ort
SDA:   1    -0.482169717347E+03    0.16703E-01    0.00000E+00   688   0.410E-01 0.000E+00
CGA:   2    -0.482182910310E+03   -0.13193E-01   -0.13193E-01   688   0.129E-01 0.518E-05
CGA:   3    -0.482185961810E+03   -0.30515E-02   -0.30515E-02   688   0.290E-02 0.736E-06
CGA:   4    -0.482186535201E+03   -0.57339E-03   -0.57327E-03   688   0.700E-03-0.111E-05
CGA:   5    -0.482186688756E+03   -0.15355E-03   -0.15362E-03   688   0.206E-03 0.144E-05
CGA:   6    -0.482186744559E+03   -0.55802E-04   -0.55803E-04   688   0.791E-04-0.529E-09
 256 F= -.48709455E+03 E0= -.48708735E+03  d E =-.336728E-02  mag=    -0.0882
       N       E                     dE             d eps       ncg     rms          ort
SDA:   1    -0.481847382619E+03    0.33931E+00    0.00000E+00   688   0.824E+00 0.000E+00
CGA:   2    -0.482113502121E+03   -0.26612E+00   -0.26611E+00   688   0.254E+00 0.756E-04
CGA:   3    -0.482174343324E+03   -0.60841E-01   -0.60839E-01   688   0.546E-01-0.197E-04
CGA:   4    -0.482185645789E+03   -0.11302E-01   -0.11301E-01   688   0.128E-01-0.113E-04
CGA:   5    -0.482188548825E+03   -0.29030E-02   -0.29033E-02   688   0.405E-02 0.586E-05
CGA:   6    -0.482189570281E+03   -0.10215E-02   -0.10214E-02   688   0.157E-02-0.308E-05
CGA:   7    -0.482190042936E+03   -0.47266E-03   -0.47263E-03   688   0.732E-03 0.610E-06
CGA:   8    -0.482190269886E+03   -0.22695E-03   -0.22688E-03   688   0.297E-03 0.170E-05
CGA:   9    -0.482190352515E+03   -0.82629E-04   -0.82620E-04   688   0.115E-03 0.807E-06
 257 F= -.48709732E+03 E0= -.48708998E+03  d E =-.277112E-02  mag=    -0.0902
       N       E                     dE             d eps       ncg     rms          ort
SDA:   1    -0.482179834546E+03    0.10435E-01    0.00000E+00   688   0.259E-01 0.000E+00
CGA:   2    -0.482188193749E+03   -0.83592E-02   -0.83591E-02   688   0.792E-02 0.121E-05
CGA:   3    -0.482190101340E+03   -0.19076E-02   -0.19076E-02   688   0.166E-02 0.182E-05
CGA:   4    -0.482190457259E+03   -0.35592E-03   -0.35588E-03   688   0.354E-03-0.785E-06
CGA:   5    -0.482190541439E+03   -0.84179E-04   -0.84180E-04   688   0.133E-03 0.363E-07
 258 F= -.48709736E+03 E0= -.48708998E+03  d E =-.281121E-02  mag=    -0.0908
       N       E                     dE             d eps       ncg     rms          ort
SDA:   1    -0.481912285359E+03    0.27817E+00    0.00000E+00   688   0.677E+00 0.000E+00
CGA:   2    -0.482132004038E+03   -0.21972E+00   -0.21971E+00   688   0.203E+00 0.347E-04
CGA:   3    -0.482180836971E+03   -0.48833E-01   -0.48833E-01   688   0.449E-01 0.670E-05
CGA:   4    -0.482189961486E+03   -0.91245E-02   -0.91236E-02   688   0.107E-01-0.535E-05
CGA:   5    -0.482192330273E+03   -0.23688E-02   -0.23691E-02   688   0.343E-02 0.683E-05
CGA:   6    -0.482193174529E+03   -0.84426E-03   -0.84423E-03   688   0.132E-02-0.877E-06
CGA:   7    -0.482193579792E+03   -0.40526E-03   -0.40522E-03   688   0.585E-03 0.741E-06
CGA:   8    -0.482193775967E+03   -0.19618E-03   -0.19603E-03   688   0.212E-03 0.197E-05
CGA:   9    -0.482193844051E+03   -0.68084E-04   -0.68074E-04   688   0.677E-04 0.196E-06
 259 F= -.48710020E+03 E0= -.48709270E+03  d E =-.283323E-02  mag=    -0.0931
       N       E                     dE             d eps       ncg     rms          ort
SDA:   1    -0.482031344726E+03    0.16243E+00    0.00000E+00   688   0.393E+00 0.000E+00
CGA:   2    -0.482159070513E+03   -0.12773E+00   -0.12772E+00   688   0.117E+00 0.134E-04
CGA:   3    -0.482187558010E+03   -0.28487E-01   -0.28488E-01   688   0.247E-01 0.697E-05
CGA:   4    -0.482192698573E+03   -0.51406E-02   -0.51402E-02   688   0.566E-02-0.204E-05
CGA:   5    -0.482193989490E+03   -0.12909E-02   -0.12911E-02   688   0.179E-02 0.441E-05
CGA:   6    -0.482194435638E+03   -0.44615E-03   -0.44612E-03   688   0.709E-03-0.112E-05
CGA:   7    -0.482194646399E+03   -0.21076E-03   -0.21073E-03   688   0.330E-03 0.941E-06
CGA:   8    -0.482194750052E+03   -0.10365E-03   -0.10361E-03   688   0.137E-03 0.990E-06
CGA:   9    -0.482194788186E+03   -0.38134E-04   -0.38130E-04   688   0.539E-04 0.402E-06
 260 F= -.48710078E+03 E0= -.48709318E+03  d E =-.341531E-02  mag=    -0.0950
       N       E                     dE             d eps       ncg     rms          ort
SDA:   1    -0.481960439822E+03    0.23431E+00    0.00000E+00   688   0.571E+00 0.000E+00
CGA:   2    -0.482145439205E+03   -0.18500E+00   -0.18500E+00   688   0.171E+00 0.279E-04
CGA:   3    -0.482186574193E+03   -0.41135E-01   -0.41135E-01   688   0.382E-01 0.125E-04
CGA:   4    -0.482194236700E+03   -0.76625E-02   -0.76609E-02   688   0.885E-02-0.813E-05
CGA:   5    -0.482196230301E+03   -0.19936E-02   -0.19939E-02   688   0.274E-02 0.502E-05
CGA:   6    -0.482196925567E+03   -0.69527E-03   -0.69523E-03   688   0.103E-02-0.184E-05
CGA:   7    -0.482197243278E+03   -0.31771E-03   -0.31768E-03   688   0.478E-03 0.687E-06
CGA:   8    -0.482197392474E+03   -0.14920E-03   -0.14916E-03   688   0.207E-03 0.875E-06
CGA:   9    -0.482197447309E+03   -0.54835E-04   -0.54836E-04   688   0.809E-04 0.576E-06
 261 F= -.48710308E+03 E0= -.48709552E+03  d E =-.230100E-02  mag=    -0.0945
