 vasp.5.4.4.18Apr17-6-g9f103f2a35 (build Nov  8 2022 18:58:45) complex           
 executed on             LinuxGNU date 2023.04.13  15:54:38
 running on   48 total cores
 distrk:  each k-point on   48 cores,    1 groups
 distr:  one band on NCORES_PER_BAND=  12 cores,    4 groups


--------------------------------------------------------------------------------------------------------


 INCAR:
 POTCAR:    PAW_PBE C 08Apr2002                   
 POTCAR:    PAW_PBE N 08Apr2002                   
 POTCAR:    PAW_PBE Ge_d 03Jul2007                
 POTCAR:    PAW_PBE C 08Apr2002                   
 POTCAR:    PAW_PBE O 08Apr2002                   
 POTCAR:    PAW_PBE C 08Apr2002                   
   SHA256 =  253f7b50bb8d59471dbedb8285d89021f4a42ed1a2c5d38a03a736e69125dd95 C/
   COPYR  = (c) Copyright 08Apr2002 Georg Kresse                                
   COPYR  = This file is part of the software VASP. Any use, copying, and all ot
   COPYR  = If you do not have a valid VASP license, you may not use, copy or di
   VRHFIN =C: s2p2                                                              
   LEXCH  = PE                                                                  
   EATOM  =   147.1560 eV,   10.8157 Ry                                         
                                                                                
   TITEL  = PAW_PBE C 08Apr2002                                                 
   LULTRA =        F    use ultrasoft PP ?                                      
   IUNSCR =        1    unscreen: 0-lin 1-nonlin 2-no                           
   RPACOR =    1.200    partial core radius                                     
   POMASS =   12.011; ZVAL   =    4.000    mass and valenz                      
   RCORE  =    1.500    outmost cutoff radius                                   
   RWIGS  =    1.630; RWIGS  =    0.863    wigner-seitz radius (au A)           
   ENMAX  =  400.000; ENMIN  =  300.000 eV                                      
   ICORE  =        2    local potential                                         
   LCOR   =        T    correct aug charges                                     
   LPAW   =        T    paw PP                                                  
   EAUG   =  644.873                                                            
   DEXC   =    0.000                                                            
   RMAX   =    1.529    core radius for proj-oper                               
   RAUG   =    1.300    factor for augmentation sphere                          
   RDEP   =    1.501    radius for radial grids                                 
   RDEPT  =    1.300    core radius for aug-charge                              
                                                                                
   Atomic configuration                                                         
    4 entries                                                                   
     n  l   j            E        occ.                                          
     1  0  0.50      -273.3789   2.0000                                         
     2  0  0.50       -13.7508   2.0000                                         
     2  1  0.50        -5.2854   2.0000                                         
     3  2  1.50        -5.4423   0.0000                                         
   Description                                                                  
     l       E           TYP  RCUT    TYP  RCUT                                 
     0    -13.7508458     23  1.200                                             
     0     -8.2022199     23  1.200                                             
     1     -5.2854383     23  1.500                                             
     1     34.0145650     23  1.500                                             
     2     -5.4423304      7  1.500                                             
  local pseudopotential read in
  partial core-charges read in
  partial kinetic energy density read in
  atomic valenz-charges read in
  non local Contribution for L=           0  read in
    real space projection operators read in
  non local Contribution for L=           0  read in
    real space projection operators read in
  non local Contribution for L=           1  read in
    real space projection operators read in
  non local Contribution for L=           1  read in
    real space projection operators read in
    PAW grid and wavefunctions read in

   number of l-projection  operators is LMAX  =           4
   number of lm-projection operators is LMMAX =           8

 POTCAR:    PAW_PBE N 08Apr2002                   
   SHA256 =  e053789ff3a61a86a1b75d8a110fcc91f86041011e7b0817c7c99e4e8a6349d7 N/
   COPYR  = (c) Copyright 08Apr2002 Georg Kresse                                
   COPYR  = This file is part of the software VASP. Any use, copying, and all ot
   COPYR  = If you do not have a valid VASP license, you may not use, copy or di
   VRHFIN =N: s2p3                                                              
   LEXCH  = PE                                                                  
   EATOM  =   264.5486 eV,   19.4438 Ry                                         
                                                                                
   TITEL  = PAW_PBE N 08Apr2002                                                 
   LULTRA =        F    use ultrasoft PP ?                                      
   IUNSCR =        1    unscreen: 0-lin 1-nonlin 2-no                           
   RPACOR =    1.200    partial core radius                                     
   POMASS =   14.001; ZVAL   =    5.000    mass and valenz                      
   RCORE  =    1.500    outmost cutoff radius                                   
   RWIGS  =    1.400; RWIGS  =    0.741    wigner-seitz radius (au A)           
   ENMAX  =  400.000; ENMIN  =  300.000 eV                                      
   ICORE  =        2    local potential                                         
   LCOR   =        T    correct aug charges                                     
   LPAW   =        T    paw PP                                                  
   EAUG   =  627.112                                                            
   DEXC   =    0.000                                                            
   RMAX   =    1.529    core radius for proj-oper                               
   RAUG   =    1.300    factor for augmentation sphere                          
   RDEP   =    1.514    radius for radial grids                                 
   RDEPT  =    1.338    core radius for aug-charge                              
                                                                                
   Atomic configuration                                                         
    4 entries                                                                   
     n  l   j            E        occ.                                          
     1  0  0.50      -384.7179   2.0000                                         
     2  0  0.50       -18.5828   2.0000                                         
     2  1  0.50        -7.0898   3.0000                                         
     3  2  1.50        -6.8029   0.0000                                         
   Description                                                                  
     l       E           TYP  RCUT    TYP  RCUT                                 
     0    -18.5828119     23  1.200                                             
     0    -13.5018863     23  1.200                                             
     1     -7.0897853     23  1.500                                             
     1      9.5240782     23  1.500                                             
     2     -6.8029130      7  1.500                                             
  local pseudopotential read in
  partial core-charges read in
  partial kinetic energy density read in
  atomic valenz-charges read in
  non local Contribution for L=           0  read in
    real space projection operators read in
  non local Contribution for L=           0  read in
    real space projection operators read in
  non local Contribution for L=           1  read in
    real space projection operators read in
  non local Contribution for L=           1  read in
    real space projection operators read in
    PAW grid and wavefunctions read in

   number of l-projection  operators is LMAX  =           4
   number of lm-projection operators is LMMAX =           8

 POTCAR:    PAW_PBE Ge_d 03Jul2007                
   SHA256 =  944b26c40d2d7c4f4eb1ff3a2e8dbfdd7129146276cd341854bfd5c0e57780ed Ge
   COPYR  = (c) Copyright 03Jul2007 Georg Kresse                                
   COPYR  = This file is part of the software VASP. Any use, copying, and all ot
   COPYR  = If you do not have a valid VASP license, you may not use, copy or di
   VRHFIN =Ge: 3d4s4p                                                           
   LEXCH  = PE                                                                  
   EATOM  =  2596.2402 eV,  190.8183 Ry                                         
                                                                                
   TITEL  = PAW_PBE Ge_d 03Jul2007                                              
   LULTRA =        F    use ultrasoft PP ?                                      
   IUNSCR =        1    unscreen: 0-lin 1-nonlin 2-no                           
   RPACOR =    2.000    partial core radius                                     
   POMASS =   72.610; ZVAL   =   14.000    mass and valenz                      
   RCORE  =    2.300    outmost cutoff radius                                   
   RWIGS  =    2.300; RWIGS  =    1.217    wigner-seitz radius (au A)           
   ENMAX  =  310.294; ENMIN  =  232.720 eV                                      
   ICORE  =        3    local potential                                         
   LCOR   =        T    correct aug charges                                     
   LPAW   =        T    paw PP                                                  
   EAUG   =  531.356                                                            
   DEXC   =    0.000                                                            
   RMAX   =    2.342    core radius for proj-oper                               
   RAUG   =    1.300    factor for augmentation sphere                          
   RDEP   =    2.318    radius for radial grids                                 
   RDEPT  =    1.783    core radius for aug-charge                              
                                                                                
   Atomic configuration                                                         
    9 entries                                                                   
     n  l   j            E        occ.                                          
     1  0  0.50    -10959.8463   2.0000                                         
     2  0  0.50     -1371.6056   2.0000                                         
     2  1  1.50     -1198.4791   6.0000                                         
     3  0  0.50      -168.4733   2.0000                                         
     3  1  1.50      -115.6019   6.0000                                         
     3  2  2.50       -29.3106  10.0000                                         
     4  0  0.50       -11.7309   2.0000                                         
     4  1  0.50        -3.8952   2.0000                                         
     4  3  2.50        -4.0817   0.0000                                         
   Description                                                                  
     l       E           TYP  RCUT    TYP  RCUT                                 
     2    -29.3105938     23  2.200                                             
     2    -13.6058260     23  2.200                                             
     0    -11.7309493     23  2.300                                             
     0     -7.4578696     23  2.300                                             
     1     -3.8952261     23  2.300                                             
     1      6.1178114     23  2.300                                             
     3     -1.3605826     23  2.300                                             
  local pseudopotential read in
  partial core-charges read in
  partial kinetic energy density read in
  atomic valenz-charges read in
  non local Contribution for L=           2  read in
    real space projection operators read in
  non local Contribution for L=           2  read in
    real space projection operators read in
  non local Contribution for L=           0  read in
    real space projection operators read in
  non local Contribution for L=           0  read in
    real space projection operators read in
  non local Contribution for L=           1  read in
    real space projection operators read in
  non local Contribution for L=           1  read in
    real space projection operators read in
    PAW grid and wavefunctions read in

   number of l-projection  operators is LMAX  =           6
   number of lm-projection operators is LMMAX =          18

 POTCAR:    PAW_PBE C 08Apr2002                   
   SHA256 =  253f7b50bb8d59471dbedb8285d89021f4a42ed1a2c5d38a03a736e69125dd95 C/
   COPYR  = (c) Copyright 08Apr2002 Georg Kresse                                
   COPYR  = This file is part of the software VASP. Any use, copying, and all ot
   COPYR  = If you do not have a valid VASP license, you may not use, copy or di
   VRHFIN =C: s2p2                                                              
   LEXCH  = PE                                                                  
   EATOM  =   147.1560 eV,   10.8157 Ry                                         
                                                                                
   TITEL  = PAW_PBE C 08Apr2002                                                 
   LULTRA =        F    use ultrasoft PP ?                                      
   IUNSCR =        1    unscreen: 0-lin 1-nonlin 2-no                           
   RPACOR =    1.200    partial core radius                                     
   POMASS =   12.011; ZVAL   =    4.000    mass and valenz                      
   RCORE  =    1.500    outmost cutoff radius                                   
   RWIGS  =    1.630; RWIGS  =    0.863    wigner-seitz radius (au A)           
   ENMAX  =  400.000; ENMIN  =  300.000 eV                                      
   ICORE  =        2    local potential                                         
   LCOR   =        T    correct aug charges                                     
   LPAW   =        T    paw PP                                                  
   EAUG   =  644.873                                                            
   DEXC   =    0.000                                                            
   RMAX   =    1.529    core radius for proj-oper                               
   RAUG   =    1.300    factor for augmentation sphere                          
   RDEP   =    1.501    radius for radial grids                                 
   RDEPT  =    1.300    core radius for aug-charge                              
                                                                                
   Atomic configuration                                                         
    4 entries                                                                   
     n  l   j            E        occ.                                          
     1  0  0.50      -273.3789   2.0000                                         
     2  0  0.50       -13.7508   2.0000                                         
     2  1  0.50        -5.2854   2.0000                                         
     3  2  1.50        -5.4423   0.0000                                         
   Description                                                                  
     l       E           TYP  RCUT    TYP  RCUT                                 
     0    -13.7508458     23  1.200                                             
     0     -8.2022199     23  1.200                                             
     1     -5.2854383     23  1.500                                             
     1     34.0145650     23  1.500                                             
     2     -5.4423304      7  1.500                                             
  local pseudopotential read in
  partial core-charges read in
  partial kinetic energy density read in
  atomic valenz-charges read in
  non local Contribution for L=           0  read in
    real space projection operators read in
  non local Contribution for L=           0  read in
    real space projection operators read in
  non local Contribution for L=           1  read in
    real space projection operators read in
  non local Contribution for L=           1  read in
    real space projection operators read in
    PAW grid and wavefunctions read in

   number of l-projection  operators is LMAX  =           4
   number of lm-projection operators is LMMAX =           8

 POTCAR:    PAW_PBE O 08Apr2002                   
   SHA256 =  818f92134a0a090dccd8ba1447fa70422a3b330e708bb4f08108d8ae51209ddf O/
   COPYR  = (c) Copyright 08Apr2002 Georg Kresse                                
   COPYR  = This file is part of the software VASP. Any use, copying, and all ot
   COPYR  = If you do not have a valid VASP license, you may not use, copy or di
   VRHFIN =O: s2p4                                                              
   LEXCH  = PE                                                                  
   EATOM  =   432.3788 eV,   31.7789 Ry                                         
                                                                                
   TITEL  = PAW_PBE O 08Apr2002                                                 
   LULTRA =        F    use ultrasoft PP ?                                      
   IUNSCR =        1    unscreen: 0-lin 1-nonlin 2-no                           
   RPACOR =    1.200    partial core radius                                     
   POMASS =   16.000; ZVAL   =    6.000    mass and valenz                      
   RCORE  =    1.520    outmost cutoff radius                                   
   RWIGS  =    1.550; RWIGS  =    0.820    wigner-seitz radius (au A)           
   ENMAX  =  400.000; ENMIN  =  300.000 eV                                      
   ICORE  =        2    local potential                                         
   LCOR   =        T    correct aug charges                                     
   LPAW   =        T    paw PP                                                  
   EAUG   =  605.392                                                            
   DEXC   =    0.000                                                            
   RMAX   =    1.553    core radius for proj-oper                               
   RAUG   =    1.300    factor for augmentation sphere                          
   RDEP   =    1.550    radius for radial grids                                 
   RDEPT  =    1.329    core radius for aug-charge                              
                                                                                
   Atomic configuration                                                         
    4 entries                                                                   
     n  l   j            E        occ.                                          
     1  0  0.50      -514.6923   2.0000                                         
     2  0  0.50       -23.9615   2.0000                                         
     2  1  0.50        -9.0305   4.0000                                         
     3  2  1.50        -9.5241   0.0000                                         
   Description                                                                  
     l       E           TYP  RCUT    TYP  RCUT                                 
     0    -23.9615318     23  1.200                                             
     0     -9.5240782     23  1.200                                             
     1     -9.0304911     23  1.520                                             
     1      8.1634956     23  1.520                                             
     2     -9.5240782      7  1.500                                             
  local pseudopotential read in
  partial core-charges read in
  partial kinetic energy density read in
  kinetic energy density of atom read in
  atomic valenz-charges read in
  non local Contribution for L=           0  read in
    real space projection operators read in
  non local Contribution for L=           0  read in
    real space projection operators read in
  non local Contribution for L=           1  read in
    real space projection operators read in
  non local Contribution for L=           1  read in
    real space projection operators read in
    PAW grid and wavefunctions read in

   number of l-projection  operators is LMAX  =           4
   number of lm-projection operators is LMMAX =           8


 ----------------------------------------------------------------------------- 
|                                                                             |
|  ADVICE TO THIS USER RUNNING 'VASP/VAMP'   (HEAR YOUR MASTER'S VOICE ...):  |
|                                                                             |
|      You have a (more or less) 'large supercell' and for larger cells       |
|      it might be more efficient to use real space projection opertators     |
|      So try LREAL= Auto  in the INCAR   file.                               |
|      Mind:          For very  accurate calculation you might also keep the  |
|      reciprocal projection scheme          (i.e. LREAL=.FALSE.)             |
|                                                                             |
 ----------------------------------------------------------------------------- 

  PAW_PBE C 08Apr2002                   :
 energy of atom  1       EATOM= -147.1560
 kinetic energy error for atom=    0.0132 (will be added to EATOM!!)
  PAW_PBE N 08Apr2002                   :
 energy of atom  2       EATOM= -264.5486
 kinetic energy error for atom=    0.0298 (will be added to EATOM!!)
  PAW_PBE Ge_d 03Jul2007                :
 energy of atom  3       EATOM=-2596.2402
 kinetic energy error for atom=    0.0090 (will be added to EATOM!!)
  PAW_PBE C 08Apr2002                   :
 energy of atom  4       EATOM= -147.1560
 kinetic energy error for atom=    0.0132 (will be added to EATOM!!)
  PAW_PBE O 08Apr2002                   :
 energy of atom  5       EATOM= -432.3788
 kinetic energy error for atom=    0.0458 (will be added to EATOM!!)


 POSCAR: POSCAR-c3n4                             
  positions in direct lattice
  velocities in cartesian coordinates
 exchange correlation table for  LEXCH =        8
   RHO(1)=    0.500       N(1)  =     2000
   RHO(2)=  100.500       N(2)  =     4000



--------------------------------------------------------------------------------------------------------


 ion  position               nearest neighbor table
   1  0.057  0.145  0.334-  26 1.34  46 1.37  25 1.39   6 2.00
   2  0.243  0.376  0.417-  29 1.32  35 1.38  25 1.42
   3  0.026  0.324  0.395-  44 1.31  39 1.34  25 1.38
   4  0.469  0.069  0.539-  30 1.28  48 1.38  27 1.39
   5  0.455  0.435  0.378-  28 1.31  29 1.32  56 1.40
   6  0.155  0.064  0.410-  31 1.31  26 1.32  32 1.42   1 2.00
   7  0.053  0.709  0.508-  54 1.33  33 1.34  34 1.38
   8  0.258  0.874  0.600-  33 1.29  37 1.35  27 1.47
   9  0.267  0.076  0.560-  31 1.31  52 1.34  27 1.42
  10  0.410  0.535  0.533-  38 1.33  35 1.34  56 1.38
  11  0.460  0.887  0.643-  36 1.30  37 1.38  48 1.42
  12  0.004  0.485  0.470-  39 1.31  34 1.35  40 1.36
  13  0.649  0.213  0.429-  42 1.34  30 1.37  41 1.41
  14  0.761  0.413  0.267-  45 1.37  51 1.43  41 1.43  17 2.03
  15  0.623  0.398  0.398-  28 1.32  55 1.33  41 1.41
  16  0.911  0.974  0.434-  46 1.32  43 1.35  32 1.41
  17  0.934  0.405  0.284-  45 1.30  44 1.32  40 1.44  14 2.03
  18  0.675  0.072  0.549-  47 1.32  42 1.35  48 1.45
  19  0.600  0.681  0.634-  50 1.34  38 1.37  49 1.40
  20  0.824  0.881  0.596-  53 1.32  43 1.34  49 1.47
  21  0.663  0.919  0.674-  47 1.36  36 1.36  49 1.36
  22  0.912  0.596  0.361-  51 1.31  54 1.35  40 1.41
  23  0.053  0.015  0.592-  53 1.34  52 1.34  32 1.38
  24  0.613  0.521  0.534-  55 1.31  50 1.31  56 1.41
  25  0.106  0.264  0.400-   3 1.38   1 1.39   2 1.42
  26  0.148  0.107  0.312-   6 1.32   1 1.34
  27  0.351  0.028  0.601-   4 1.39   9 1.42   8 1.47
  28  0.535  0.399  0.329-   5 1.31  15 1.32
  29  0.329  0.387  0.340-   2 1.32   5 1.32
  30  0.523  0.174  0.474-   4 1.28  13 1.37
  31  0.266  0.075  0.454-   9 1.31   6 1.31
  32  0.040  0.013  0.481-  23 1.38  16 1.41   6 1.42
  33  0.139  0.832  0.558-   8 1.29   7 1.34
  34  0.056  0.593  0.542-  12 1.35   7 1.38  57 2.16
  35  0.275  0.463  0.506-  10 1.34   2 1.38
  36  0.532  0.863  0.712-  11 1.30  21 1.36
  37  0.318  0.805  0.638-   8 1.35  11 1.38  57 2.16
  38  0.465  0.634  0.609-  10 1.33  19 1.37
  39  0.014  0.375  0.490-  12 1.31   3 1.34
  40  0.957  0.499  0.373-  12 1.36  22 1.41  17 1.44
  41  0.684  0.325  0.357-  15 1.41  13 1.41  14 1.43
  42  0.730  0.169  0.470-  13 1.34  18 1.35
  43  0.799  0.879  0.489-  20 1.34  16 1.35
  44  0.004  0.341  0.293-   3 1.31  17 1.32
  45  0.843  0.379  0.210-  17 1.30  14 1.37
  46  0.919  0.046  0.346-  16 1.32   1 1.37
  47  0.743  0.041  0.618-  18 1.32  21 1.36
  48  0.526  0.988  0.560-   4 1.38  11 1.42  18 1.45
  49  0.698  0.820  0.661-  21 1.36  19 1.40  20 1.47
  50  0.662  0.608  0.617-  24 1.31  19 1.34
  51  0.813  0.558  0.290-  22 1.31  14 1.43
  52  0.180  0.074  0.635-  23 1.34   9 1.34
  53  0.939  0.949  0.653-  20 1.32  23 1.34
  54  0.975  0.710  0.427-   7 1.33  22 1.35
  55  0.671  0.455  0.496-  24 1.31  15 1.33
  56  0.495  0.500  0.479-  10 1.38   5 1.40  24 1.41
  57  0.201  0.578  0.646-  37 2.16  34 2.16
  58  0.234  0.578  0.913-  59 1.14
  59  0.266  0.530  0.980-  58 1.14


IMPORTANT INFORMATION: All symmetrisations will be switched off!
NOSYMM: (Re-)initialisation of all symmetry stuff for point group C_1.



 KPOINTS: K-Points                                

Automatic generation of k-mesh.
Space group operators:
 irot       det(A)        alpha          n_x          n_y          n_z        tau_x        tau_y        tau_z
    1     1.000000     0.000001     1.000000     0.000000     0.000000     0.000000     0.000000     0.000000
 
 Subroutine IBZKPT returns following result:
 ===========================================
 
 Found      5 irreducible k-points:
 
 Following reciprocal coordinates:
            Coordinates               Weight
  0.000000  0.000000  0.000000      1.000000
  0.333333  0.000000  0.000000      2.000000
  0.000000  0.333333  0.000000      2.000000
  0.333333  0.333333  0.000000      2.000000
 -0.333333  0.333333  0.000000      2.000000
 
 Following cartesian coordinates:
            Coordinates               Weight
  0.000000  0.000000  0.000000      1.000000
  0.024277  0.014368  0.000000      2.000000
  0.000396  0.028736  0.000000      2.000000
  0.024673  0.043104  0.000000      2.000000
 -0.023881  0.014368  0.000000      2.000000
 
 TETIRR: Found     24 inequivalent tetrahedra from       54


--------------------------------------------------------------------------------------------------------




 Dimension of arrays:
   k-points           NKPTS =      5   k-points in BZ     NKDIM =      5   number of bands    NBANDS=    172
   number of dos      NEDOS =   4000   number of ions     NIONS =     59
   non local maximal  LDIM  =      6   non local SUM 2l+1 LMDIM =     18
   total plane-waves  NPLWV = 230400
   max r-space proj   IRMAX =      1   max aug-charges    IRDMAX=   6033
   dimension x,y,z NGX =    60 NGY =   60 NGZ =   64
   dimension x,y,z NGXF=   120 NGYF=  120 NGZF=  128
   support grid    NGXF=   120 NGYF=  120 NGZF=  128
   ions per type =              24  32   1   1   1
   NGX,Y,Z   is equivalent  to a cutoff of   8.79,  8.95,  8.65 a.u.
   NGXF,Y,Z  is equivalent  to a cutoff of  17.57, 17.90, 17.30 a.u.

 SYSTEM =  unknown system                          
 POSCAR =  POSCAR-c3n4                             

 Startparameter for this run:
   NWRITE =      2    write-flag & timer
   PREC   = normal    normal or accurate (medium, high low for compatibility)
   ISTART =      0    job   : 0-new  1-cont  2-samecut
   ICHARG =      2    charge: 1-file 2-atom 10-const
   ISPIN  =      2    spin polarized calculation?
   LNONCOLLINEAR =      F non collinear calculations
   LSORBIT =      F    spin-orbit coupling
   INIWAV =      1    electr: 0-lowe 1-rand  2-diag
   LASPH  =      F    aspherical Exc in radial PAW
   METAGGA=      F    non-selfconsistent MetaGGA calc.

 Electronic Relaxation 1
   ENCUT  =  440.0 eV  32.34 Ry    5.69 a.u.  19.42 19.06 21.04*2*pi/ulx,y,z
   ENINI  =  440.0     initial cutoff
   ENAUG  =  644.9 eV  augmentation charge cutoff
   NELM   =    100;   NELMIN=  2; NELMDL= -5     # of ELM steps 
   EDIFF  = 0.1E-03   stopping-criterion for ELM
   LREAL  =      F    real-space projection
   NLSPLINE    = F    spline interpolate recip. space projectors
   LCOMPAT=      F    compatible to vasp.4.4
   GGA_COMPAT  = T    GGA compatible to vasp.4.4-vasp.4.6
   LMAXPAW     = -100 max onsite density
   LMAXMIX     =    2 max onsite mixed and CHGCAR
   VOSKOWN=      0    Vosko Wilk Nusair interpolation
   ROPT   =    0.00000   0.00000   0.00000   0.00000
   ROPT   =    0.00000
 Ionic relaxation
   EDIFFG = -.1E-01   stopping-criterion for IOM
   NSW    =      0    number of steps for IOM
   NBLOCK =      1;   KBLOCK =      1    inner block; outer block 
   IBRION =     -1    ionic relax: 0-MD 1-quasi-New 2-CG
   NFREE  =      0    steps in history (QN), initial steepest desc. (CG)
   ISIF   =      2    stress and relaxation
   IWAVPR =     10    prediction:  0-non 1-charg 2-wave 3-comb
   ISYM   =      0    0-nonsym 1-usesym 2-fastsym
   LCORR  =      T    Harris-Foulkes like correction to forces

   POTIM  = 0.5000    time-step for ionic-motion
   TEIN   =    0.0    initial temperature
   TEBEG  =    0.0;   TEEND  =   0.0 temperature during run
   SMASS  =  -3.00    Nose mass-parameter (am)
   estimated Nose-frequenzy (Omega)   =  0.10E-29 period in steps =****** mass=  -0.295E-26a.u.
   SCALEE = 1.0000    scale energy and forces
   NPACO  =    256;   APACO  = 16.0  distance and # of slots for P.C.
   PSTRESS=    0.0 pullay stress

  Mass of Ions in am
   POMASS =  12.01 14.00 72.61 12.01 16.00
  Ionic Valenz
   ZVAL   =   4.00  5.00 14.00  4.00  6.00
  Atomic Wigner-Seitz radii
   RWIGS  =  -1.00 -1.00 -1.00 -1.00 -1.00
  virtual crystal weights 
   VCA    =   1.00  1.00  1.00  1.00  1.00
   NELECT =     280.0000    total number of electrons
   NUPDOWN=      -1.0000    fix difference up-down

 DOS related values:
   EMIN   = -14.00;   EMAX   =  6.00  energy-range for DOS
   EFERMI =   0.00
   ISMEAR =    -5;   SIGMA  =   0.20  broadening in eV -4-tet -1-fermi 0-gaus

 Electronic relaxation 2 (details)
   IALGO  =     38    algorithm
   LDIAG  =      T    sub-space diagonalisation (order eigenvalues)
   LSUBROT=      F    optimize rotation matrix (better conditioning)
   TURBO    =      0    0=normal 1=particle mesh
   IRESTART =      0    0=no restart 2=restart with 2 vectors
   NREBOOT  =      0    no. of reboots
   NMIN     =      0    reboot dimension
   EREF     =   0.00    reference energy to select bands
   IMIX   =      4    mixing-type and parameters
     AMIX     =   0.25;   BMIX     =  0.00
     AMIX_MAG =   1.00;   BMIX_MAG =  0.00
     AMIN     =   0.10
     WC   =   100.;   INIMIX=   1;  MIXPRE=   1;  MAXMIX= -45

 Intra band minimization:
   WEIMIN = 0.0000     energy-eigenvalue tresh-hold
   EBREAK =  0.15E-06  absolut break condition
   DEPER  =   0.30     relativ break condition  

   TIME   =   0.40     timestep for ELM

  volume/ion in A,a.u.               =      22.51       151.91
  Fermi-wavevector in a.u.,A,eV,Ry     =   0.974357  1.841269 12.916996  0.949372
  Thomas-Fermi vector in A             =   2.104811

 Write flags
   LWAVE        =      F    write WAVECAR
   LDOWNSAMPLE  =      F    k-point downsampling of WAVECAR
   LCHARG       =      F    write CHGCAR
   LVTOT        =      F    write LOCPOT, total local potential
   LVHAR        =      F    write LOCPOT, Hartree potential only
   LELF         =      F    write electronic localiz. function (ELF)
   LORBIT       =     11    0 simple, 1 ext, 2 COOP (PROOUT), +10 PAW based schemes


 Dipole corrections
   LMONO  =      F    monopole corrections only (constant potential shift)
   LDIPOL =      F    correct potential (dipole corrections)
   IDIPOL =      0    1-x, 2-y, 3-z, 4-all directions 
   EPSILON=  1.0000000 bulk dielectric constant

 Exchange correlation treatment:
   GGA     =    --    GGA type
   LEXCH   =     8    internal setting for exchange type
   VOSKOWN=      0    Vosko Wilk Nusair interpolation
   LHFCALC =     F    Hartree Fock is set to
   LHFONE  =     F    Hartree Fock one center treatment
   AEXX    =    0.0000 exact exchange contribution

 Linear response parameters
   LEPSILON=     F    determine dielectric tensor
   LRPA    =     F    only Hartree local field effects (RPA)
   LNABLA  =     F    use nabla operator in PAW spheres
   LVEL    =     F    velocity operator in full k-point grid
   LINTERFAST=   F  fast interpolation
   KINTER  =     0    interpolate to denser k-point grid
   CSHIFT  =0.1000    complex shift for real part using Kramers Kronig
   OMEGAMAX=  -1.0    maximum frequency
   DEG_THRESHOLD= 0.2000000E-02 threshold for treating states as degnerate
   RTIME   =   -0.100 relaxation time in fs
  (WPLASMAI=    0.000 imaginary part of plasma frequency in eV, 0.658/RTIME)
   DFIELD  = 0.0000000 0.0000000 0.0000000 field for delta impulse in time

 Orbital magnetization related:
   ORBITALMAG=     F  switch on orbital magnetization
   LCHIMAG   =     F  perturbation theory with respect to B field
   DQ        =  0.001000  dq finite difference perturbation B field
   LLRAUG    =     F  two centre corrections for induced B field



--------------------------------------------------------------------------------------------------------


 Static calculation
 charge density and potential will be updated during run
 spin polarized calculation
 Variant of blocked Davidson
 Davidson routine will perform the subspace rotation
 perform sub-space diagonalisation
    after iterative eigenvector-optimisation
 modified Broyden-mixing scheme, WC =      100.0
 initial mixing is a Kerker type mixing with AMIX =  0.2500 and BMIX =      0.0001
 Hartree-type preconditioning will be used
 using additional bands           32
 reciprocal scheme for non local part
 use partial core corrections
 calculate Harris-corrections to forces   (improved forces if not selfconsistent)
 use gradient corrections 
 use of overlap-Matrix (Vanderbilt PP)
 Fermi weights with tetrahedron method with Bloechl corrections


--------------------------------------------------------------------------------------------------------


  energy-cutoff  :      440.00
  volume of cell :     1328.09
      direct lattice vectors                 reciprocal lattice vectors
    11.351607872 -0.156407189  0.000000000     0.088817524  0.052565993 -0.000000000
    -5.675803936  9.590056615  0.000000000     0.001448552  0.105131986 -0.000000000
     0.000000000  0.000000000 12.300000000    -0.000000000 -0.000000000  0.081300813

  length of vectors
    11.352685343 11.143784644 12.300000000     0.103207248  0.105141965  0.081300813



 k-points in units of 2pi/SCALE and weight: K-Points                                
   0.00000000  0.00000000  0.00000000       0.111
   0.02427679  0.01436804  0.00000000       0.222
   0.00039594  0.02873608  0.00000000       0.222
   0.02467273  0.04310411  0.00000000       0.222
  -0.02388085  0.01436804  0.00000000       0.222

 k-points in reciprocal lattice and weights: K-Points                                
   0.00000000  0.00000000  0.00000000       0.111
   0.33333333  0.00000000  0.00000000       0.222
   0.00000000  0.33333333  0.00000000       0.222
   0.33333333  0.33333333  0.00000000       0.222
  -0.33333333  0.33333333  0.00000000       0.222

 position of ions in fractional coordinates (direct lattice) 
   0.05676356  0.14533717  0.33449738
   0.24330027  0.37642688  0.41704726
   0.02574469  0.32395358  0.39508472
   0.46858895  0.06850281  0.53864136
   0.45536847  0.43503149  0.37777930
   0.15474207  0.06362317  0.41026185
   0.05294327  0.70892411  0.50831723
   0.25793064  0.87389840  0.60034789
   0.26673707  0.07628798  0.55985985
   0.40953557  0.53459375  0.53348277
   0.46015715  0.88694756  0.64333778
   0.00364305  0.48547284  0.47041442
   0.64930740  0.21310138  0.42879665
   0.76061932  0.41284039  0.26663429
   0.62343349  0.39794544  0.39820971
   0.91142113  0.97351290  0.43350138
   0.93416205  0.40511951  0.28437603
   0.67458747  0.07201947  0.54928342
   0.59982252  0.68081524  0.63416350
   0.82417621  0.88068056  0.59561649
   0.66286928  0.91902305  0.67371123
   0.91229269  0.59601474  0.36122830
   0.05327870  0.01486649  0.59242025
   0.61271846  0.52093042  0.53436626
   0.10592417  0.26440050  0.39958497
   0.14809588  0.10659921  0.31197302
   0.35134377  0.02799427  0.60104349
   0.53477591  0.39931462  0.32896339
   0.32918389  0.38734938  0.34018323
   0.52332633  0.17372727  0.47353589
   0.26578624  0.07521547  0.45350420
   0.03959315  0.01250551  0.48094076
   0.13882677  0.83159767  0.55779055
   0.05648603  0.59265499  0.54184420
   0.27538130  0.46260851  0.50626931
   0.53192638  0.86291967  0.71211579
   0.31831201  0.80490745  0.63752561
   0.46474538  0.63412580  0.60948523
   0.01362382  0.37520856  0.49018237
   0.95674850  0.49946472  0.37260566
   0.68408094  0.32508538  0.35661312
   0.72964692  0.16912639  0.46975650
   0.79875120  0.87880558  0.48945922
   0.00448075  0.34105114  0.29324907
   0.84272034  0.37890624  0.20982540
   0.91897285  0.04632650  0.34627222
   0.74285700  0.04057731  0.61845505
   0.52597046  0.98845883  0.55972314
   0.69812997  0.81997320  0.66140771
   0.66205506  0.60811748  0.61714754
   0.81257548  0.55781758  0.29017813
   0.18001686  0.07400740  0.63484731
   0.93921580  0.94943172  0.65341946
   0.97531552  0.70990844  0.42723331
   0.67105539  0.45451462  0.49550571
   0.49455888  0.50018942  0.47945582
   0.20142872  0.57837798  0.64623374
   0.23421147  0.57823353  0.91256378
   0.26585466  0.52995081  0.97972678

 position of ions in cartesian coordinates  (Angst):
  -0.18054768  1.38491349  4.11431776
   0.62532405  3.57190120  5.12968126
  -1.54645337  3.10270655  4.85954205
   4.93042949  0.58365517  6.62528868
   2.70001086  4.10075374  4.64668533
   1.39545860  0.58594704  5.04622072
  -3.42272300  6.79034166  6.25230187
  -2.03214849  8.34039292  7.38427899
   2.59489901  0.68988641  6.88627611
   1.61463792  5.06273000  6.56183809
   0.18938312  8.43390540  7.91305473
  -2.71409416  4.65514225  5.78609735
   6.16116135  1.94209799  5.27419884
   6.29105118  3.84019640  3.27960179
   4.81831227  3.71880978  4.89797942
   4.82062686  9.19349103  5.33206695
   8.30486234  3.73900939  3.49782512
   7.24888408  0.58516046  6.75618610
   2.94477622  6.43524010  7.80021104
   4.35715494  8.31686936  7.32608286
   2.30843745  8.70980558  8.28664810
   6.97312614  5.57312595  4.44310808
   0.52041961  0.13423728  7.28676909
   3.99864070  4.89991869  6.57270501
  -0.29827575  2.51904848  4.91489514
   1.07609009  0.99912920  3.83726817
   3.82942677  0.21351391  7.39283491
   3.80413491  3.74580700  4.04624968
   1.53824726  3.66321574  4.18425368
   4.95455336  1.58420236  5.82449148
   2.59019295  0.67974971  5.57810166
   0.37846710  0.11373587  5.91557140
  -3.14407825  7.95335526  6.86082377
  -2.72258627  5.67476012  6.66468360
   0.50034532  4.39337019  6.22711256
   1.14045677  8.19225141  8.75902427
  -0.95514371  7.66932170  7.84156505
   1.67643357  6.00861283  7.49666833
  -1.97495792  3.59614048  6.02924314
   8.02577001  4.64025263  4.58304962
   5.92029767  3.01059203  4.38634143
   7.32273746  1.50780963  5.77800500
   4.07918224  8.30286483  6.02034845
  -1.88487567  3.26999895  3.60696357
   7.41563336  3.50192475  2.58085239
  10.16887931  0.30053980  4.25914832
   8.20231247  0.27295053  7.60699710
   0.36031195  9.39711056  6.88459464
   3.27089058  7.75439689  8.13531488
   4.06383378  5.72833092  7.59091479
   6.05797506  5.22240950  3.56919101
   1.62342934  0.68157920  7.80862187
   5.27282119  8.95820389  8.03705936
   7.04209823  6.65551573  5.25496969
   5.03782179  4.25386308  6.09472018
   2.77506138  4.71949232  5.89730659
  -0.99622019  5.51517270  7.94867495
  -0.62326343  5.50865993 11.22453452
   0.00998088  5.04067674 12.05063945



--------------------------------------------------------------------------------------------------------


 k-point  1 :   0.0000 0.0000 0.0000  plane waves:   27841
 k-point  2 :   0.3333 0.0000 0.0000  plane waves:   27805
 k-point  3 :   0.0000 0.3333 0.0000  plane waves:   27830
 k-point  4 :   0.3333 0.3333 0.0000  plane waves:   27844
 k-point  5 :  -0.3333 0.3333 0.0000  plane waves:   27802

 maximum and minimum number of plane-waves per node :      2335     2301

 maximum number of plane-waves:     27844
 maximum index in each direction: 
   IXMAX=   19   IYMAX=   19   IZMAX=   21
   IXMIN=  -19   IYMIN=  -19   IZMIN=  -21


 parallel 3D FFT for wavefunctions:
    minimum data exchange during FFTs selected (reduces bandwidth)
 parallel 3D FFT for charge:
    minimum data exchange during FFTs selected (reduces bandwidth)


 total amount of memory used by VASP MPI-rank0    65629. kBytes
=======================================================================

   base      :      30000. kBytes
   nonl-proj :      10578. kBytes
   fftplans  :       2121. kBytes
   grid      :       6401. kBytes
   one-center:        155. kBytes
   wavefun   :      16374. kBytes

     INWAV:  cpu time    0.0000: real time    0.0000
 Broyden mixing: mesh for mixing (old mesh)
   NGX = 39   NGY = 39   NGZ = 43
  (NGX  =120   NGY  =120   NGZ  =128)
  gives a total of  65403 points

 initial charge density was supplied:
 charge density of overlapping atoms calculated
 number of electron     280.0000000 magnetization       2.0000000
 keeping initial charge density in first step


--------------------------------------------------------------------------------------------------------


 Maximum index for augmentation-charges          177 (set IRDMAX)


--------------------------------------------------------------------------------------------------------


 First call to EWALD:  gamma=   0.161
 Maximum number of real-space cells 3x 3x 3
 Maximum number of reciprocal cells 3x 3x 3

    FEWALD:  cpu time    0.0079: real time    0.0079


--------------------------------------- Iteration      1(   1)  ---------------------------------------


    POTLOK:  cpu time    0.1017: real time    0.1089
    SETDIJ:  cpu time    0.0103: real time    0.0103
     EDDAV:  cpu time    6.7041: real time    6.7102
 BZINTS: Fermi energy: 12.792840;280.000000 electrons
         Band energy:-896.264269;  BLOECHL correction: -0.076726
       DOS:  cpu time    0.3725: real time    0.3725
    --------------------------------------------
      LOOP:  cpu time    7.1886: real time    7.2019

 eigenvalue-minimisations  :  3616
 total energy-change (2. order) : 0.2585359E+04  (-0.1146643E+05)
 number of electron     280.0000000 magnetization       2.0000000
 augmentation part      280.0000000 magnetization       2.0000000

 Free energy of the ion-electron system (eV)
  ---------------------------------------------------
  alpha Z        PSCENC =       280.56837772
  Ewald energy   TEWEN  =     13786.08508624
  -Hartree energ DENC   =    -26339.02922273
  -exchange      EXHF   =         0.00000000
  -V(xc)+E(xc)   XCENC  =      1071.32950963
  PAW double counting   =     11453.83848114   -11942.90478952
  entropy T*S    EENTRO =         0.00000000
  eigenvalues    EBANDS =      -896.26426905
  atomic energy  EATOM  =     15171.73615219
  Solvation  Ediel_sol  =         0.00000000
  ---------------------------------------------------
  free energy    TOTEN  =      2585.35932561 eV

  energy without entropy =     2585.35932561  energy(sigma->0) =     2585.35932561


--------------------------------------------------------------------------------------------------------




--------------------------------------- Iteration      1(   2)  ---------------------------------------


     EDDAV:  cpu time    8.2189: real time    8.2288
 BZINTS: Fermi energy:  0.377357;280.000000 electrons
         Band energy:***********;  BLOECHL correction:  0.000000
       DOS:  cpu time    0.0176: real time    0.0176
    --------------------------------------------
      LOOP:  cpu time    8.2365: real time    8.2464

 eigenvalue-minimisations  :  4464
 total energy-change (2. order) :-0.2702607E+04  (-0.2609916E+04)
 number of electron     280.0000000 magnetization       2.0000000
 augmentation part      280.0000000 magnetization       2.0000000

 Free energy of the ion-electron system (eV)
  ---------------------------------------------------
  alpha Z        PSCENC =       280.56837772
  Ewald energy   TEWEN  =     13786.08508624
  -Hartree energ DENC   =    -26339.02922273
  -exchange      EXHF   =         0.00000000
  -V(xc)+E(xc)   XCENC  =      1071.32950963
  PAW double counting   =     11453.83848114   -11942.90478952
  entropy T*S    EENTRO =         0.00000000
  eigenvalues    EBANDS =     -3598.87130465
  atomic energy  EATOM  =     15171.73615219
  Solvation  Ediel_sol  =         0.00000000
  ---------------------------------------------------
  free energy    TOTEN  =      -117.24770999 eV

  energy without entropy =     -117.24770999  energy(sigma->0) =     -117.24770999


--------------------------------------------------------------------------------------------------------




--------------------------------------- Iteration      1(   3)  ---------------------------------------


     EDDAV:  cpu time    7.1221: real time    7.1345
 BZINTS: Fermi energy: -2.246437;280.000000 electrons
         Band energy:***********;  BLOECHL correction:  0.000000
       DOS:  cpu time    0.0164: real time    0.0164
    --------------------------------------------
      LOOP:  cpu time    7.1385: real time    7.1509

 eigenvalue-minimisations  :  3912
 total energy-change (2. order) :-0.3819523E+03  (-0.3769724E+03)
 number of electron     280.0000000 magnetization       2.0000000
 augmentation part      280.0000000 magnetization       2.0000000

 Free energy of the ion-electron system (eV)
  ---------------------------------------------------
  alpha Z        PSCENC =       280.56837772
  Ewald energy   TEWEN  =     13786.08508624
  -Hartree energ DENC   =    -26339.02922273
  -exchange      EXHF   =         0.00000000
  -V(xc)+E(xc)   XCENC  =      1071.32950963
  PAW double counting   =     11453.83848114   -11942.90478952
  entropy T*S    EENTRO =         0.00000000
  eigenvalues    EBANDS =     -3980.82360209
  atomic energy  EATOM  =     15171.73615219
  Solvation  Ediel_sol  =         0.00000000
  ---------------------------------------------------
  free energy    TOTEN  =      -499.20000743 eV

  energy without entropy =     -499.20000743  energy(sigma->0) =     -499.20000743


--------------------------------------------------------------------------------------------------------




--------------------------------------- Iteration      1(   4)  ---------------------------------------


     EDDAV:  cpu time    7.8232: real time    7.8272
 BZINTS: Fermi energy: -2.470868;280.000000 electrons
         Band energy:***********;  BLOECHL correction:  0.000000
       DOS:  cpu time    0.0160: real time    0.0160
    --------------------------------------------
      LOOP:  cpu time    7.8392: real time    7.8432

 eigenvalue-minimisations  :  4408
 total energy-change (2. order) :-0.1628007E+02  (-0.1595916E+02)
 number of electron     280.0000000 magnetization       2.0000000
 augmentation part      280.0000000 magnetization       2.0000000

 Free energy of the ion-electron system (eV)
  ---------------------------------------------------
  alpha Z        PSCENC =       280.56837772
  Ewald energy   TEWEN  =     13786.08508624
  -Hartree energ DENC   =    -26339.02922273
  -exchange      EXHF   =         0.00000000
  -V(xc)+E(xc)   XCENC  =      1071.32950963
  PAW double counting   =     11453.83848114   -11942.90478952
  entropy T*S    EENTRO =         0.00000000
  eigenvalues    EBANDS =     -3997.10367659
  atomic energy  EATOM  =     15171.73615219
  Solvation  Ediel_sol  =         0.00000000
  ---------------------------------------------------
  free energy    TOTEN  =      -515.48008193 eV

  energy without entropy =     -515.48008193  energy(sigma->0) =     -515.48008193


--------------------------------------------------------------------------------------------------------




--------------------------------------- Iteration      1(   5)  ---------------------------------------


     EDDAV:  cpu time    8.1941: real time    8.2014
 BZINTS: Fermi energy: -2.476494;280.000000 electrons
         Band energy:***********;  BLOECHL correction:  0.000000
       DOS:  cpu time    0.0164: real time    0.0164
    CHARGE:  cpu time    0.2522: real time    0.2523
    MIXING:  cpu time    0.0021: real time    0.0022
    --------------------------------------------
      LOOP:  cpu time    8.4647: real time    8.4723

 eigenvalue-minimisations  :  4704
 total energy-change (2. order) :-0.5977989E+00  (-0.5932877E+00)
 number of electron     279.9999974 magnetization       0.0000000
 augmentation part       20.2125218 magnetization       0.0298907

 Broyden mixing:
  rms(total) = 0.42141E+01    rms(broyden)= 0.42116E+01
  rms(prec ) = 0.48518E+01
  weight for this iteration     100.00

 Free energy of the ion-electron system (eV)
  ---------------------------------------------------
  alpha Z        PSCENC =       280.56837772
  Ewald energy   TEWEN  =     13786.08508624
  -Hartree energ DENC   =    -26339.02922273
  -exchange      EXHF   =         0.00000000
  -V(xc)+E(xc)   XCENC  =      1071.32950963
  PAW double counting   =     11453.83848114   -11942.90478952
  entropy T*S    EENTRO =         0.00000000
  eigenvalues    EBANDS =     -3997.70147545
  atomic energy  EATOM  =     15171.73615219
  Solvation  Ediel_sol  =         0.00000000
  ---------------------------------------------------
  free energy    TOTEN  =      -516.07788078 eV

  energy without entropy =     -516.07788078  energy(sigma->0) =     -516.07788078


--------------------------------------------------------------------------------------------------------




--------------------------------------- Iteration      1(   6)  ---------------------------------------


    POTLOK:  cpu time    0.0828: real time    0.0832
    SETDIJ:  cpu time    0.0101: real time    0.0101
     EDDAV:  cpu time    7.5625: real time    7.5633
 BZINTS: Fermi energy: -2.046387;280.000000 electrons
         Band energy:***********;  BLOECHL correction:  0.000000
       DOS:  cpu time    0.0160: real time    0.0160
    CHARGE:  cpu time    0.2504: real time    0.2504
    MIXING:  cpu time    0.0021: real time    0.0053
    --------------------------------------------
      LOOP:  cpu time    7.9240: real time    7.9283

 eigenvalue-minimisations  :  4248
 total energy-change (2. order) : 0.2547104E+02  (-0.6534870E+01)
 number of electron     279.9999974 magnetization      -0.0000000
 augmentation part       19.1663070 magnetization       0.0089691

 Broyden mixing:
  rms(total) = 0.26320E+01    rms(broyden)= 0.26317E+01
  rms(prec ) = 0.29453E+01
  weight for this iteration     100.00

 eigenvalues of (default mixing * dielectric matrix)
  average eigenvalue GAMMA=   1.3656
  1.3656

 Free energy of the ion-electron system (eV)
  ---------------------------------------------------
  alpha Z        PSCENC =       280.56837772
  Ewald energy   TEWEN  =     13786.08508624
  -Hartree energ DENC   =    -26580.40201190
  -exchange      EXHF   =         0.00000000
  -V(xc)+E(xc)   XCENC  =      1085.93704686
  PAW double counting   =     15021.33711862   -15512.41738160
  entropy T*S    EENTRO =         0.00000000
  eigenvalues    EBANDS =     -3743.45122525
  atomic energy  EATOM  =     15171.73615219
  Solvation  Ediel_sol  =         0.00000000
  ---------------------------------------------------
  free energy    TOTEN  =      -490.60683712 eV

  energy without entropy =     -490.60683712  energy(sigma->0) =     -490.60683712


--------------------------------------------------------------------------------------------------------




--------------------------------------- Iteration      1(   7)  ---------------------------------------


    POTLOK:  cpu time    0.0839: real time    0.0844
    SETDIJ:  cpu time    0.0101: real time    0.0101
     EDDAV:  cpu time    7.4296: real time    7.4302
 BZINTS: Fermi energy: -2.455864;280.000000 electrons
         Band energy:***********;  BLOECHL correction:  0.000000
       DOS:  cpu time    0.0149: real time    0.0149
    CHARGE:  cpu time    0.2495: real time    0.2495
    MIXING:  cpu time    0.0015: real time    0.0019
    --------------------------------------------
      LOOP:  cpu time    7.7896: real time    7.7909

 eigenvalue-minimisations  :  4144
 total energy-change (2. order) : 0.4474479E+01  (-0.3709549E+01)
 number of electron     279.9999974 magnetization      -0.0000000
 augmentation part       18.7646024 magnetization       0.0013183

 Broyden mixing:
  rms(total) = 0.18337E+01    rms(broyden)= 0.18333E+01
  rms(prec ) = 0.21649E+01
  weight for this iteration     100.00

 eigenvalues of (default mixing * dielectric matrix)
  average eigenvalue GAMMA=   1.3207
  0.7486  1.8929

 Free energy of the ion-electron system (eV)
  ---------------------------------------------------
  alpha Z        PSCENC =       280.56837772
  Ewald energy   TEWEN  =     13786.08508624
  -Hartree energ DENC   =    -26813.66804258
  -exchange      EXHF   =         0.00000000
  -V(xc)+E(xc)   XCENC  =      1096.07996686
  PAW double counting   =     19279.32263331   -19772.90028192
  entropy T*S    EENTRO =         0.00000000
  eigenvalues    EBANDS =     -3513.35625021
  atomic energy  EATOM  =     15171.73615219
  Solvation  Ediel_sol  =         0.00000000
  ---------------------------------------------------
  free energy    TOTEN  =      -486.13235839 eV

  energy without entropy =     -486.13235839  energy(sigma->0) =     -486.13235839


--------------------------------------------------------------------------------------------------------




--------------------------------------- Iteration      1(   8)  ---------------------------------------


    POTLOK:  cpu time    0.0834: real time    0.0839
    SETDIJ:  cpu time    0.0099: real time    0.0099
     EDDAV:  cpu time    7.4534: real time    7.4542
 BZINTS: Fermi energy: -0.976432;280.000000 electrons
         Band energy:***********;  BLOECHL correction:  0.000000
       DOS:  cpu time    0.0163: real time    0.0163
    CHARGE:  cpu time    0.2491: real time    0.2491
    MIXING:  cpu time    0.0015: real time    0.0015
    --------------------------------------------
      LOOP:  cpu time    7.8136: real time    7.8149

 eigenvalue-minimisations  :  4176
 total energy-change (2. order) : 0.3454829E+01  (-0.2129148E+01)
 number of electron     279.9999979 magnetization       0.0000000
 augmentation part       18.5948231 magnetization      -0.0005816

 Broyden mixing:
  rms(total) = 0.12631E+01    rms(broyden)= 0.12628E+01
  rms(prec ) = 0.13609E+01
  weight for this iteration     100.00

 eigenvalues of (default mixing * dielectric matrix)
  average eigenvalue GAMMA=   1.5315
  2.8775  1.1898  0.5274

 Free energy of the ion-electron system (eV)
  ---------------------------------------------------
  alpha Z        PSCENC =       280.56837772
  Ewald energy   TEWEN  =     13786.08508624
  -Hartree energ DENC   =    -26898.77851631
  -exchange      EXHF   =         0.00000000
  -V(xc)+E(xc)   XCENC  =      1101.22089971
  PAW double counting   =     22484.04522820   -22979.78904476
  entropy T*S    EENTRO =         0.00000000
  eigenvalues    EBANDS =     -3427.76571220
  atomic energy  EATOM  =     15171.73615219
  Solvation  Ediel_sol  =         0.00000000
  ---------------------------------------------------
  free energy    TOTEN  =      -482.67752922 eV

  energy without entropy =     -482.67752922  energy(sigma->0) =     -482.67752922


--------------------------------------------------------------------------------------------------------




--------------------------------------- Iteration      1(   9)  ---------------------------------------


    POTLOK:  cpu time    0.0842: real time    0.0847
    SETDIJ:  cpu time    0.0101: real time    0.0101
     EDDAV:  cpu time    7.3858: real time    7.3864
 BZINTS: Fermi energy: -1.010503;280.000000 electrons
         Band energy:***********;  BLOECHL correction:  0.000000
       DOS:  cpu time    0.0150: real time    0.0150
    CHARGE:  cpu time    0.2512: real time    0.2512
    MIXING:  cpu time    0.0017: real time    0.0017
    --------------------------------------------
      LOOP:  cpu time    7.7480: real time    7.7491

 eigenvalue-minimisations  :  4128
 total energy-change (2. order) :-0.1140814E+00  (-0.1395682E+01)
 number of electron     279.9999975 magnetization       0.0000000
 augmentation part       18.5426394 magnetization      -0.0002100

 Broyden mixing:
  rms(total) = 0.80484E+00    rms(broyden)= 0.80449E+00
  rms(prec ) = 0.10529E+01
  weight for this iteration     100.00

 eigenvalues of (default mixing * dielectric matrix)
  average eigenvalue GAMMA=   1.4764
  3.3911  1.3059  0.6042  0.6042

 Free energy of the ion-electron system (eV)
  ---------------------------------------------------
  alpha Z        PSCENC =       280.56837772
  Ewald energy   TEWEN  =     13786.08508624
  -Hartree energ DENC   =    -26967.70216346
  -exchange      EXHF   =         0.00000000
  -V(xc)+E(xc)   XCENC  =      1104.22852930
  PAW double counting   =     26413.59054248   -26912.15747799
  entropy T*S    EENTRO =         0.00000000
  eigenvalues    EBANDS =     -3359.14065707
  atomic energy  EATOM  =     15171.73615219
  Solvation  Ediel_sol  =         0.00000000
  ---------------------------------------------------
  free energy    TOTEN  =      -482.79161059 eV

  energy without entropy =     -482.79161059  energy(sigma->0) =     -482.79161059


--------------------------------------------------------------------------------------------------------




--------------------------------------- Iteration      1(  10)  ---------------------------------------


    POTLOK:  cpu time    0.0830: real time    0.0836
    SETDIJ:  cpu time    0.0102: real time    0.0102
     EDDAV:  cpu time    7.4703: real time    7.4710
 BZINTS: Fermi energy: -0.876094;280.000000 electrons
         Band energy:***********;  BLOECHL correction:  0.000000
       DOS:  cpu time    0.0153: real time    0.0153
    CHARGE:  cpu time    0.2507: real time    0.2508
    MIXING:  cpu time    0.0018: real time    0.0018
    --------------------------------------------
      LOOP:  cpu time    7.8312: real time    7.8326

 eigenvalue-minimisations  :  4176
 total energy-change (2. order) : 0.4431057E+00  (-0.1245140E+01)
 number of electron     279.9999977 magnetization       0.0000000
 augmentation part       18.5098623 magnetization      -0.0002961

 Broyden mixing:
  rms(total) = 0.48869E+00    rms(broyden)= 0.48814E+00
  rms(prec ) = 0.62899E+00
  weight for this iteration     100.00

 eigenvalues of (default mixing * dielectric matrix)
  average eigenvalue GAMMA=   1.4548
  3.8162  1.5377  0.9728  0.4735  0.4735

 Free energy of the ion-electron system (eV)
  ---------------------------------------------------
  alpha Z        PSCENC =       280.56837772
  Ewald energy   TEWEN  =     13786.08508624
  -Hartree energ DENC   =    -26981.15047114
  -exchange      EXHF   =         0.00000000
  -V(xc)+E(xc)   XCENC  =      1105.26829013
  PAW double counting   =     28554.85653946   -29054.64815131
  entropy T*S    EENTRO =         0.00000000
  eigenvalues    EBANDS =     -3345.06432819
  atomic energy  EATOM  =     15171.73615219
  Solvation  Ediel_sol  =         0.00000000
  ---------------------------------------------------
  free energy    TOTEN  =      -482.34850491 eV

  energy without entropy =     -482.34850491  energy(sigma->0) =     -482.34850491


--------------------------------------------------------------------------------------------------------




--------------------------------------- Iteration      1(  11)  ---------------------------------------


    POTLOK:  cpu time    0.0851: real time    0.0856
    SETDIJ:  cpu time    0.0101: real time    0.0101
     EDDAV:  cpu time    7.2263: real time    7.2272
 BZINTS: Fermi energy: -0.736372;280.000000 electrons
         Band energy:***********;  BLOECHL correction:  0.000000
       DOS:  cpu time    0.0156: real time    0.0156
    CHARGE:  cpu time    0.2510: real time    0.2510
    MIXING:  cpu time    0.0019: real time    0.0019
    --------------------------------------------
      LOOP:  cpu time    7.5900: real time    7.5914

 eigenvalue-minimisations  :  4000
 total energy-change (2. order) : 0.2019169E+00  (-0.2876338E+00)
 number of electron     279.9999976 magnetization       0.0000000
 augmentation part       18.5362390 magnetization      -0.0001510

 Broyden mixing:
  rms(total) = 0.34266E+00    rms(broyden)= 0.34230E+00
  rms(prec ) = 0.49074E+00
  weight for this iteration     100.00

 eigenvalues of (default mixing * dielectric matrix)
  average eigenvalue GAMMA=   1.3152
  3.8124  1.4967  0.8455  0.8455  0.4456  0.4456

 Free energy of the ion-electron system (eV)
  ---------------------------------------------------
  alpha Z        PSCENC =       280.56837772
  Ewald energy   TEWEN  =     13786.08508624
  -Hartree energ DENC   =    -26966.14935382
  -exchange      EXHF   =         0.00000000
  -V(xc)+E(xc)   XCENC  =      1105.20601116
  PAW double counting   =     29912.66548210   -30412.85423176
  entropy T*S    EENTRO =         0.00000000
  eigenvalues    EBANDS =     -3359.40411180
  atomic energy  EATOM  =     15171.73615219
  Solvation  Ediel_sol  =         0.00000000
  ---------------------------------------------------
  free energy    TOTEN  =      -482.14658797 eV

  energy without entropy =     -482.14658797  energy(sigma->0) =     -482.14658797


--------------------------------------------------------------------------------------------------------




--------------------------------------- Iteration      1(  12)  ---------------------------------------


    POTLOK:  cpu time    0.0858: real time    0.0863
    SETDIJ:  cpu time    0.0101: real time    0.0101
     EDDAV:  cpu time    7.7901: real time    7.7931
 BZINTS: Fermi energy: -0.935484;280.000000 electrons
         Band energy:***********;  BLOECHL correction:  0.000000
       DOS:  cpu time    0.0151: real time    0.0151
    CHARGE:  cpu time    0.2510: real time    0.2510
    MIXING:  cpu time    0.0021: real time    0.0021
    --------------------------------------------
      LOOP:  cpu time    8.1543: real time    8.1579

 eigenvalue-minimisations  :  4392
 total energy-change (2. order) :-0.7347422E-01  (-0.4988560E+00)
 number of electron     279.9999977 magnetization      -0.0000000
 augmentation part       18.5250955 magnetization      -0.0001041

 Broyden mixing:
  rms(total) = 0.34780E+00    rms(broyden)= 0.34733E+00
  rms(prec ) = 0.52472E+00
  weight for this iteration     100.00

 eigenvalues of (default mixing * dielectric matrix)
  average eigenvalue GAMMA=   1.2778
  3.8395  1.6361  1.1618  0.7275  0.7275  0.4260  0.4260

 Free energy of the ion-electron system (eV)
  ---------------------------------------------------
  alpha Z        PSCENC =       280.56837772
  Ewald energy   TEWEN  =     13786.08508624
  -Hartree energ DENC   =    -26961.36003155
  -exchange      EXHF   =         0.00000000
  -V(xc)+E(xc)   XCENC  =      1104.94960554
  PAW double counting   =     30107.88541903   -30607.94429503
  entropy T*S    EENTRO =         0.00000000
  eigenvalues    EBANDS =     -3364.14037633
  atomic energy  EATOM  =     15171.73615219
  Solvation  Ediel_sol  =         0.00000000
  ---------------------------------------------------
  free energy    TOTEN  =      -482.22006220 eV

  energy without entropy =     -482.22006220  energy(sigma->0) =     -482.22006220


--------------------------------------------------------------------------------------------------------




--------------------------------------- Iteration      1(  13)  ---------------------------------------


    POTLOK:  cpu time    0.0856: real time    0.0861
    SETDIJ:  cpu time    0.0098: real time    0.0098
     EDDAV:  cpu time    7.2709: real time    7.2714
 BZINTS: Fermi energy: -0.780253;280.000000 electrons
         Band energy:***********;  BLOECHL correction: -0.002463
       DOS:  cpu time    0.0220: real time    0.0220
    CHARGE:  cpu time    0.2637: real time    0.2637
    MIXING:  cpu time    0.0021: real time    0.0021
    --------------------------------------------
      LOOP:  cpu time    7.6540: real time    7.6551

 eigenvalue-minimisations  :  4024
 total energy-change (2. order) : 0.2234021E+00  (-0.1269395E+00)
 number of electron     279.9999976 magnetization       0.0023600
 augmentation part       18.5368644 magnetization       0.0001698

 Broyden mixing:
  rms(total) = 0.14592E+00    rms(broyden)= 0.14540E+00
  rms(prec ) = 0.20535E+00
  weight for this iteration     100.00

 eigenvalues of (default mixing * dielectric matrix)
  average eigenvalue GAMMA=   1.2819
  3.8358  2.0429  1.2772  0.8970  0.6745  0.6745  0.4267  0.4267

 Free energy of the ion-electron system (eV)
  ---------------------------------------------------
  alpha Z        PSCENC =       280.56837772
  Ewald energy   TEWEN  =     13786.08508624
  -Hartree energ DENC   =    -26945.77875357
  -exchange      EXHF   =         0.00000000
  -V(xc)+E(xc)   XCENC  =      1104.48985335
  PAW double counting   =     30390.43692976   -30890.26893666
  entropy T*S    EENTRO =         0.00000000
  eigenvalues    EBANDS =     -3379.26536915
  atomic energy  EATOM  =     15171.73615219
  Solvation  Ediel_sol  =         0.00000000
  ---------------------------------------------------
  free energy    TOTEN  =      -481.99666013 eV

  energy without entropy =     -481.99666013  energy(sigma->0) =     -481.99666013


--------------------------------------------------------------------------------------------------------




--------------------------------------- Iteration      1(  14)  ---------------------------------------


    POTLOK:  cpu time    0.0849: real time    0.0853
    SETDIJ:  cpu time    0.0101: real time    0.0101
     EDDAV:  cpu time    7.1896: real time    7.1925
 BZINTS: Fermi energy: -0.846087;280.000000 electrons
         Band energy:***********;  BLOECHL correction:  0.000000
       DOS:  cpu time    0.0155: real time    0.0155
    CHARGE:  cpu time    0.2492: real time    0.2492
    MIXING:  cpu time    0.0025: real time    0.0025
    --------------------------------------------
      LOOP:  cpu time    7.5518: real time    7.5551

 eigenvalue-minimisations  :  3968
 total energy-change (2. order) :-0.7703984E-02  (-0.6143372E-01)
 number of electron     279.9999977 magnetization       0.0002798
 augmentation part       18.5416649 magnetization       0.0001823

 Broyden mixing:
  rms(total) = 0.14445E+00    rms(broyden)= 0.14424E+00
  rms(prec ) = 0.21928E+00
  weight for this iteration     100.00

 eigenvalues of (default mixing * dielectric matrix)
  average eigenvalue GAMMA=   1.2575
  3.7456  2.2828  1.3736  0.8405  0.8405  0.8200  0.5166  0.5166  0.3815

 Free energy of the ion-electron system (eV)
  ---------------------------------------------------
  alpha Z        PSCENC =       280.56837772
  Ewald energy   TEWEN  =     13786.08508624
  -Hartree energ DENC   =    -26937.26037488
  -exchange      EXHF   =         0.00000000
  -V(xc)+E(xc)   XCENC  =      1104.10190344
  PAW double counting   =     30534.47873320   -31034.12481822
  entropy T*S    EENTRO =         0.00000000
  eigenvalues    EBANDS =     -3387.58942381
  atomic energy  EATOM  =     15171.73615219
  Solvation  Ediel_sol  =         0.00000000
  ---------------------------------------------------
  free energy    TOTEN  =      -482.00436411 eV

  energy without entropy =     -482.00436411  energy(sigma->0) =     -482.00436411


--------------------------------------------------------------------------------------------------------




--------------------------------------- Iteration      1(  15)  ---------------------------------------


    POTLOK:  cpu time    0.0844: real time    0.0849
    SETDIJ:  cpu time    0.0101: real time    0.0101
     EDDAV:  cpu time    7.2924: real time    7.2948
 BZINTS: Fermi energy: -0.831083;280.000000 electrons
         Band energy:***********;  BLOECHL correction:  0.000000
       DOS:  cpu time    0.0161: real time    0.0161
    CHARGE:  cpu time    0.2458: real time    0.2458
    MIXING:  cpu time    0.0026: real time    0.0026
    --------------------------------------------
      LOOP:  cpu time    7.6514: real time    7.6542

 eigenvalue-minimisations  :  4040
 total energy-change (2. order) : 0.2397732E-01  (-0.1378794E-01)
 number of electron     279.9999976 magnetization      -0.0002640
 augmentation part       18.5425260 magnetization      -0.0006917

 Broyden mixing:
  rms(total) = 0.65718E-01    rms(broyden)= 0.65654E-01
  rms(prec ) = 0.92954E-01
  weight for this iteration     100.00

 eigenvalues of (default mixing * dielectric matrix)
  average eigenvalue GAMMA=   1.2170
  3.7188  2.4256  1.4197  0.8750  0.8750  0.8310  0.6131  0.5103  0.5103  0.3918

 Free energy of the ion-electron system (eV)
  ---------------------------------------------------
  alpha Z        PSCENC =       280.56837772
  Ewald energy   TEWEN  =     13786.08508624
  -Hartree energ DENC   =    -26934.46234527
  -exchange      EXHF   =         0.00000000
  -V(xc)+E(xc)   XCENC  =      1103.96237647
  PAW double counting   =     30544.46783476   -31043.99985970
  entropy T*S    EENTRO =         0.00000000
  eigenvalues    EBANDS =     -3390.33800920
  atomic energy  EATOM  =     15171.73615219
  Solvation  Ediel_sol  =         0.00000000
  ---------------------------------------------------
  free energy    TOTEN  =      -481.98038679 eV

  energy without entropy =     -481.98038679  energy(sigma->0) =     -481.98038679


--------------------------------------------------------------------------------------------------------




--------------------------------------- Iteration      1(  16)  ---------------------------------------


    POTLOK:  cpu time    0.0834: real time    0.0840
    SETDIJ:  cpu time    0.0102: real time    0.0102
     EDDAV:  cpu time    7.3478: real time    7.3487
 BZINTS: Fermi energy: -0.829226;280.000000 electrons
         Band energy:***********;  BLOECHL correction: -0.001860
       DOS:  cpu time    0.0224: real time    0.0224
    CHARGE:  cpu time    0.2614: real time    0.2614
    MIXING:  cpu time    0.0028: real time    0.0028
    --------------------------------------------
      LOOP:  cpu time    7.7280: real time    7.7294

 eigenvalue-minimisations  :  4088
 total energy-change (2. order) :-0.1245401E-01  (-0.1878939E-01)
 number of electron     279.9999976 magnetization       0.0018752
 augmentation part       18.5482659 magnetization      -0.0156920

 Broyden mixing:
  rms(total) = 0.13704E+00    rms(broyden)= 0.13683E+00
  rms(prec ) = 0.20043E+00
  weight for this iteration     100.00

 eigenvalues of (default mixing * dielectric matrix)
  average eigenvalue GAMMA=   1.1377
  3.7098  2.4876  1.4378  0.8870  0.8870  0.8751  0.6371  0.5246  0.5246  0.3945
  0.1498

 Free energy of the ion-electron system (eV)
  ---------------------------------------------------
  alpha Z        PSCENC =       280.56837772
  Ewald energy   TEWEN  =     13786.08508624
  -Hartree energ DENC   =    -26933.52298739
  -exchange      EXHF   =         0.00000000
  -V(xc)+E(xc)   XCENC  =      1103.90269885
  PAW double counting   =     30569.34126674   -31068.83034637
  entropy T*S    EENTRO =         0.00000000
  eigenvalues    EBANDS =     -3391.27308878
  atomic energy  EATOM  =     15171.73615219
  Solvation  Ediel_sol  =         0.00000000
  ---------------------------------------------------
  free energy    TOTEN  =      -481.99284080 eV

  energy without entropy =     -481.99284080  energy(sigma->0) =     -481.99284080


--------------------------------------------------------------------------------------------------------




--------------------------------------- Iteration      1(  17)  ---------------------------------------


    POTLOK:  cpu time    0.0851: real time    0.0856
    SETDIJ:  cpu time    0.0101: real time    0.0101
     EDDAV:  cpu time    6.8035: real time    6.8040
 BZINTS: Fermi energy: -0.830272;280.000000 electrons
         Band energy:***********;  BLOECHL correction: -0.001490
       DOS:  cpu time    0.0226: real time    0.0226
    CHARGE:  cpu time    0.2608: real time    0.2608
    MIXING:  cpu time    0.0030: real time    0.0030
    --------------------------------------------
      LOOP:  cpu time    7.1851: real time    7.1861

 eigenvalue-minimisations  :  3688
 total energy-change (2. order) : 0.1704986E-02  (-0.1739629E-02)
 number of electron     279.9999976 magnetization      -0.0017270
 augmentation part       18.5464966 magnetization      -0.0283269

 Broyden mixing:
  rms(total) = 0.12651E+00    rms(broyden)= 0.12650E+00
  rms(prec ) = 0.16264E+00
  weight for this iteration     100.00

 eigenvalues of (default mixing * dielectric matrix)
  average eigenvalue GAMMA=   1.1193
  3.7290  2.5659  1.4764  0.9715  0.9715  0.8068  0.8068  0.5171  0.5171  0.4138
  0.4138  0.2413

 Free energy of the ion-electron system (eV)
  ---------------------------------------------------
  alpha Z        PSCENC =       280.56837772
  Ewald energy   TEWEN  =     13786.08508624
  -Hartree energ DENC   =    -26933.68595507
  -exchange      EXHF   =         0.00000000
  -V(xc)+E(xc)   XCENC  =      1103.90731154
  PAW double counting   =     30569.73135686   -31069.22459318
  entropy T*S    EENTRO =         0.00000000
  eigenvalues    EBANDS =     -3391.10887212
  atomic energy  EATOM  =     15171.73615219
  Solvation  Ediel_sol  =         0.00000000
  ---------------------------------------------------
  free energy    TOTEN  =      -481.99113582 eV

  energy without entropy =     -481.99113582  energy(sigma->0) =     -481.99113582


--------------------------------------------------------------------------------------------------------




--------------------------------------- Iteration      1(  18)  ---------------------------------------


    POTLOK:  cpu time    0.0833: real time    0.0837
    SETDIJ:  cpu time    0.0099: real time    0.0099
     EDDAV:  cpu time    7.3228: real time    7.3234
 BZINTS: Fermi energy: -0.828738;280.000000 electrons
         Band energy:***********;  BLOECHL correction:  0.000000
       DOS:  cpu time    0.0153: real time    0.0153
    CHARGE:  cpu time    0.2529: real time    0.2529
    MIXING:  cpu time    0.0032: real time    0.0032
    --------------------------------------------
      LOOP:  cpu time    7.6874: real time    7.6885

 eigenvalue-minimisations  :  4072
 total energy-change (2. order) : 0.1225849E-01  (-0.1276773E-01)
 number of electron     279.9999977 magnetization      -0.0045228
 augmentation part       18.5439672 magnetization      -0.0050194

 Broyden mixing:
  rms(total) = 0.56013E-01    rms(broyden)= 0.55656E-01
  rms(prec ) = 0.80240E-01
  weight for this iteration     100.00

 eigenvalues of (default mixing * dielectric matrix)
  average eigenvalue GAMMA=   1.1244
  3.6171  2.6302  1.6454  1.1359  1.1359  0.8311  0.8311  0.7159  0.5106  0.5106
  0.4021  0.4021  0.2492

 Free energy of the ion-electron system (eV)
  ---------------------------------------------------
  alpha Z        PSCENC =       280.56837772
  Ewald energy   TEWEN  =     13786.08508624
  -Hartree energ DENC   =    -26933.97538984
  -exchange      EXHF   =         0.00000000
  -V(xc)+E(xc)   XCENC  =      1103.90506943
  PAW double counting   =     30592.22897064   -31091.73021535
  entropy T*S    EENTRO =         0.00000000
  eigenvalues    EBANDS =     -3390.79692836
  atomic energy  EATOM  =     15171.73615219
  Solvation  Ediel_sol  =         0.00000000
  ---------------------------------------------------
  free energy    TOTEN  =      -481.97887733 eV

  energy without entropy =     -481.97887733  energy(sigma->0) =     -481.97887733


--------------------------------------------------------------------------------------------------------




--------------------------------------- Iteration      1(  19)  ---------------------------------------


    POTLOK:  cpu time    0.0868: real time    0.0873
    SETDIJ:  cpu time    0.0099: real time    0.0099
     EDDAV:  cpu time    6.6817: real time    6.6823
 BZINTS: Fermi energy: -0.826082;280.000000 electrons
         Band energy:***********;  BLOECHL correction:  0.000000
       DOS:  cpu time    0.0157: real time    0.0157
    CHARGE:  cpu time    0.2525: real time    0.2544
    MIXING:  cpu time    0.0034: real time    0.0034
    --------------------------------------------
      LOOP:  cpu time    7.0501: real time    7.0530

 eigenvalue-minimisations  :  3608
 total energy-change (2. order) :-0.2183899E-03  (-0.8571108E-03)
 number of electron     279.9999977 magnetization       0.0048042
 augmentation part       18.5444273 magnetization       0.0048070

 Broyden mixing:
  rms(total) = 0.28360E-01    rms(broyden)= 0.28314E-01
  rms(prec ) = 0.40075E-01
  weight for this iteration     100.00

 eigenvalues of (default mixing * dielectric matrix)
  average eigenvalue GAMMA=   1.1771
  3.2866  3.0308  2.2641  1.4310  1.0011  0.8144  0.8144  0.8720  0.8720  0.5146
  0.5146  0.4072  0.4072  0.2499

 Free energy of the ion-electron system (eV)
  ---------------------------------------------------
  alpha Z        PSCENC =       280.56837772
  Ewald energy   TEWEN  =     13786.08508624
  -Hartree energ DENC   =    -26934.47830457
  -exchange      EXHF   =         0.00000000
  -V(xc)+E(xc)   XCENC  =      1103.91387309
  PAW double counting   =     30578.88854579   -31078.38990131
  entropy T*S    EENTRO =         0.00000000
  eigenvalues    EBANDS =     -3390.30292487
  atomic energy  EATOM  =     15171.73615219
  Solvation  Ediel_sol  =         0.00000000
  ---------------------------------------------------
  free energy    TOTEN  =      -481.97909572 eV

  energy without entropy =     -481.97909572  energy(sigma->0) =     -481.97909572


--------------------------------------------------------------------------------------------------------




--------------------------------------- Iteration      1(  20)  ---------------------------------------


[...]
   0.218E+02 -.837E+02 0.257E+03   -.216E+02 0.829E+02 -.260E+03   -.216E+00 0.813E+00 0.316E+01   0.568E-01 -.197E-02 -.309E-01
   -.851E+02 0.704E+02 0.215E+03   0.875E+02 -.696E+02 -.216E+03   -.251E+01 -.690E+00 0.124E+01   0.367E-01 -.299E-01 0.201E-01
   0.336E+02 -.146E+02 -.391E+02   -.336E+02 0.144E+02 0.372E+02   0.127E+00 0.133E+00 0.187E+01   -.112E-02 -.681E-02 -.677E-02
   0.158E+02 0.649E+01 -.196E+03   -.159E+02 -.805E+01 0.195E+03   0.130E+00 0.174E+01 0.951E+00   0.123E-01 0.187E-01 -.110E-02
   -.355E+02 -.134E+03 -.179E+03   0.319E+02 0.134E+03 0.179E+03   0.350E+01 -.452E+00 0.516E+00   0.355E-01 -.112E-01 0.862E-02
   0.169E+02 -.179E+02 -.571E+02   -.184E+02 0.187E+02 0.583E+02   0.162E+01 -.859E+00 -.120E+01   -.527E-02 0.145E-01 0.159E-01
   0.247E+02 -.271E+02 -.217E+03   -.242E+02 0.274E+02 0.220E+03   -.298E+00 -.150E+00 -.261E+01   -.576E-02 0.330E-01 -.375E-02
   0.237E+02 -.809E+01 -.465E+02   -.227E+02 0.661E+01 0.484E+02   -.996E+00 0.156E+01 -.186E+01   -.356E-01 -.863E-02 -.118E-01
   -.258E+02 0.892E+02 0.152E+03   0.268E+02 -.919E+02 -.150E+03   -.107E+01 0.243E+01 -.221E+01   0.385E-02 0.151E-01 -.140E-01
   0.127E+03 0.416E+02 0.431E+03   -.129E+03 -.411E+02 -.435E+03   0.261E+01 -.529E+00 0.529E+01   -.337E-01 -.247E-01 -.318E-01
   0.386E+02 0.716E+01 0.127E+03   -.409E+02 -.612E+01 -.126E+03   0.229E+01 -.922E+00 -.961E+00   0.726E-01 -.299E-01 -.467E-01
   0.870E+02 0.105E+03 0.176E+03   -.897E+02 -.106E+03 -.177E+03   0.277E+01 0.130E+01 0.667E+00   -.132E-01 -.269E-01 0.180E-01
   -.677E+02 -.208E+02 0.344E+03   0.686E+02 0.189E+02 -.347E+03   -.793E+00 0.189E+01 0.311E+01   -.814E-01 0.217E-02 -.221E-01
   -.234E+02 -.445E+02 -.576E+02   0.248E+02 0.464E+02 0.568E+02   -.160E+01 -.152E+01 0.641E+00   -.291E-01 0.304E-01 -.248E-01
   -.156E+02 0.473E+02 -.275E+03   0.156E+02 -.497E+02 0.274E+03   0.552E-01 0.237E+01 0.182E+01   0.377E-02 0.124E-01 0.103E-01
   -.355E+02 0.592E+02 -.181E+03   0.388E+02 -.579E+02 0.179E+03   -.333E+01 -.120E+01 0.190E+01   0.323E-02 0.937E-02 0.350E-03
   -.333E+02 -.836E+02 -.354E+03   0.312E+02 0.857E+02 0.353E+03   0.230E+01 -.163E+01 0.609E+00   -.262E-01 0.261E-01 -.775E-02
   0.148E+02 -.157E+03 0.217E+03   -.180E+02 0.159E+03 -.217E+03   0.331E+01 -.176E+01 0.154E-01   -.217E-01 -.451E-01 -.361E-01
   0.224E+02 -.424E+02 -.268E+03   -.222E+02 0.425E+02 0.271E+03   -.212E+00 -.141E+00 -.329E+01   0.599E-02 -.948E-02 0.130E-01
   -.442E+02 0.115E+02 -.142E+03   0.470E+02 -.109E+02 0.143E+03   -.287E+01 -.552E+00 -.129E+01   0.444E-01 -.179E-01 -.823E-02
   -.220E+02 0.102E+02 0.111E+03   0.245E+02 -.190E+02 -.998E+02   -.253E+01 0.886E+01 -.114E+02   -.545E-01 0.124E-01 0.274E-01
   -.170E+03 0.800E+02 0.615E+03   0.192E+03 -.756E+02 -.645E+03   -.223E+02 -.430E+01 0.294E+02   0.627E-01 -.344E-01 -.123E-01
   -.241E+02 -.122E+03 -.381E+03   0.254E+02 0.129E+03 0.403E+03   -.148E+01 -.699E+01 -.222E+02   0.405E-01 0.103E-01 -.101E-01
   0.552E+02 0.181E+02 0.531E+03   -.523E+02 -.318E+02 -.568E+03   -.301E+01 0.136E+02 0.361E+02   0.102E+00 -.162E-01 -.459E-01
   0.242E+01 -.658E+02 0.518E+03   -.638E+01 0.521E+02 -.553E+03   0.390E+01 0.137E+02 0.353E+02   0.392E-01 0.575E-02 -.478E-01
   0.963E+02 -.209E+02 0.830E+02   -.123E+03 0.400E+02 -.934E+02   0.264E+02 -.193E+02 0.107E+02   0.763E-01 -.880E-02 -.157E-01
   -.183E+03 -.756E+01 0.265E+03   0.213E+03 0.850E+01 -.284E+03   -.300E+02 -.870E+00 0.189E+02   0.546E-01 -.164E-01 0.140E-01
   0.583E+01 0.627E+02 0.244E+02   -.466E+01 -.648E+02 -.250E+02   -.118E+01 0.208E+01 0.581E+00   0.104E-01 -.323E-01 0.302E-01
   0.106E+03 0.150E+02 -.139E+03   -.129E+03 0.470E+01 0.134E+03   0.229E+02 -.198E+02 0.475E+01   0.133E-01 0.417E-02 0.272E-02
   0.616E+02 0.865E+01 -.228E+03   -.540E+02 -.793E+01 0.250E+03   -.745E+01 -.744E+00 -.212E+02   -.198E-01 -.706E-02 -.850E-02
   0.784E+02 -.215E+02 -.864E+02   -.103E+03 0.220E+02 0.101E+03   0.241E+02 -.536E+00 -.146E+02   -.341E-01 0.212E-01 0.345E-01
   0.136E+02 0.108E+02 -.572E+03   -.151E+02 -.320E+02 0.602E+03   0.104E+01 0.212E+02 -.297E+02   -.301E-01 0.266E-01 0.421E-02
   0.210E+02 0.420E+02 -.297E+03   -.211E+02 -.624E+02 0.306E+03   0.841E-01 0.203E+02 -.867E+01   -.234E-02 0.309E-01 0.204E-03
   0.729E+02 -.956E+01 -.263E+03   -.971E+02 0.228E+02 0.276E+03   0.242E+02 -.133E+02 -.134E+02   -.202E-01 0.248E-01 0.212E-01
   0.660E+01 0.118E+03 -.247E+03   0.425E+01 -.132E+03 0.280E+03   -.108E+02 0.134E+02 -.325E+02   -.604E-01 0.673E-03 0.279E-02
   -.679E+02 -.108E+03 0.235E+03   0.679E+02 0.109E+03 -.240E+03   -.404E-01 -.142E+01 0.424E+01   -.614E-01 -.274E-01 -.350E-01
   -.124E+01 0.167E+03 0.308E+03   0.589E+01 -.169E+03 -.311E+03   -.467E+01 0.265E+01 0.332E+01   0.325E-01 -.145E-02 -.578E-01
   -.127E+03 0.173E+02 0.920E+02   0.157E+03 -.422E+01 -.101E+03   -.303E+02 -.130E+02 0.899E+01   -.720E-01 0.141E-01 -.882E-02
   0.145E+03 0.147E+03 0.211E+03   -.172E+03 -.165E+03 -.225E+03   0.266E+02 0.180E+02 0.136E+02   -.823E-02 0.203E-02 0.907E-04
   -.103E+03 0.452E+02 0.539E+03   0.122E+03 -.579E+02 -.567E+03   -.194E+02 0.126E+02 0.282E+02   -.828E-01 0.291E-01 -.187E-01
   0.562E+01 0.110E+03 0.639E+03   -.279E+01 -.125E+03 -.673E+03   -.298E+01 0.157E+02 0.338E+02   -.108E+00 0.231E-01 0.270E-01
   0.243E+03 0.142E+03 0.480E+03   -.272E+03 -.146E+03 -.498E+03   0.288E+02 0.364E+01 0.181E+02   -.554E-01 -.420E-01 0.110E-01
   -.119E+03 -.220E+03 -.304E+03   0.149E+03 0.236E+03 0.305E+03   -.298E+02 -.164E+02 -.223E+00   -.372E-01 0.324E-01 -.201E-01
   -.344E+02 0.435E+02 0.181E+02   0.390E+02 -.527E+02 -.295E+02   -.453E+01 0.881E+01 0.114E+02   -.120E-01 0.466E-01 -.172E-01
   -.934E+02 0.386E+02 -.428E+03   0.102E+03 -.404E+02 0.439E+03   -.818E+01 0.170E+01 -.114E+02   0.759E-02 0.255E-01 0.632E-02
   -.209E+03 0.679E+02 -.407E+03   0.239E+03 -.616E+02 0.425E+03   -.299E+02 -.627E+01 -.185E+02   0.364E-01 -.461E-02 0.708E-02
   0.184E+03 -.241E+03 0.489E+03   -.211E+03 0.259E+03 -.503E+03   0.264E+02 -.182E+02 0.136E+02   0.500E-02 -.104E+00 -.423E-01
   0.554E+00 -.160E+03 -.548E+03   0.442E+01 0.167E+03 0.584E+03   -.494E+01 -.679E+01 -.362E+02   0.201E-01 -.114E-01 0.123E-01
   -.369E+02 -.168E+02 -.547E+03   0.374E+02 0.172E+02 0.584E+03   -.503E+00 -.406E+00 -.372E+02   0.325E-02 -.155E-03 0.818E-02
   0.103E+03 -.167E+03 0.197E+03   -.124E+03 0.194E+03 -.202E+03   0.203E+02 -.273E+02 0.468E+01   -.950E-03 -.302E-01 -.214E-01
   -.140E+03 -.940E+01 -.233E+03   0.172E+03 0.710E+01 0.249E+03   -.319E+02 0.232E+01 -.162E+02   0.567E-01 -.411E-01 -.347E-01
   -.554E+00 -.559E+02 0.443E+02   0.265E+01 0.575E+02 -.461E+02   -.220E+01 -.160E+01 0.174E+01   0.454E-01 -.396E-02 -.863E-02
   0.543E+02 0.263E+03 -.973E+03   -.485E+02 -.279E+03 0.993E+03   -.560E+01 0.164E+02 -.193E+02   -.617E-01 0.273E-01 0.449E-01
   0.132E+03 -.815E+02 -.157E+01   -.147E+03 0.928E+02 -.182E+02   0.152E+02 -.112E+02 0.197E+02   -.606E-02 0.250E-02 0.516E-02
   -.128E+03 0.798E+02 -.202E+03   0.161E+03 -.105E+03 0.245E+03   -.336E+02 0.249E+02 -.438E+02   -.758E-02 0.472E-02 0.140E-02
 -----------------------------------------------------------------------------------------------
   0.620E+02 -.322E+02 0.276E+02   -.369E-12 -.142E-12 0.341E-12   -.619E+02 0.323E+02 -.273E+02   -.168E+00 -.690E-01 -.306E+00


 POSITION                                       TOTAL-FORCE (eV/Angst)
 -----------------------------------------------------------------------------------
     -0.18055      1.38491      4.11432        -0.029090     -0.163012      0.058939
      0.62532      3.57190      5.12968         0.053208      0.032920     -0.044073
     -1.54645      3.10271      4.85954        -0.040013     -0.028473      0.055903
      4.93043      0.58366      6.62529        -0.141397      0.311590     -0.114688
      2.70001      4.10075      4.64669         0.046618      0.047735      0.100927
      1.39546      0.58595      5.04622        -0.001027     -0.012175      0.053669
     -3.42272      6.79034      6.25230         0.054507     -0.004593      0.009700
     -2.03215      8.34039      7.38428         0.018371      0.139078     -0.023783
      2.59490      0.68989      6.88628         0.012264     -0.009906      0.047649
      1.61464      5.06273      6.56184         0.063610      0.019696      0.052993
      0.18938      8.43391      7.91305         0.172128      0.025164     -0.117218
     -2.71409      4.65514      5.78610        -0.018398      0.051704      0.029786
      6.16116      1.94210      5.27420         0.027552     -0.240166     -0.142947
      6.29105      3.84020      3.27960         0.355883     -0.116141      0.458978
      4.81831      3.71881      4.89798         0.114009      0.077623      0.165159
      4.82063      9.19349      5.33207         0.020626     -0.103274      0.078329
      8.30486      3.73901      3.49783         0.001313      0.036310      0.079304
      7.24888      0.58516      6.75619        -0.161328      0.428209     -0.188778
      2.94478      6.43524      7.80021         0.078704      0.049417      0.039528
      4.35715      8.31687      7.32608        -0.064042      0.009039      0.043545
      2.30844      8.70981      8.28665         0.237649      0.409533     -0.380635
      6.97313      5.57313      4.44311         0.038288      0.029547      0.091879
      0.52042      0.13424      7.28677        -0.031713     -0.030727      0.022601
      3.99864      4.89992      6.57271         0.070472     -0.040348      0.035793
     -0.29828      2.51905      4.91490        -0.050576      0.057096     -0.093804
      1.07609      0.99913      3.83727        -0.084718      0.057968     -0.028952
      3.82943      0.21351      7.39283        -0.111705     -0.092323      0.021911
      3.80413      3.74581      4.04625        -0.021454     -0.113316     -0.036927
      1.53825      3.66322      4.18425        -0.027341      0.056765     -0.009368
      4.95455      1.58420      5.82449        -0.103553     -0.208743      0.194249
      2.59019      0.67975      5.57810        -0.071071      0.064559     -0.006499
      0.37847      0.11374      5.91557         0.005730      0.001506     -0.022017
     -3.14408      7.95336      6.86082        -0.036757     -0.060316     -0.011038
     -2.72259      5.67476      6.66468         0.034605     -0.033443     -0.027326
      0.50035      4.39337      6.22711        -0.001560     -0.041928     -0.008036
      1.14046      8.19225      8.75902        -0.430480     -0.020536      0.056848
     -0.95514      7.66932      7.84157         0.008137     -0.049743      0.019475
      1.67643      6.00861      7.49667        -0.044969     -0.034968      0.019109
     -1.97496      3.59614      6.02924        -0.032480     -0.044356     -0.071922
      8.02577      4.64025      4.58305        -0.015349     -0.001163     -0.053116
      5.92030      3.01059      4.38634         0.035911      0.442166     -0.420163
      7.32274      1.50781      5.77800         0.035057      0.064495      0.224066
      4.07918      8.30286      6.02035         0.002246      0.035348     -0.058941
     -1.88488      3.27000      3.60696         0.063650     -0.055268     -0.015627
      7.41563      3.50192      2.58085        -0.260480      0.104906     -0.019840
     10.16888      0.30054      4.25915         0.048244      0.148700     -0.029189
      8.20231      0.27295      7.60700         0.203992     -0.526063      0.258815
      0.36031      9.39711      6.88459        -0.000412     -0.388672      0.081413
      3.27089      7.75440      8.13531         0.021179     -0.069736     -0.008240
      4.06383      5.72833      7.59091        -0.007708      0.028323     -0.030405
      6.05798      5.22241      3.56919        -0.108802     -0.243400     -0.171611
      1.62343      0.68158      7.80862         0.049670      0.041207     -0.021319
      5.27282      8.95820      8.03706         0.029464     -0.003763     -0.029512
      7.04210      6.65552      5.25497        -0.032962     -0.004193     -0.112357
      5.03782      4.25386      6.09472         0.038842     -0.021018      0.014075
      2.77506      4.71949      5.89731        -0.044305     -0.034369     -0.077329
     -0.99622      5.51517      7.94867         0.034430      0.002048      0.066373
     -0.62326      5.50866     11.22453        -0.036588      0.038907     -0.067921
      0.00998      5.04068     12.05064         0.033919     -0.015429      0.062565
 -----------------------------------------------------------------------------------
    total drift:                               -0.000074     -0.001176      0.014833


--------------------------------------------------------------------------------------------------------



  FREE ENERGIE OF THE ION-ELECTRON SYSTEM (eV)
  ---------------------------------------------------
  free  energy   TOTEN  =      -486.88561077 eV

  energy  without entropy=     -486.88561077  energy(sigma->0) =     -486.88561077



--------------------------------------------------------------------------------------------------------


    POTLOK:  cpu time    0.2226: real time    0.2227


--------------------------------------------------------------------------------------------------------


     LOOP+:  cpu time  184.5178: real time  184.6169
    4ORBIT:  cpu time    0.0000: real time    0.0000



 total charge     

# of ion       s       p       d       tot
------------------------------------------
    1        0.862   1.691   0.000   2.553
    2        0.851   1.731   0.000   2.581
    3        0.876   1.781   0.000   2.657
    4        0.865   1.782   0.000   2.647
    5        0.876   1.767   0.000   2.643
    6        0.869   1.760   0.000   2.629
    7        0.855   1.734   0.000   2.588
    8        0.857   1.724   0.000   2.581
    9        0.867   1.756   0.000   2.622
   10        0.860   1.759   0.000   2.619
   11        0.859   1.731   0.000   2.590
   12        0.874   1.783   0.000   2.657
   13        0.833   1.720   0.000   2.553
   14        0.845   1.637   0.000   2.482
   15        0.876   1.751   0.000   2.627
   16        0.860   1.728   0.000   2.588
   17        0.876   1.756   0.000   2.632
   18        0.853   1.719   0.000   2.572
   19        0.843   1.724   0.000   2.567
   20        0.857   1.708   0.000   2.565
   21        0.855   1.740   0.000   2.595
   22        0.859   1.734   0.000   2.593
   23        0.867   1.738   0.000   2.605
   24        0.871   1.770   0.000   2.641
   25        1.239   2.758   0.000   3.997
   26        1.272   2.648   0.000   3.920
   27        1.238   2.703   0.000   3.941
   28        1.293   2.659   0.000   3.952
   29        1.285   2.657   0.000   3.942
   30        1.273   2.682   0.000   3.955
   31        1.282   2.697   0.000   3.979
   32        1.230   2.765   0.000   3.994
   33        1.258   2.738   0.000   3.996
   34        1.248   2.669   0.000   3.917
   35        1.248   2.634   0.000   3.883
   36        1.279   2.651   0.000   3.930
   37        1.240   2.672   0.000   3.912
   38        1.250   2.645   0.000   3.896
   39        1.279   2.667   0.000   3.946
   40        1.230   2.768   0.000   3.998
   41        1.219   2.728   0.000   3.946
   42        1.258   2.636   0.000   3.894
   43        1.266   2.641   0.000   3.908
   44        1.286   2.671   0.000   3.958
   45        1.275   2.631   0.000   3.906
   46        1.259   2.629   0.000   3.888
   47        1.262   2.658   0.000   3.920
   48        1.226   2.745   0.000   3.971
   49        1.231   2.727   0.000   3.957
   50        1.275   2.660   0.000   3.935
   51        1.263   2.591   0.000   3.854
   52        1.276   2.637   0.000   3.913
   53        1.276   2.647   0.000   3.924
   54        1.263   2.635   0.000   3.897
   55        1.280   2.670   0.000   3.950
   56        1.226   2.782   0.000   4.008
   57        1.371   0.599  10.030  12.000
   58        1.036   1.449   0.000   2.485
   59        1.642   3.534   0.000   5.176
--------------------------------------------------
tot         64.996 133.010  10.030 208.035



 magnetization (x)

# of ion       s       p       d       tot
------------------------------------------
    1       -0.000  -0.001   0.000  -0.001
    2       -0.000  -0.001   0.000  -0.001
    3       -0.000   0.000   0.000  -0.000
    4       -0.000  -0.000   0.000  -0.000
    5       -0.000  -0.000   0.000  -0.000
    6       -0.000  -0.000   0.000  -0.000
    7        0.000   0.000   0.000   0.000
    8       -0.000   0.000   0.000   0.000
    9       -0.000  -0.000   0.000  -0.000
   10        0.000   0.000   0.000   0.000
   11       -0.000   0.000   0.000   0.000
   12       -0.000  -0.000   0.000  -0.000
   13       -0.000  -0.000   0.000  -0.000
   14       -0.000  -0.000   0.000  -0.000
   15       -0.000  -0.000   0.000  -0.000
   16       -0.000  -0.000   0.000  -0.000
   17       -0.000  -0.000   0.000  -0.000
   18        0.000   0.000   0.000   0.000
   19        0.000   0.001   0.000   0.001
   20       -0.000  -0.000   0.000  -0.000
   21        0.000   0.001   0.000   0.001
   22       -0.000  -0.000   0.000  -0.000
   23       -0.000  -0.000   0.000  -0.000
   24        0.000   0.000   0.000   0.000
   25        0.000   0.000   0.000   0.000
   26       -0.000  -0.000   0.000  -0.000
   27       -0.000  -0.000   0.000  -0.000
   28        0.000   0.000   0.000   0.000
   29        0.000  -0.000   0.000  -0.000
   30        0.000   0.000   0.000   0.000
   31       -0.000  -0.000   0.000  -0.000
   32        0.000   0.000   0.000   0.000
   33        0.000   0.000   0.000   0.000
   34        0.000   0.000   0.000   0.000
   35       -0.000  -0.000   0.000  -0.000
   36       -0.000  -0.000   0.000  -0.000
   37        0.000   0.000   0.000   0.000
   38       -0.000  -0.000   0.000  -0.000
   39       -0.000  -0.000   0.000  -0.000
   40       -0.000  -0.000   0.000  -0.000
   41       -0.000  -0.000   0.000  -0.000
   42       -0.000  -0.000   0.000  -0.000
   43       -0.000   0.000   0.000   0.000
   44       -0.000  -0.000   0.000  -0.000
   45       -0.000  -0.000   0.000  -0.000
   46       -0.000  -0.000   0.000  -0.000
   47       -0.000  -0.001   0.000  -0.001
   48        0.000   0.000   0.000   0.000
   49       -0.000  -0.000   0.000  -0.000
   50        0.000   0.000   0.000   0.000
   51       -0.000  -0.000   0.000  -0.000
   52       -0.000  -0.000   0.000  -0.000
   53        0.000   0.000   0.000   0.000
   54        0.000   0.000   0.000   0.000
   55       -0.000  -0.000   0.000  -0.000
   56        0.000   0.000   0.000   0.000
   57       -0.000  -0.000  -0.000  -0.000
   58       -0.000  -0.000   0.000  -0.000
   59        0.000  -0.000   0.000  -0.000
--------------------------------------------------
tot         -0.000  -0.001  -0.000  -0.002

 BZINTS: Fermi energy: -0.823212;280.000000 electrons
         Band energy:***********;  BLOECHL correction: -0.001043

 total amount of memory used by VASP MPI-rank0    65629. kBytes
=======================================================================

   base      :      30000. kBytes
   nonl-proj :      10578. kBytes
   fftplans  :       2121. kBytes
   grid      :       6401. kBytes
   one-center:        155. kBytes
   wavefun   :      16374. kBytes

  
  
 General timing and accounting informations for this job:
 ========================================================
  
                  Total CPU time used (sec):      196.333
                            User time (sec):      195.245
                          System time (sec):        1.088
                         Elapsed time (sec):      196.792
  
                   Maximum memory used (kb):      190616.
                   Average memory used (kb):           0.
  
                          Minor page faults:        49529
                          Major page faults:            0
                 Voluntary context switches:          593
