       N       E                     dE             d eps       ncg     rms          rms(c)
DAV:   1     0.260879155470E+04    0.26088E+04   -0.99268E+04  4248   0.109E+03
DAV:   2     0.131874060431E+03   -0.24769E+04   -0.23624E+04  4944   0.270E+02
DAV:   3    -0.493409541004E+03   -0.62528E+03   -0.62061E+03  4104   0.147E+02
DAV:   4    -0.522281677838E+03   -0.28872E+02   -0.28134E+02  4232   0.439E+01
DAV:   5    -0.523496098673E+03   -0.12144E+01   -0.11999E+01  4832   0.789E+00    0.421E+01
DAV:   6    -0.495237400913E+03    0.28259E+02   -0.68997E+01  4400   0.253E+01    0.266E+01
DAV:   7    -0.496493629726E+03   -0.12562E+01   -0.13948E+02  4512   0.201E+01    0.202E+01
DAV:   8    -0.488147774164E+03    0.83459E+01   -0.95092E+00  4392   0.135E+01    0.152E+01
DAV:   9    -0.491810850289E+03   -0.36631E+01   -0.85248E+01  4240   0.134E+01    0.116E+01
DAV:  10    -0.488053772473E+03    0.37571E+01   -0.44335E+00  4120   0.831E+00    0.828E+00
DAV:  11    -0.487734611483E+03    0.31916E+00   -0.21100E+01  4360   0.631E+00    0.655E+00
DAV:  12    -0.487302436671E+03    0.43217E+00   -0.11499E+01  4016   0.451E+00    0.648E+00
DAV:  13    -0.487175691271E+03    0.12675E+00   -0.93777E+00  4056   0.262E+00    0.954E+00
DAV:  14    -0.487251865124E+03   -0.76174E-01   -0.11519E-01  3960   0.866E-01    0.964E+00
DAV:  15    -0.487297203472E+03   -0.45338E-01   -0.59897E-03  4632   0.250E-01    0.970E+00
DAV:  16    -0.487095108628E+03    0.20209E+00   -0.46087E+00  4720   0.137E+00    0.624E+00
DAV:  17    -0.486745372102E+03    0.34974E+00   -0.17874E+00  4576   0.151E+00    0.547E+00
DAV:  18    -0.486989592936E+03   -0.24422E+00   -0.58718E+00  4208   0.116E+00    0.610E+00
DAV:  19    -0.486788898989E+03    0.20069E+00   -0.65257E-02  4056   0.713E-01    0.540E+00
DAV:  20    -0.486756564505E+03    0.32334E-01   -0.44529E-01  4136   0.369E-01    0.503E+00
DAV:  21    -0.486737840571E+03    0.18724E-01   -0.90033E-02  4044   0.337E-01    0.401E+00
DAV:  22    -0.486722384827E+03    0.15456E-01   -0.28270E-02  3732   0.202E-01    0.309E+00
DAV:  23    -0.486729098841E+03   -0.67140E-02   -0.23631E-01  4152   0.182E-01    0.334E+00
DAV:  24    -0.486750503598E+03   -0.21405E-01   -0.51479E-01  3972   0.287E-01    0.442E+00
DAV:  25    -0.486756824289E+03   -0.63207E-02   -0.86778E-01  3848   0.309E-01    0.496E+00
DAV:  26    -0.486737022222E+03    0.19802E-01   -0.52289E-01  3736   0.326E-01    0.353E+00
DAV:  27    -0.486741878702E+03   -0.48565E-02   -0.48947E-01  3704   0.269E-01    0.455E+00
DAV:  28    -0.486717397169E+03    0.24482E-01   -0.11261E-01  3800   0.217E-01    0.170E+00
DAV:  29    -0.486737086996E+03   -0.19690E-01   -0.17921E-01  3852   0.161E-01    0.448E+00
DAV:  30    -0.486706890263E+03    0.30197E-01   -0.97408E-02  3712   0.183E-01    0.108E+00
DAV:  31    -0.486711972688E+03   -0.50824E-02   -0.16666E-02  3868   0.133E-01    0.239E+00
DAV:  32    -0.486705743977E+03    0.62287E-02   -0.32007E-03  3240   0.874E-02    0.177E+00
DAV:  33    -0.486703754108E+03    0.19899E-02   -0.22154E-03  3224   0.968E-02    0.225E+00
DAV:  34    -0.486695282090E+03    0.84720E-02   -0.16517E-03  4072   0.177E-01    0.209E+00
DAV:  35    -0.486685793924E+03    0.94882E-02   -0.20435E-02  4568   0.215E-01    0.633E-01
DAV:  36    -0.486686380222E+03   -0.58630E-03   -0.23025E-02  4204   0.164E-01    0.208E+00
DAV:  37    -0.486678167019E+03    0.82132E-02   -0.21700E-02  3616   0.171E-01    0.576E-01
DAV:  38    -0.486681199522E+03   -0.30325E-02   -0.18446E-02  3792   0.906E-02    0.193E+00
DAV:  39    -0.486679855853E+03    0.13437E-02   -0.15452E-04  2552   0.500E-02    0.196E+00
DAV:  40    -0.486679556974E+03    0.29888E-03   -0.44780E-05  2240   0.156E-02    0.202E+00
DAV:  41    -0.486678360688E+03    0.11963E-02   -0.14833E-03  2072   0.132E-02    0.157E+00
DAV:  42    -0.486677701134E+03    0.65955E-03   -0.58869E-03  2664   0.732E-02    0.144E+00
DAV:  43    -0.486678166985E+03   -0.46585E-03   -0.16192E-03  2428   0.327E-02    0.151E+00
DAV:  44    -0.486677789048E+03    0.37794E-03   -0.17689E-03  2240   0.275E-02    0.138E+00
DAV:  45    -0.486676885201E+03    0.90385E-03   -0.17834E-02  2228   0.487E-02    0.365E-01
DAV:  46    -0.486678062803E+03   -0.11776E-02   -0.13986E-03  2476   0.509E-02    0.500E-01
DAV:  47    -0.486679338382E+03   -0.12756E-02   -0.22061E-02  2240   0.403E-02    0.163E+00
DAV:  48    -0.486677293671E+03    0.20447E-02   -0.89491E-03  2504   0.686E-02    0.387E-01
DAV:  49    -0.486678338558E+03   -0.10449E-02   -0.21914E-03  2068   0.328E-02    0.911E-01
DAV:  50    -0.486677801730E+03    0.53683E-03   -0.15558E-03  2096   0.247E-02    0.514E-01
DAV:  51    -0.486678075714E+03   -0.27398E-03   -0.69382E-04  2064   0.202E-02    0.527E-01
DAV:  52    -0.486678091801E+03   -0.16087E-04   -0.18222E-04  2000   0.118E-02
   1 F= -.49038050E+03 E0= -.49038050E+03  d E =0.000000E+00  mag=    -0.0000
