       N       E                     dE             d eps       ncg     rms          rms(c)
DAV:   1     0.236907422522E+04    0.23691E+04   -0.89037E+04  3968   0.105E+03
DAV:   2     0.227299705041E+03   -0.21418E+04   -0.20483E+04  5080   0.239E+02
DAV:   3    -0.388233290434E+03   -0.61553E+03   -0.60896E+03  4240   0.137E+02
DAV:   4    -0.425320920510E+03   -0.37088E+02   -0.35817E+02  4288   0.440E+01
DAV:   5    -0.427567458224E+03   -0.22465E+01   -0.22083E+01  5128   0.951E+00    0.318E+01
DAV:   6    -0.410881201370E+03    0.16686E+02   -0.77936E+01  4712   0.184E+01    0.175E+01
DAV:   7    -0.410578513176E+03    0.30269E+00   -0.16973E+01  4336   0.113E+01    0.130E+01
DAV:   8    -0.411035909467E+03   -0.45740E+00   -0.27653E+01  4864   0.105E+01    0.101E+01
DAV:   9    -0.410861424513E+03    0.17448E+00   -0.25516E+01  5096   0.819E+00    0.732E+00
DAV:  10    -0.409704079367E+03    0.11573E+01   -0.81209E+00  5328   0.672E+00    0.422E+00
DAV:  11    -0.409312676987E+03    0.39140E+00   -0.29915E+00  4800   0.411E+00    0.215E+00
DAV:  12    -0.409279415476E+03    0.33262E-01   -0.78721E-01  4216   0.218E+00    0.130E+00
DAV:  13    -0.409272843049E+03    0.65724E-02   -0.29123E-01  4552   0.126E+00    0.101E+00
DAV:  14    -0.409262352131E+03    0.10491E-01   -0.92872E-02  4632   0.770E-01    0.613E-01
DAV:  15    -0.409262123951E+03    0.22818E-03   -0.31061E-02  4328   0.539E-01    0.322E-01
DAV:  16    -0.409263105486E+03   -0.98153E-03   -0.18678E-02  4208   0.326E-01    0.264E-01
DAV:  17    -0.409266691375E+03   -0.35859E-02   -0.14363E-02  4368   0.161E-01    0.362E-01
DAV:  18    -0.409262350010E+03    0.43414E-02   -0.14756E-02  4168   0.119E-01    0.260E-01
DAV:  19    -0.409260105647E+03    0.22444E-02   -0.21142E-02  4520   0.122E-01    0.145E-01
DAV:  20    -0.409260161640E+03   -0.55993E-04   -0.51457E-03  4072   0.116E-01    0.124E-01
DAV:  21    -0.409260890410E+03   -0.72877E-03   -0.32275E-03  3280   0.912E-02    0.692E-02
DAV:  22    -0.409260484997E+03    0.40541E-03   -0.88376E-04  2424   0.525E-02    0.356E-02
DAV:  23    -0.409260594788E+03   -0.10979E-03   -0.28393E-04  2176   0.264E-02    0.327E-02
DAV:  24    -0.409260526042E+03    0.68746E-04   -0.15920E-04  2080   0.176E-02
   1 F= -.41228174E+03 E0= -.41228174E+03  d E =0.000000E+00  mag=     0.0031
