       N       E                     dE             d eps       ncg     rms          rms(c)
DAV:   1     0.245276463209E+04    0.24528E+04   -0.10716E+05  4208   0.107E+03
DAV:   2    -0.234833964743E+03   -0.26876E+04   -0.25674E+04  5288   0.278E+02
DAV:   3    -0.689526991960E+03   -0.45469E+03   -0.45196E+03  4464   0.121E+02
DAV:   4    -0.706154249951E+03   -0.16627E+02   -0.16505E+02  4464   0.283E+01
DAV:   5    -0.706678998691E+03   -0.52475E+00   -0.52348E+00  4944   0.427E+00    0.469E+01
DAV:   6    -0.706899379563E+03   -0.22038E+00   -0.94877E+01  4624   0.263E+01    0.742E+01
DAV:   7    -0.660237510843E+03    0.46662E+02   -0.56556E+01  4688   0.523E+01    0.257E+01
DAV:   8    -0.654121810121E+03    0.61157E+01   -0.36162E+01  4576   0.122E+01    0.235E+01
DAV:   9    -0.651973061768E+03    0.21487E+01   -0.69568E+01  4376   0.135E+01    0.234E+01
DAV:  10    -0.648516365943E+03    0.34567E+01   -0.11187E+01  4992   0.124E+01    0.989E+00
DAV:  11    -0.648766272904E+03   -0.24991E+00   -0.13372E+00  4592   0.189E+00    0.103E+01
DAV:  12    -0.648011686378E+03    0.75459E+00   -0.50871E+00  4840   0.302E+00    0.374E+00
DAV:  13    -0.648056307027E+03   -0.44621E-01   -0.97221E-02  4672   0.610E-01    0.509E+00
DAV:  14    -0.648074459912E+03   -0.18153E-01   -0.11505E-02  4288   0.285E-01    0.686E+00
DAV:  15    -0.648053610121E+03    0.20850E-01   -0.38241E-03  4032   0.182E-01    0.708E+00
DAV:  16    -0.648044649020E+03    0.89611E-02   -0.15411E-03  3440   0.667E-02    0.713E+00
DAV:  17    -0.648044005345E+03    0.64368E-03   -0.38844E-02  4424   0.205E-01    0.707E+00
DAV:  18    -0.648049332228E+03   -0.53269E-02   -0.34441E-03  4144   0.726E-02    0.686E+00
DAV:  19    -0.648086905525E+03   -0.37573E-01   -0.32956E-02  4784   0.228E-01    0.704E+00
DAV:  20    -0.648083481681E+03    0.34238E-02   -0.13719E-02  4176   0.137E-01    0.736E+00
DAV:  21    -0.648066538216E+03    0.16943E-01   -0.47830E-03  4256   0.118E-01    0.754E+00
DAV:  22    -0.648077485067E+03   -0.10947E-01   -0.17648E-03  3512   0.653E-02    0.754E+00
DAV:  23    -0.648047574910E+03    0.29910E-01   -0.41107E-02  4480   0.194E-01    0.767E+00
DAV:  24    -0.648030998712E+03    0.16576E-01   -0.10878E-01  4864   0.260E-01    0.632E+00
DAV:  25    -0.648073694031E+03   -0.42695E-01   -0.18304E-02  3944   0.222E-01    0.611E+00
DAV:  26    -0.648070594262E+03    0.30998E-02   -0.10600E-02  3184   0.843E-02    0.602E+00
DAV:  27    -0.648125880304E+03   -0.55286E-01   -0.82230E-01  4376   0.414E-01    0.616E+00
DAV:  28    -0.648294288084E+03   -0.16841E+00   -0.47097E-01  4792   0.505E-01    0.554E+00
DAV:  29    -0.648415538741E+03   -0.12125E+00   -0.24117E-01  4656   0.733E-01    0.600E+00
DAV:  30    -0.648419953100E+03   -0.44144E-02   -0.10543E-02  4536   0.187E-01    0.604E+00
DAV:  31    -0.648421534077E+03   -0.15810E-02   -0.22710E-03  4296   0.815E-02    0.623E+00
DAV:  32    -0.648361780986E+03    0.59753E-01   -0.21840E-02  4376   0.243E-01    0.640E+00
DAV:  33    -0.648364392735E+03   -0.26117E-02   -0.10965E-03  3968   0.616E-02    0.641E+00
DAV:  34    -0.648395146146E+03   -0.30753E-01   -0.68073E-02  4440   0.494E-01    0.571E+00
DAV:  35    -0.648192714060E+03    0.20243E+00   -0.20424E-01  4848   0.762E-01    0.500E+00
DAV:  36    -0.648074721630E+03    0.11799E+00   -0.10394E-01  5024   0.370E-01    0.514E+00
DAV:  37    -0.647999241705E+03    0.75480E-01   -0.93245E-02  4624   0.228E-01    0.463E+00
DAV:  38    -0.647988464372E+03    0.10777E-01   -0.25355E-02  4472   0.113E-01    0.457E+00
DAV:  39    -0.648001005229E+03   -0.12541E-01   -0.67811E-02  3888   0.224E-01    0.529E+00
DAV:  40    -0.648009067986E+03   -0.80628E-02   -0.15443E-02  3992   0.205E-01    0.547E+00
DAV:  41    -0.648000747880E+03    0.83201E-02   -0.12665E-01  4056   0.179E-01    0.484E+00
DAV:  42    -0.648002492277E+03   -0.17444E-02   -0.73286E-02  3856   0.128E-01    0.446E+00
DAV:  43    -0.647959363508E+03    0.43129E-01   -0.59422E-02  4096   0.245E-01    0.427E+00
DAV:  44    -0.647971826483E+03   -0.12463E-01   -0.47604E-03  3160   0.829E-02    0.458E+00
DAV:  45    -0.647970023142E+03    0.18033E-02   -0.19674E-02  3848   0.114E-01    0.426E+00
DAV:  46    -0.648009655059E+03   -0.39632E-01   -0.15446E-01  4592   0.164E-01    0.397E+00
DAV:  47    -0.647975878753E+03    0.33776E-01   -0.57949E-02  3984   0.249E-01    0.351E+00
DAV:  48    -0.647961076201E+03    0.14803E-01   -0.67091E-01  4368   0.500E-01    0.287E+00
DAV:  49    -0.648040301613E+03   -0.79225E-01   -0.12534E-01  4712   0.274E-01    0.360E+00
DAV:  50    -0.648056967674E+03   -0.16666E-01   -0.20682E-02  4376   0.160E-01    0.378E+00
DAV:  51    -0.648014342785E+03    0.42625E-01   -0.11902E+00  4504   0.688E-01    0.312E+00
DAV:  52    -0.648105032574E+03   -0.90690E-01   -0.84278E-02  4400   0.362E-01    0.283E+00
DAV:  53    -0.648074038552E+03    0.30994E-01   -0.29894E-02  4152   0.227E-01    0.276E+00
DAV:  54    -0.648068994959E+03    0.50436E-02   -0.26240E-02  4592   0.115E-01    0.270E+00
DAV:  55    -0.648126838733E+03   -0.57844E-01   -0.14288E-01  4320   0.252E-01    0.277E+00
DAV:  56    -0.648132438547E+03   -0.55998E-02   -0.28768E-02  4736   0.214E-01    0.303E+00
DAV:  57    -0.648097054028E+03    0.35385E-01   -0.13915E-02  4080   0.164E-01    0.300E+00
DAV:  58    -0.648050373704E+03    0.46680E-01   -0.42316E-02  4592   0.199E-01    0.279E+00
DAV:  59    -0.648071202184E+03   -0.20828E-01   -0.57156E-03  4104   0.131E-01    0.256E+00
DAV:  60    -0.648080038585E+03   -0.88364E-02   -0.12091E-02  4008   0.934E-02    0.236E+00
DAV:  61    -0.648074916621E+03    0.51220E-02   -0.45087E-03  3576   0.627E-02    0.234E+00
DAV:  62    -0.648075834959E+03   -0.91834E-03   -0.16501E-03  3056   0.345E-02    0.233E+00
DAV:  63    -0.648086714933E+03   -0.10880E-01   -0.13146E-03  2992   0.399E-02    0.227E+00
DAV:  64    -0.648099577710E+03   -0.12863E-01   -0.21466E-03  3512   0.493E-02    0.218E+00
DAV:  65    -0.648100011363E+03   -0.43365E-03   -0.71515E-05  2400   0.157E-02    0.217E+00
DAV:  66    -0.648108992821E+03   -0.89815E-02   -0.22078E-02  3896   0.845E-02    0.218E+00
DAV:  67    -0.648093347625E+03    0.15645E-01   -0.95086E-03  3440   0.819E-02    0.216E+00
DAV:  68    -0.648082937374E+03    0.10410E-01   -0.10016E-02  3512   0.664E-02    0.220E+00
DAV:  69    -0.648106787013E+03   -0.23850E-01   -0.59288E-03  3672   0.923E-02    0.202E+00
DAV:  70    -0.648129165748E+03   -0.22379E-01   -0.15498E-02  4184   0.959E-02    0.199E+00
DAV:  71    -0.648145382199E+03   -0.16216E-01   -0.68522E-03  4272   0.103E-01    0.201E+00
DAV:  72    -0.648144811603E+03    0.57060E-03   -0.24683E-04  2864   0.330E-02    0.202E+00
DAV:  73    -0.648145500123E+03   -0.68852E-03   -0.60737E-05  2528   0.137E-02    0.203E+00
DAV:  74    -0.648144979918E+03    0.52020E-03   -0.15652E-05  2112   0.101E-02    0.203E+00
DAV:  75    -0.648143766871E+03    0.12130E-02   -0.41422E-05  2112   0.107E-02    0.205E+00
DAV:  76    -0.648097273042E+03    0.46494E-01   -0.42082E-02  4224   0.186E-01    0.218E+00
DAV:  77    -0.648101634330E+03   -0.43613E-02   -0.14889E-03  3480   0.596E-02    0.210E+00
DAV:  78    -0.648100637853E+03    0.99648E-03   -0.17765E-03  2928   0.308E-02    0.207E+00
DAV:  79    -0.648101603566E+03   -0.96571E-03   -0.20970E-03  2864   0.336E-02    0.206E+00
DAV:  80    -0.648098676440E+03    0.29271E-02   -0.93286E-04  2896   0.281E-02    0.208E+00
DAV:  81    -0.648190467181E+03   -0.91791E-01   -0.34046E-01  4280   0.671E-01    0.173E+00
DAV:  82    -0.648182042092E+03    0.84251E-02   -0.65145E-02  4096   0.300E-01    0.148E+00
DAV:  83    -0.648173640025E+03    0.84021E-02   -0.51516E-02  4592   0.152E-01    0.124E+00
DAV:  84    -0.648179726567E+03   -0.60865E-02   -0.32138E-03  4472   0.143E-01    0.120E+00
DAV:  85    -0.648161271667E+03    0.18455E-01   -0.28225E-02  4352   0.178E-01    0.153E+00
DAV:  86    -0.648176776432E+03   -0.15505E-01   -0.16163E-02  4224   0.163E-01    0.152E+00
DAV:  87    -0.648179499348E+03   -0.27229E-02   -0.39632E-03  4128   0.907E-02    0.136E+00
DAV:  88    -0.648185116529E+03   -0.56172E-02   -0.67667E-03  4184   0.907E-02    0.119E+00
DAV:  89    -0.648185546214E+03   -0.42968E-03   -0.67997E-03  3360   0.614E-02    0.108E+00
DAV:  90    -0.648189274466E+03   -0.37283E-02   -0.35742E-03  3408   0.565E-02    0.972E-01
DAV:  91    -0.648193320950E+03   -0.40465E-02   -0.46248E-03  3784   0.883E-02    0.902E-01
DAV:  92    -0.648193032683E+03    0.28827E-03   -0.24462E-04  2752   0.372E-02    0.906E-01
DAV:  93    -0.648192531837E+03    0.50085E-03   -0.54480E-04  2696   0.266E-02    0.909E-01
DAV:  94    -0.648192620029E+03   -0.88193E-04   -0.14114E-05  2088   0.963E-03
   1 F= -.65461252E+03 E0= -.65461252E+03  d E =0.000000E+00  mag=    -0.1826
