 vasp.5.4.4.18Apr17-6-g9f103f2a35 (build Nov  8 2022 18:58:45) complex           
 executed on             LinuxGNU date 2023.04.13  15:54:37
 running on   48 total cores
 distrk:  each k-point on   48 cores,    1 groups
 distr:  one band on NCORES_PER_BAND=  12 cores,    4 groups


--------------------------------------------------------------------------------------------------------


 INCAR:
 POTCAR:    PAW_PBE C 08Apr2002                   
 POTCAR:    PAW_PBE N 08Apr2002                   
 POTCAR:    PAW_PBE Ge_d 03Jul2007                
 POTCAR:    PAW_PBE C 08Apr2002                   
 POTCAR:    PAW_PBE O 08Apr2002                   
 POTCAR:    PAW_PBE C 08Apr2002                   
   SHA256 =  253f7b50bb8d59471dbedb8285d89021f4a42ed1a2c5d38a03a736e69125dd95 C/
   COPYR  = (c) Copyright 08Apr2002 Georg Kresse                                
   COPYR  = This file is part of the software VASP. Any use, copying, and all ot
   COPYR  = If you do not have a valid VASP license, you may not use, copy or di
   VRHFIN =C: s2p2                                                              
   LEXCH  = PE                                                                  
   EATOM  =   147.1560 eV,   10.8157 Ry                                         
                                                                                
   TITEL  = PAW_PBE C 08Apr2002                                                 
   LULTRA =        F    use ultrasoft PP ?                                      
   IUNSCR =        1    unscreen: 0-lin 1-nonlin 2-no                           
   RPACOR =    1.200    partial core radius                                     
   POMASS =   12.011; ZVAL   =    4.000    mass and valenz                      
   RCORE  =    1.500    outmost cutoff radius                                   
   RWIGS  =    1.630; RWIGS  =    0.863    wigner-seitz radius (au A)           
   ENMAX  =  400.000; ENMIN  =  300.000 eV                                      
   ICORE  =        2    local potential                                         
   LCOR   =        T    correct aug charges                                     
   LPAW   =        T    paw PP                                                  
   EAUG   =  644.873                                                            
   DEXC   =    0.000                                                            
   RMAX   =    1.529    core radius for proj-oper                               
   RAUG   =    1.300    factor for augmentation sphere                          
   RDEP   =    1.501    radius for radial grids                                 
   RDEPT  =    1.300    core radius for aug-charge                              
                                                                                
   Atomic configuration                                                         
    4 entries                                                                   
     n  l   j            E        occ.                                          
     1  0  0.50      -273.3789   2.0000                                         
     2  0  0.50       -13.7508   2.0000                                         
     2  1  0.50        -5.2854   2.0000                                         
     3  2  1.50        -5.4423   0.0000                                         
   Description                                                                  
     l       E           TYP  RCUT    TYP  RCUT                                 
     0    -13.7508458     23  1.200                                             
     0     -8.2022199     23  1.200                                             
     1     -5.2854383     23  1.500                                             
     1     34.0145650     23  1.500                                             
     2     -5.4423304      7  1.500                                             
  local pseudopotential read in
  partial core-charges read in
  partial kinetic energy density read in
  atomic valenz-charges read in
  non local Contribution for L=           0  read in
    real space projection operators read in
  non local Contribution for L=           0  read in
    real space projection operators read in
  non local Contribution for L=           1  read in
    real space projection operators read in
  non local Contribution for L=           1  read in
    real space projection operators read in
    PAW grid and wavefunctions read in

   number of l-projection  operators is LMAX  =           4
   number of lm-projection operators is LMMAX =           8

 POTCAR:    PAW_PBE N 08Apr2002                   
   SHA256 =  e053789ff3a61a86a1b75d8a110fcc91f86041011e7b0817c7c99e4e8a6349d7 N/
   COPYR  = (c) Copyright 08Apr2002 Georg Kresse                                
   COPYR  = This file is part of the software VASP. Any use, copying, and all ot
   COPYR  = If you do not have a valid VASP license, you may not use, copy or di
   VRHFIN =N: s2p3                                                              
   LEXCH  = PE                                                                  
   EATOM  =   264.5486 eV,   19.4438 Ry                                         
                                                                                
   TITEL  = PAW_PBE N 08Apr2002                                                 
   LULTRA =        F    use ultrasoft PP ?                                      
   IUNSCR =        1    unscreen: 0-lin 1-nonlin 2-no                           
   RPACOR =    1.200    partial core radius                                     
   POMASS =   14.001; ZVAL   =    5.000    mass and valenz                      
   RCORE  =    1.500    outmost cutoff radius                                   
   RWIGS  =    1.400; RWIGS  =    0.741    wigner-seitz radius (au A)           
   ENMAX  =  400.000; ENMIN  =  300.000 eV                                      
   ICORE  =        2    local potential                                         
   LCOR   =        T    correct aug charges                                     
   LPAW   =        T    paw PP                                                  
   EAUG   =  627.112                                                            
   DEXC   =    0.000                                                            
   RMAX   =    1.529    core radius for proj-oper                               
   RAUG   =    1.300    factor for augmentation sphere                          
   RDEP   =    1.514    radius for radial grids                                 
   RDEPT  =    1.338    core radius for aug-charge                              
                                                                                
   Atomic configuration                                                         
    4 entries                                                                   
     n  l   j            E        occ.                                          
     1  0  0.50      -384.7179   2.0000                                         
     2  0  0.50       -18.5828   2.0000                                         
     2  1  0.50        -7.0898   3.0000                                         
     3  2  1.50        -6.8029   0.0000                                         
   Description                                                                  
     l       E           TYP  RCUT    TYP  RCUT                                 
     0    -18.5828119     23  1.200                                             
     0    -13.5018863     23  1.200                                             
     1     -7.0897853     23  1.500                                             
     1      9.5240782     23  1.500                                             
     2     -6.8029130      7  1.500                                             
  local pseudopotential read in
  partial core-charges read in
  partial kinetic energy density read in
  atomic valenz-charges read in
  non local Contribution for L=           0  read in
    real space projection operators read in
  non local Contribution for L=           0  read in
    real space projection operators read in
  non local Contribution for L=           1  read in
    real space projection operators read in
  non local Contribution for L=           1  read in
    real space projection operators read in
    PAW grid and wavefunctions read in

   number of l-projection  operators is LMAX  =           4
   number of lm-projection operators is LMMAX =           8

 POTCAR:    PAW_PBE Ge_d 03Jul2007                
   SHA256 =  944b26c40d2d7c4f4eb1ff3a2e8dbfdd7129146276cd341854bfd5c0e57780ed Ge
   COPYR  = (c) Copyright 03Jul2007 Georg Kresse                                
   COPYR  = This file is part of the software VASP. Any use, copying, and all ot
   COPYR  = If you do not have a valid VASP license, you may not use, copy or di
   VRHFIN =Ge: 3d4s4p                                                           
   LEXCH  = PE                                                                  
   EATOM  =  2596.2402 eV,  190.8183 Ry                                         
                                                                                
   TITEL  = PAW_PBE Ge_d 03Jul2007                                              
   LULTRA =        F    use ultrasoft PP ?                                      
   IUNSCR =        1    unscreen: 0-lin 1-nonlin 2-no                           
   RPACOR =    2.000    partial core radius                                     
   POMASS =   72.610; ZVAL   =   14.000    mass and valenz                      
   RCORE  =    2.300    outmost cutoff radius                                   
   RWIGS  =    2.300; RWIGS  =    1.217    wigner-seitz radius (au A)           
   ENMAX  =  310.294; ENMIN  =  232.720 eV                                      
   ICORE  =        3    local potential                                         
   LCOR   =        T    correct aug charges                                     
   LPAW   =        T    paw PP                                                  
   EAUG   =  531.356                                                            
   DEXC   =    0.000                                                            
   RMAX   =    2.342    core radius for proj-oper                               
   RAUG   =    1.300    factor for augmentation sphere                          
   RDEP   =    2.318    radius for radial grids                                 
   RDEPT  =    1.783    core radius for aug-charge                              
                                                                                
   Atomic configuration                                                         
    9 entries                                                                   
     n  l   j            E        occ.                                          
     1  0  0.50    -10959.8463   2.0000                                         
     2  0  0.50     -1371.6056   2.0000                                         
     2  1  1.50     -1198.4791   6.0000                                         
     3  0  0.50      -168.4733   2.0000                                         
     3  1  1.50      -115.6019   6.0000                                         
     3  2  2.50       -29.3106  10.0000                                         
     4  0  0.50       -11.7309   2.0000                                         
     4  1  0.50        -3.8952   2.0000                                         
     4  3  2.50        -4.0817   0.0000                                         
   Description                                                                  
     l       E           TYP  RCUT    TYP  RCUT                                 
     2    -29.3105938     23  2.200                                             
     2    -13.6058260     23  2.200                                             
     0    -11.7309493     23  2.300                                             
     0     -7.4578696     23  2.300                                             
     1     -3.8952261     23  2.300                                             
     1      6.1178114     23  2.300                                             
     3     -1.3605826     23  2.300                                             
  local pseudopotential read in
  partial core-charges read in
  partial kinetic energy density read in
  atomic valenz-charges read in
  non local Contribution for L=           2  read in
    real space projection operators read in
  non local Contribution for L=           2  read in
    real space projection operators read in
  non local Contribution for L=           0  read in
    real space projection operators read in
  non local Contribution for L=           0  read in
    real space projection operators read in
  non local Contribution for L=           1  read in
    real space projection operators read in
  non local Contribution for L=           1  read in
    real space projection operators read in
    PAW grid and wavefunctions read in

   number of l-projection  operators is LMAX  =           6
   number of lm-projection operators is LMMAX =          18

 POTCAR:    PAW_PBE C 08Apr2002                   
   SHA256 =  253f7b50bb8d59471dbedb8285d89021f4a42ed1a2c5d38a03a736e69125dd95 C/
   COPYR  = (c) Copyright 08Apr2002 Georg Kresse                                
   COPYR  = This file is part of the software VASP. Any use, copying, and all ot
   COPYR  = If you do not have a valid VASP license, you may not use, copy or di
   VRHFIN =C: s2p2                                                              
   LEXCH  = PE                                                                  
   EATOM  =   147.1560 eV,   10.8157 Ry                                         
                                                                                
   TITEL  = PAW_PBE C 08Apr2002                                                 
   LULTRA =        F    use ultrasoft PP ?                                      
   IUNSCR =        1    unscreen: 0-lin 1-nonlin 2-no                           
   RPACOR =    1.200    partial core radius                                     
   POMASS =   12.011; ZVAL   =    4.000    mass and valenz                      
   RCORE  =    1.500    outmost cutoff radius                                   
   RWIGS  =    1.630; RWIGS  =    0.863    wigner-seitz radius (au A)           
   ENMAX  =  400.000; ENMIN  =  300.000 eV                                      
   ICORE  =        2    local potential                                         
   LCOR   =        T    correct aug charges                                     
   LPAW   =        T    paw PP                                                  
   EAUG   =  644.873                                                            
   DEXC   =    0.000                                                            
   RMAX   =    1.529    core radius for proj-oper                               
   RAUG   =    1.300    factor for augmentation sphere                          
   RDEP   =    1.501    radius for radial grids                                 
   RDEPT  =    1.300    core radius for aug-charge                              
                                                                                
   Atomic configuration                                                         
    4 entries                                                                   
     n  l   j            E        occ.                                          
     1  0  0.50      -273.3789   2.0000                                         
     2  0  0.50       -13.7508   2.0000                                         
     2  1  0.50        -5.2854   2.0000                                         
     3  2  1.50        -5.4423   0.0000                                         
   Description                                                                  
     l       E           TYP  RCUT    TYP  RCUT                                 
     0    -13.7508458     23  1.200                                             
     0     -8.2022199     23  1.200                                             
     1     -5.2854383     23  1.500                                             
     1     34.0145650     23  1.500                                             
     2     -5.4423304      7  1.500                                             
  local pseudopotential read in
  partial core-charges read in
  partial kinetic energy density read in
  atomic valenz-charges read in
  non local Contribution for L=           0  read in
    real space projection operators read in
  non local Contribution for L=           0  read in
    real space projection operators read in
  non local Contribution for L=           1  read in
    real space projection operators read in
  non local Contribution for L=           1  read in
    real space projection operators read in
    PAW grid and wavefunctions read in

   number of l-projection  operators is LMAX  =           4
   number of lm-projection operators is LMMAX =           8

 POTCAR:    PAW_PBE O 08Apr2002                   
   SHA256 =  818f92134a0a090dccd8ba1447fa70422a3b330e708bb4f08108d8ae51209ddf O/
   COPYR  = (c) Copyright 08Apr2002 Georg Kresse                                
   COPYR  = This file is part of the software VASP. Any use, copying, and all ot
   COPYR  = If you do not have a valid VASP license, you may not use, copy or di
   VRHFIN =O: s2p4                                                              
   LEXCH  = PE                                                                  
   EATOM  =   432.3788 eV,   31.7789 Ry                                         
                                                                                
   TITEL  = PAW_PBE O 08Apr2002                                                 
   LULTRA =        F    use ultrasoft PP ?                                      
   IUNSCR =        1    unscreen: 0-lin 1-nonlin 2-no                           
   RPACOR =    1.200    partial core radius                                     
   POMASS =   16.000; ZVAL   =    6.000    mass and valenz                      
   RCORE  =    1.520    outmost cutoff radius                                   
   RWIGS  =    1.550; RWIGS  =    0.820    wigner-seitz radius (au A)           
   ENMAX  =  400.000; ENMIN  =  300.000 eV                                      
   ICORE  =        2    local potential                                         
   LCOR   =        T    correct aug charges                                     
   LPAW   =        T    paw PP                                                  
   EAUG   =  605.392                                                            
   DEXC   =    0.000                                                            
   RMAX   =    1.553    core radius for proj-oper                               
   RAUG   =    1.300    factor for augmentation sphere                          
   RDEP   =    1.550    radius for radial grids                                 
   RDEPT  =    1.329    core radius for aug-charge                              
                                                                                
   Atomic configuration                                                         
    4 entries                                                                   
     n  l   j            E        occ.                                          
     1  0  0.50      -514.6923   2.0000                                         
     2  0  0.50       -23.9615   2.0000                                         
     2  1  0.50        -9.0305   4.0000                                         
     3  2  1.50        -9.5241   0.0000                                         
   Description                                                                  
     l       E           TYP  RCUT    TYP  RCUT                                 
     0    -23.9615318     23  1.200                                             
     0     -9.5240782     23  1.200                                             
     1     -9.0304911     23  1.520                                             
     1      8.1634956     23  1.520                                             
     2     -9.5240782      7  1.500                                             
  local pseudopotential read in
  partial core-charges read in
  partial kinetic energy density read in
  kinetic energy density of atom read in
  atomic valenz-charges read in
  non local Contribution for L=           0  read in
    real space projection operators read in
  non local Contribution for L=           0  read in
    real space projection operators read in
  non local Contribution for L=           1  read in
    real space projection operators read in
  non local Contribution for L=           1  read in
    real space projection operators read in
    PAW grid and wavefunctions read in

   number of l-projection  operators is LMAX  =           4
   number of lm-projection operators is LMMAX =           8


 ----------------------------------------------------------------------------- 
|                                                                             |
|  ADVICE TO THIS USER RUNNING 'VASP/VAMP'   (HEAR YOUR MASTER'S VOICE ...):  |
|                                                                             |
|      You have a (more or less) 'large supercell' and for larger cells       |
|      it might be more efficient to use real space projection opertators     |
|      So try LREAL= Auto  in the INCAR   file.                               |
|      Mind:          For very  accurate calculation you might also keep the  |
|      reciprocal projection scheme          (i.e. LREAL=.FALSE.)             |
|                                                                             |
 ----------------------------------------------------------------------------- 

  PAW_PBE C 08Apr2002                   :
 energy of atom  1       EATOM= -147.1560
 kinetic energy error for atom=    0.0132 (will be added to EATOM!!)
  PAW_PBE N 08Apr2002                   :
 energy of atom  2       EATOM= -264.5486
 kinetic energy error for atom=    0.0298 (will be added to EATOM!!)
  PAW_PBE Ge_d 03Jul2007                :
 energy of atom  3       EATOM=-2596.2402
 kinetic energy error for atom=    0.0090 (will be added to EATOM!!)
  PAW_PBE C 08Apr2002                   :
 energy of atom  4       EATOM= -147.1560
 kinetic energy error for atom=    0.0132 (will be added to EATOM!!)
  PAW_PBE O 08Apr2002                   :
 energy of atom  5       EATOM= -432.3788
 kinetic energy error for atom=    0.0458 (will be added to EATOM!!)


 POSCAR: POSCAR-c3n4                             
  positions in direct lattice
  velocities in cartesian coordinates
 exchange correlation table for  LEXCH =        8
   RHO(1)=    0.500       N(1)  =     2000
   RHO(2)=  100.500       N(2)  =     4000



--------------------------------------------------------------------------------------------------------


 ion  position               nearest neighbor table
   1  0.103  0.211  0.425-  26 1.33  46 1.35  25 1.38
   2  0.290  0.405  0.438-  29 1.32  35 1.38  25 1.41
   3  0.102  0.392  0.425-  44 1.31  39 1.37  25 1.40
   4  0.448  0.065  0.523-  30 1.32  27 1.33  48 1.41
   5  0.464  0.421  0.412-  28 1.32  29 1.33  56 1.42
   6  0.114  0.052  0.462-  26 1.32  31 1.32  32 1.40
   7  0.083  0.706  0.508-  54 1.33  34 1.35  33 1.39
   8  0.282  0.883  0.530-  27 1.34  37 1.34  33 1.38
   9  0.113  0.899  0.529-  31 1.32  52 1.33  33 1.40
  10  0.447  0.546  0.528-  38 1.32  35 1.36  56 1.36
  11  0.446  0.879  0.513-  36 1.33  37 1.33  48 1.37
  12  0.070  0.531  0.492-  34 1.32  40 1.34  39 1.34
  13  0.622  0.224  0.477-  42 1.35  30 1.36  41 1.39
  14  0.776  0.390  0.382-  45 1.34  41 1.37  51 1.38
  15  0.616  0.399  0.440-  28 1.32  55 1.34  41 1.43
  16  0.936  0.051  0.477-  46 1.32  43 1.33  32 1.40
  17  0.942  0.392  0.376-  45 1.31  44 1.33  40 1.43
  18  0.630  0.068  0.532-  42 1.33  47 1.33  48 1.41
  19  0.615  0.704  0.578-  50 1.33  38 1.37  49 1.40
  20  0.794  0.901  0.563-  53 1.33  43 1.33  49 1.43
  21  0.611  0.889  0.560-  36 1.34  47 1.34  49 1.41
  22  0.931  0.568  0.419-  51 1.30  54 1.35  40 1.42
  23  0.968  0.922  0.577-  52 1.33  53 1.33  32 1.39
  24  0.626  0.550  0.521-  55 1.32  50 1.33  56 1.42
  25  0.166  0.335  0.425-   1 1.38   3 1.40   2 1.41
  26  0.165  0.157  0.419-   6 1.32   1 1.33
  27  0.336  0.001  0.549-   4 1.33   8 1.34
  28  0.527  0.374  0.385-  15 1.32   5 1.32
  29  0.354  0.380  0.385-   2 1.32   5 1.33
  30  0.508  0.180  0.504-   4 1.32  13 1.36
  31  0.156  0.979  0.461-   9 1.32   6 1.32
  32  0.009  0.012  0.511-  23 1.39  16 1.40   6 1.40
  33  0.160  0.825  0.533-   8 1.38   7 1.39   9 1.40
  34  0.111  0.629  0.543-  12 1.32   7 1.35
  35  0.330  0.488  0.510-  10 1.36   2 1.38  57 2.08
  36  0.504  0.822  0.521-  11 1.33  21 1.34
  37  0.329  0.818  0.507-  11 1.33   8 1.34
  38  0.495  0.637  0.587-  10 1.32  19 1.37
  39  0.127  0.471  0.497-  12 1.34   3 1.37  57 2.12
  40  0.982  0.497  0.432-  12 1.34  22 1.42  17 1.43
  41  0.669  0.328  0.424-  14 1.37  13 1.39  15 1.43
  42  0.690  0.181  0.504-  18 1.33  13 1.35
  43  0.821  0.976  0.491-  20 1.33  16 1.33
  44  0.019  0.357  0.362-   3 1.31  17 1.33
  45  0.830  0.333  0.354-  17 1.31  14 1.34
  46  0.985  0.156  0.435-  16 1.32   1 1.35
  47  0.673  0.008  0.574-  18 1.33  21 1.34
  48  0.507  0.002  0.514-  11 1.37   4 1.41  18 1.41
  49  0.670  0.829  0.582-  19 1.40  21 1.41  20 1.43
  50  0.681  0.657  0.561-  19 1.33  24 1.33
  51  0.826  0.513  0.382-  22 1.30  14 1.38
  52  0.033  0.873  0.595-  23 1.33   9 1.33
  53  0.863  0.880  0.616-  20 1.33  23 1.33
  54  0.996  0.683  0.449-   7 1.33  22 1.35
  55  0.669  0.480  0.508-  24 1.32  15 1.34
  56  0.513  0.509  0.483-  10 1.36  24 1.42   5 1.42
  57  0.273  0.586  0.582-  35 2.08  39 2.12
  58  0.286  0.595  0.798-  59 1.15
  59  0.218  0.505  0.831-  58 1.15


IMPORTANT INFORMATION: All symmetrisations will be switched off!
NOSYMM: (Re-)initialisation of all symmetry stuff for point group C_1.



 KPOINTS: K-Points                                

Automatic generation of k-mesh.
Space group operators:
 irot       det(A)        alpha          n_x          n_y          n_z        tau_x        tau_y        tau_z
    1     1.000000     0.000000     1.000000     0.000000     0.000000     0.000000     0.000000     0.000000
 
 Subroutine IBZKPT returns following result:
 ===========================================
 
 Found      5 irreducible k-points:
 
 Following reciprocal coordinates:
            Coordinates               Weight
  0.000000  0.000000  0.000000      1.000000
  0.333333  0.000000  0.000000      2.000000
  0.000000  0.333333  0.000000      2.000000
  0.333333  0.333333  0.000000      2.000000
 -0.333333  0.333333  0.000000      2.000000
 
 Following cartesian coordinates:
            Coordinates               Weight
  0.000000  0.000000  0.000000      1.000000
  0.024277  0.014368  0.000000      2.000000
  0.000396  0.028736  0.000000      2.000000
  0.024673  0.043104  0.000000      2.000000
 -0.023881  0.014368  0.000000      2.000000
 
 TETIRR: Found     24 inequivalent tetrahedra from       54


--------------------------------------------------------------------------------------------------------




 Dimension of arrays:
   k-points           NKPTS =      5   k-points in BZ     NKDIM =      5   number of bands    NBANDS=    172
   number of dos      NEDOS =   4000   number of ions     NIONS =     59
   non local maximal  LDIM  =      6   non local SUM 2l+1 LMDIM =     18
   total plane-waves  NPLWV = 392000
   max r-space proj   IRMAX =      1   max aug-charges    IRDMAX=   6385
   dimension x,y,z NGX =    70 NGY =   70 NGZ =   80
   dimension x,y,z NGXF=   140 NGYF=  140 NGZF=  160
   support grid    NGXF=   140 NGYF=  140 NGZF=  160
   ions per type =              24  32   1   1   1
   NGX,Y,Z   is equivalent  to a cutoff of   8.76,  8.92,  9.24 a.u.
   NGXF,Y,Z  is equivalent  to a cutoff of  17.51, 17.84, 18.47 a.u.

 SYSTEM =  unknown system                          
 POSCAR =  POSCAR-c3n4                             

 Startparameter for this run:
   NWRITE =      2    write-flag & timer
   PREC   = normal    normal or accurate (medium, high low for compatibility)
   ISTART =      0    job   : 0-new  1-cont  2-samecut
   ICHARG =      2    charge: 1-file 2-atom 10-const
   ISPIN  =      2    spin polarized calculation?
   LNONCOLLINEAR =      F non collinear calculations
   LSORBIT =      F    spin-orbit coupling
   INIWAV =      1    electr: 0-lowe 1-rand  2-diag
   LASPH  =      F    aspherical Exc in radial PAW
   METAGGA=      F    non-selfconsistent MetaGGA calc.

 Electronic Relaxation 1
   ENCUT  =  440.0 eV  32.34 Ry    5.69 a.u.  22.73 22.31 24.63*2*pi/ulx,y,z
   ENINI  =  440.0     initial cutoff
   ENAUG  =  644.9 eV  augmentation charge cutoff
   NELM   =    100;   NELMIN=  2; NELMDL= -5     # of ELM steps 
   EDIFF  = 0.1E-03   stopping-criterion for ELM
   LREAL  =      F    real-space projection
   NLSPLINE    = F    spline interpolate recip. space projectors
   LCOMPAT=      F    compatible to vasp.4.4
   GGA_COMPAT  = T    GGA compatible to vasp.4.4-vasp.4.6
   LMAXPAW     = -100 max onsite density
   LMAXMIX     =    2 max onsite mixed and CHGCAR
   VOSKOWN=      0    Vosko Wilk Nusair interpolation
   ROPT   =    0.00000   0.00000   0.00000   0.00000
   ROPT   =    0.00000
 Ionic relaxation
   EDIFFG = -.1E-01   stopping-criterion for IOM
   NSW    =      0    number of steps for IOM
   NBLOCK =      1;   KBLOCK =      1    inner block; outer block 
   IBRION =     -1    ionic relax: 0-MD 1-quasi-New 2-CG
   NFREE  =      0    steps in history (QN), initial steepest desc. (CG)
   ISIF   =      2    stress and relaxation
   IWAVPR =     10    prediction:  0-non 1-charg 2-wave 3-comb
   ISYM   =      0    0-nonsym 1-usesym 2-fastsym
   LCORR  =      T    Harris-Foulkes like correction to forces

   POTIM  = 0.5000    time-step for ionic-motion
   TEIN   =    0.0    initial temperature
   TEBEG  =    0.0;   TEEND  =   0.0 temperature during run
   SMASS  =  -3.00    Nose mass-parameter (am)
   estimated Nose-frequenzy (Omega)   =  0.10E-29 period in steps =****** mass=  -0.404E-26a.u.
   SCALEE = 1.0000    scale energy and forces
   NPACO  =    256;   APACO  = 16.0  distance and # of slots for P.C.
   PSTRESS=    0.0 pullay stress

  Mass of Ions in am
   POMASS =  12.01 14.00 72.61 12.01 16.00
  Ionic Valenz
   ZVAL   =   4.00  5.00 14.00  4.00  6.00
  Atomic Wigner-Seitz radii
   RWIGS  =  -1.00 -1.00 -1.00 -1.00 -1.00
  virtual crystal weights 
   VCA    =   1.00  1.00  1.00  1.00  1.00
   NELECT =     280.0000    total number of electrons
   NUPDOWN=      -1.0000    fix difference up-down

 DOS related values:
   EMIN   = -14.00;   EMAX   =  6.00  energy-range for DOS
   EFERMI =   0.00
   ISMEAR =    -5;   SIGMA  =   0.20  broadening in eV -4-tet -1-fermi 0-gaus

 Electronic relaxation 2 (details)
   IALGO  =     38    algorithm
   LDIAG  =      T    sub-space diagonalisation (order eigenvalues)
   LSUBROT=      F    optimize rotation matrix (better conditioning)
   TURBO    =      0    0=normal 1=particle mesh
   IRESTART =      0    0=no restart 2=restart with 2 vectors
   NREBOOT  =      0    no. of reboots
   NMIN     =      0    reboot dimension
   EREF     =   0.00    reference energy to select bands
   IMIX   =      4    mixing-type and parameters
     AMIX     =   0.25;   BMIX     =  0.00
     AMIX_MAG =   1.00;   BMIX_MAG =  0.00
     AMIN     =   0.10
     WC   =   100.;   INIMIX=   1;  MIXPRE=   1;  MAXMIX= -45

 Intra band minimization:
   WEIMIN = 0.0000     energy-eigenvalue tresh-hold
   EBREAK =  0.15E-06  absolut break condition
   DEPER  =   0.30     relativ break condition  

   TIME   =   0.40     timestep for ELM

  volume/ion in A,a.u.               =      36.12       243.75
  Fermi-wavevector in a.u.,A,eV,Ry     =   0.832264  1.572750  9.424249  0.692663
  Thomas-Fermi vector in A             =   1.945290

 Write flags
   LWAVE        =      F    write WAVECAR
   LDOWNSAMPLE  =      F    k-point downsampling of WAVECAR
   LCHARG       =      F    write CHGCAR
   LVTOT        =      F    write LOCPOT, total local potential
   LVHAR        =      F    write LOCPOT, Hartree potential only
   LELF         =      F    write electronic localiz. function (ELF)
   LORBIT       =     11    0 simple, 1 ext, 2 COOP (PROOUT), +10 PAW based schemes


 Dipole corrections
   LMONO  =      F    monopole corrections only (constant potential shift)
   LDIPOL =      F    correct potential (dipole corrections)
   IDIPOL =      0    1-x, 2-y, 3-z, 4-all directions 
   EPSILON=  1.0000000 bulk dielectric constant

 Exchange correlation treatment:
   GGA     =    --    GGA type
   LEXCH   =     8    internal setting for exchange type
   VOSKOWN=      0    Vosko Wilk Nusair interpolation
   LHFCALC =     F    Hartree Fock is set to
   LHFONE  =     F    Hartree Fock one center treatment
   AEXX    =    0.0000 exact exchange contribution

 Linear response parameters
   LEPSILON=     F    determine dielectric tensor
   LRPA    =     F    only Hartree local field effects (RPA)
   LNABLA  =     F    use nabla operator in PAW spheres
   LVEL    =     F    velocity operator in full k-point grid
   LINTERFAST=   F  fast interpolation
   KINTER  =     0    interpolate to denser k-point grid
   CSHIFT  =0.1000    complex shift for real part using Kramers Kronig
   OMEGAMAX=  -1.0    maximum frequency
   DEG_THRESHOLD= 0.2000000E-02 threshold for treating states as degnerate
   RTIME   =   -0.100 relaxation time in fs
  (WPLASMAI=    0.000 imaginary part of plasma frequency in eV, 0.658/RTIME)
   DFIELD  = 0.0000000 0.0000000 0.0000000 field for delta impulse in time

 Orbital magnetization related:
   ORBITALMAG=     F  switch on orbital magnetization
   LCHIMAG   =     F  perturbation theory with respect to B field
   DQ        =  0.001000  dq finite difference perturbation B field
   LLRAUG    =     F  two centre corrections for induced B field



--------------------------------------------------------------------------------------------------------


 Static calculation
 charge density and potential will be updated during run
 spin polarized calculation
 Variant of blocked Davidson
 Davidson routine will perform the subspace rotation
 perform sub-space diagonalisation
    after iterative eigenvector-optimisation
 modified Broyden-mixing scheme, WC =      100.0
 initial mixing is a Kerker type mixing with AMIX =  0.2500 and BMIX =      0.0001
 Hartree-type preconditioning will be used
 using additional bands           32
 reciprocal scheme for non local part
 use partial core corrections
 calculate Harris-corrections to forces   (improved forces if not selfconsistent)
 use gradient corrections 
 use of overlap-Matrix (Vanderbilt PP)
 Fermi weights with tetrahedron method with Bloechl corrections


--------------------------------------------------------------------------------------------------------


  energy-cutoff  :      440.00
  volume of cell :     2131.08
      direct lattice vectors                 reciprocal lattice vectors
    13.289687265 -0.183110855  0.000000000     0.075864968  0.044900119 -0.000000000
    -6.644843633 11.227383354  0.000000000     0.001237305  0.089800238 -0.000000000
     0.000000000  0.000000000 14.400000000    -0.000000000 -0.000000000  0.069444444

  length of vectors
    13.290948694 13.046382023 14.400000000     0.088156191  0.089808762  0.069444444



 k-points in units of 2pi/SCALE and weight: K-Points                                
   0.00000000  0.00000000  0.00000000       0.111
   0.02427679  0.01436804  0.00000000       0.222
   0.00039594  0.02873608  0.00000000       0.222
   0.02467273  0.04310411  0.00000000       0.222
  -0.02388085  0.01436804  0.00000000       0.222

 k-points in reciprocal lattice and weights: K-Points                                
   0.00000000  0.00000000  0.00000000       0.111
   0.33333333  0.00000000  0.00000000       0.222
   0.00000000  0.33333333  0.00000000       0.222
   0.33333333  0.33333333  0.00000000       0.222
  -0.33333333  0.33333333  0.00000000       0.222

 position of ions in fractional coordinates (direct lattice) 
   0.10328180  0.21097376  0.42516171
   0.28976462  0.40512016  0.43809584
   0.10182944  0.39200285  0.42511144
   0.44849332  0.06496359  0.52332591
   0.46435959  0.42102272  0.41229101
   0.11391552  0.05186599  0.46180265
   0.08327247  0.70591649  0.50751212
   0.28150624  0.88305447  0.53014264
   0.11331494  0.89937534  0.52929700
   0.44681277  0.54605577  0.52822232
   0.44594613  0.87873933  0.51283586
   0.07046223  0.53087611  0.49217300
   0.62159112  0.22404831  0.47701502
   0.77641176  0.39045382  0.38174310
   0.61612277  0.39866692  0.44002569
   0.93561898  0.05102785  0.47724163
   0.94215115  0.39196182  0.37597196
   0.62978167  0.06765944  0.53170971
   0.61517496  0.70445140  0.57842856
   0.79370129  0.90111855  0.56273764
   0.61054652  0.88905258  0.55971670
   0.93119451  0.56806405  0.41925490
   0.96833521  0.92202316  0.57714803
   0.62596798  0.55010414  0.52063744
   0.16648072  0.33531284  0.42462564
   0.16471778  0.15657747  0.41931732
   0.33596637  0.00061093  0.54927689
   0.52671404  0.37387996  0.38460669
   0.35426632  0.37964998  0.38485057
   0.50829764  0.18044697  0.50350224
   0.15577443  0.97943961  0.46147508
   0.00874503  0.01208271  0.51092970
   0.16002340  0.82479359  0.53267568
   0.11116037  0.62852365  0.54337540
   0.32968951  0.48769116  0.50981629
   0.50429393  0.82200917  0.52087098
   0.32899436  0.81780151  0.50652547
   0.49507691  0.63738750  0.58652023
   0.12679909  0.47056028  0.49679996
   0.98212789  0.49673440  0.43162471
   0.66856285  0.32825389  0.42420910
   0.68983668  0.18146317  0.50435270
   0.82060593  0.97599356  0.49134844
   0.01872257  0.35662044  0.36194734
   0.82999390  0.33270985  0.35372430
   0.98506912  0.15591443  0.43503740
   0.67280635  0.00787606  0.57422048
   0.50742339  0.00181689  0.51424376
   0.67027777  0.82947559  0.58215295
   0.68113857  0.65734919  0.56131010
   0.82641958  0.51335358  0.38197370
   0.03261918  0.87328847  0.59469152
   0.86271106  0.88025623  0.61572738
   0.99649864  0.68285684  0.44875507
   0.66912808  0.48049365  0.50777574
   0.51258420  0.50936131  0.48321757
   0.27276694  0.58615923  0.58186686
   0.28634428  0.59491344  0.79806309
   0.21792740  0.50506632  0.83098773

 position of ions in cartesian coordinates  (Angst):
  -0.02930477  2.34977128  6.12232864
   1.15892103  4.49538035  6.30858009
  -1.25151621  4.38252024  6.12160468
   5.52866300  0.64724715  7.53589311
   3.37356362  4.64195425  5.93699058
   1.16926025  0.56146015  6.64995815
  -3.58403967  7.91034700  7.30817455
  -2.12662902  9.86284417  7.63405408
  -4.47028839 10.07688252  7.62187674
   2.30954680  6.04896125  7.60640144
   0.08739914  9.78428578  7.38483633
  -2.59116766  5.94744717  7.08729127
   6.77198561  2.40165614  6.86901633
   7.72376488  4.24160531  5.49710071
   5.53899962  4.36316757  6.33636987
  12.09501156  0.40158728  6.87227948
   9.91636911  4.22818749  5.41399618
   7.92001502  0.64431860  7.65661987
   3.49451348  7.79650071  8.32937133
   4.56025009  9.97186804  8.10342201
   2.20635691  9.86993649  8.05992053
   8.60058706  6.20736108  6.03727052
   6.74217241 10.17459483  8.31093156
   4.66356264  6.06160855  7.49717913
  -0.01562471  3.73420140  6.11460924
   1.14861504  1.72779363  6.03816944
   4.46082853 -0.05465998  7.90958723
   4.51549100  4.10124657  5.53833637
   2.18537383  4.19760582  5.54184819
   5.55607478  1.93287245  7.25043220
  -4.43802963 10.96802003  6.64524116
   0.03593104  0.13405593  7.35738775
  -3.35396346  9.23097177  7.67052976
  -2.69915476  7.03632127  7.82460571
   1.14083894  5.41512590  7.34135462
   1.23978627  9.13667037  7.50054217
  -1.06193109  9.12152867  7.29396679
   2.34407699  7.06553984  8.44589130
  -1.44167930  5.25994239  7.15391946
   9.75145009  5.39718922  6.21539582
   6.70379540  3.56301113  6.10861097
   7.96191936  1.91104004  7.26267887
   4.42027155 10.80759198  7.07541756
  -2.12086995  4.00048609  5.21204175
   8.81955437  3.58348018  5.09362996
  12.05523357  1.57013422  6.26453860
   8.88905080 -0.03477058  8.26877495
   6.73142520 -0.07251579  7.40511007
   3.39604631  9.19010533  8.38300241
   4.68413606  7.25558747  8.08286548
   7.57170352  5.61229105  5.50042131
  -5.36936664  9.79877146  8.56355794
   5.61599526  9.72500236  8.86647433
   8.70567838  7.48422582  6.46207301
   5.69969769  5.27216184  7.31197068
   3.42745747  5.62493491  6.95833300
  -0.26994905  6.53108780  8.37888285
  -0.14768086  6.62688850 11.49210857
  -0.45989975  5.63066829 11.96622327



--------------------------------------------------------------------------------------------------------


 k-point  1 :   0.0000 0.0000 0.0000  plane waves:   44623
 k-point  2 :   0.3333 0.0000 0.0000  plane waves:   44684
 k-point  3 :   0.0000 0.3333 0.0000  plane waves:   44690
 k-point  4 :   0.3333 0.3333 0.0000  plane waves:   44678
 k-point  5 :  -0.3333 0.3333 0.0000  plane waves:   44633

 maximum and minimum number of plane-waves per node :      3749     3702

 maximum number of plane-waves:     44690
 maximum index in each direction: 
   IXMAX=   23   IYMAX=   22   IZMAX=   24
   IXMIN=  -23   IYMIN=  -22   IZMIN=  -24


 parallel 3D FFT for wavefunctions:
    minimum data exchange during FFTs selected (reduces bandwidth)
 parallel 3D FFT for charge:
    minimum data exchange during FFTs selected (reduces bandwidth)


 total amount of memory used by VASP MPI-rank0    86188. kBytes
=======================================================================

   base      :      30000. kBytes
   nonl-proj :      16940. kBytes
   fftplans  :       3323. kBytes
   grid      :       9764. kBytes
   one-center:        155. kBytes
   wavefun   :      26006. kBytes

     INWAV:  cpu time    0.0001: real time    0.0001
 Broyden mixing: mesh for mixing (old mesh)
   NGX = 45   NGY = 45   NGZ = 49
  (NGX  =140   NGY  =140   NGZ  =160)
  gives a total of  99225 points

 initial charge density was supplied:
 charge density of overlapping atoms calculated
 number of electron     280.0000000 magnetization       2.0000000
 keeping initial charge density in first step


--------------------------------------------------------------------------------------------------------


 Maximum index for augmentation-charges          189 (set IRDMAX)


--------------------------------------------------------------------------------------------------------


 First call to EWALD:  gamma=   0.138
 Maximum number of real-space cells 3x 3x 3
 Maximum number of reciprocal cells 3x 3x 3

    FEWALD:  cpu time    0.0024: real time    0.0024


--------------------------------------- Iteration      1(   1)  ---------------------------------------


    POTLOK:  cpu time    0.1078: real time    0.1236
    SETDIJ:  cpu time    0.0092: real time    0.0094
     EDDAV:  cpu time   10.4368: real time   10.4580
 BZINTS: Fermi energy:  9.844961;280.000000 electrons
         Band energy:***********;  BLOECHL correction: -0.032225
       DOS:  cpu time    0.2183: real time    0.2183
    --------------------------------------------
      LOOP:  cpu time   10.7722: real time   10.8094

 eigenvalue-minimisations  :  3896
 total energy-change (2. order) : 0.2655535E+04  (-0.1076440E+05)
 number of electron     280.0000000 magnetization       2.0000000
 augmentation part      280.0000000 magnetization       2.0000000

 Free energy of the ion-electron system (eV)
  ---------------------------------------------------
  alpha Z        PSCENC =       174.85037942
  Ewald energy   TEWEN  =     24540.36991867
  -Hartree energ DENC   =    -36533.79876202
  -exchange      EXHF   =         0.00000000
  -V(xc)+E(xc)   XCENC  =      1070.11293054
  PAW double counting   =     11453.83848114   -11942.90478952
  entropy T*S    EENTRO =         0.00000000
  eigenvalues    EBANDS =     -1278.66903147
  atomic energy  EATOM  =     15171.73615219
  Solvation  Ediel_sol  =         0.00000000
  ---------------------------------------------------
  free energy    TOTEN  =      2655.53527894 eV

  energy without entropy =     2655.53527894  energy(sigma->0) =     2655.53527894


--------------------------------------------------------------------------------------------------------




--------------------------------------- Iteration      1(   2)  ---------------------------------------


     EDDAV:  cpu time   12.0442: real time   12.0553
 BZINTS: Fermi energy: -0.061203;280.000000 electrons
         Band energy:***********;  BLOECHL correction:  0.000000
       DOS:  cpu time    0.0165: real time    0.0165
    --------------------------------------------
      LOOP:  cpu time   12.0607: real time   12.0717

 eigenvalue-minimisations  :  4688
 total energy-change (2. order) :-0.2675850E+04  (-0.2584902E+04)
 number of electron     280.0000000 magnetization       2.0000000
 augmentation part      280.0000000 magnetization       2.0000000

 Free energy of the ion-electron system (eV)
  ---------------------------------------------------
  alpha Z        PSCENC =       174.85037942
  Ewald energy   TEWEN  =     24540.36991867
  -Hartree energ DENC   =    -36533.79876202
  -exchange      EXHF   =         0.00000000
  -V(xc)+E(xc)   XCENC  =      1070.11293054
  PAW double counting   =     11453.83848114   -11942.90478952
  entropy T*S    EENTRO =         0.00000000
  eigenvalues    EBANDS =     -3954.51904565
  atomic energy  EATOM  =     15171.73615219
  Solvation  Ediel_sol  =         0.00000000
  ---------------------------------------------------
  free energy    TOTEN  =       -20.31473524 eV

  energy without entropy =      -20.31473524  energy(sigma->0) =      -20.31473524


--------------------------------------------------------------------------------------------------------




--------------------------------------- Iteration      1(   3)  ---------------------------------------


     EDDAV:  cpu time   10.7898: real time   10.8113
 BZINTS: Fermi energy: -3.287009;280.000000 electrons
         Band energy:***********;  BLOECHL correction:  0.000000
       DOS:  cpu time    0.0174: real time    0.0174
    --------------------------------------------
      LOOP:  cpu time   10.8072: real time   10.8287

 eigenvalue-minimisations  :  4064
 total energy-change (2. order) :-0.4851761E+03  (-0.4814213E+03)
 number of electron     280.0000000 magnetization       2.0000000
 augmentation part      280.0000000 magnetization       2.0000000

 Free energy of the ion-electron system (eV)
  ---------------------------------------------------
  alpha Z        PSCENC =       174.85037942
  Ewald energy   TEWEN  =     24540.36991867
  -Hartree energ DENC   =    -36533.79876202
  -exchange      EXHF   =         0.00000000
  -V(xc)+E(xc)   XCENC  =      1070.11293054
  PAW double counting   =     11453.83848114   -11942.90478952
  entropy T*S    EENTRO =         0.00000000
  eigenvalues    EBANDS =     -4439.69514563
  atomic energy  EATOM  =     15171.73615219
  Solvation  Ediel_sol  =         0.00000000
  ---------------------------------------------------
  free energy    TOTEN  =      -505.49083523 eV

  energy without entropy =     -505.49083523  energy(sigma->0) =     -505.49083523


--------------------------------------------------------------------------------------------------------




--------------------------------------- Iteration      1(   4)  ---------------------------------------


     EDDAV:  cpu time   11.2571: real time   11.2714
 BZINTS: Fermi energy: -3.686172;280.000000 electrons
         Band energy:***********;  BLOECHL correction:  0.000000
       DOS:  cpu time    0.0171: real time    0.0171
    --------------------------------------------
      LOOP:  cpu time   11.2742: real time   11.2885

 eigenvalue-minimisations  :  4288
 total energy-change (2. order) :-0.1903640E+02  (-0.1859742E+02)
 number of electron     280.0000000 magnetization       2.0000000
 augmentation part      280.0000000 magnetization       2.0000000

 Free energy of the ion-electron system (eV)
  ---------------------------------------------------
  alpha Z        PSCENC =       174.85037942
  Ewald energy   TEWEN  =     24540.36991867
  -Hartree energ DENC   =    -36533.79876202
  -exchange      EXHF   =         0.00000000
  -V(xc)+E(xc)   XCENC  =      1070.11293054
  PAW double counting   =     11453.83848114   -11942.90478952
  entropy T*S    EENTRO =         0.00000000
  eigenvalues    EBANDS =     -4458.73154878
  atomic energy  EATOM  =     15171.73615219
  Solvation  Ediel_sol  =         0.00000000
  ---------------------------------------------------
  free energy    TOTEN  =      -524.52723837 eV

  energy without entropy =     -524.52723837  energy(sigma->0) =     -524.52723837


--------------------------------------------------------------------------------------------------------




--------------------------------------- Iteration      1(   5)  ---------------------------------------


     EDDAV:  cpu time   12.6949: real time   12.7216
 BZINTS: Fermi energy: -3.731183;280.000000 electrons
         Band energy:***********;  BLOECHL correction:  0.000000
       DOS:  cpu time    0.0177: real time    0.0177
    CHARGE:  cpu time    0.2090: real time    0.2091
    MIXING:  cpu time    0.0026: real time    0.0026
    --------------------------------------------
      LOOP:  cpu time   12.9241: real time   12.9509

 eigenvalue-minimisations  :  5000
 total energy-change (2. order) :-0.8133536E+00  (-0.8058216E+00)
 number of electron     280.0000016 magnetization       0.0000001
 augmentation part       20.3038095 magnetization       0.0316332

 Broyden mixing:
  rms(total) = 0.41869E+01    rms(broyden)= 0.41841E+01
  rms(prec ) = 0.46543E+01
  weight for this iteration     100.00

 Free energy of the ion-electron system (eV)
  ---------------------------------------------------
  alpha Z        PSCENC =       174.85037942
  Ewald energy   TEWEN  =     24540.36991867
  -Hartree energ DENC   =    -36533.79876202
  -exchange      EXHF   =         0.00000000
  -V(xc)+E(xc)   XCENC  =      1070.11293054
  PAW double counting   =     11453.83848114   -11942.90478952
  entropy T*S    EENTRO =         0.00000000
  eigenvalues    EBANDS =     -4459.54490241
  atomic energy  EATOM  =     15171.73615219
  Solvation  Ediel_sol  =         0.00000000
  ---------------------------------------------------
  free energy    TOTEN  =      -525.34059200 eV

  energy without entropy =     -525.34059200  energy(sigma->0) =     -525.34059200


--------------------------------------------------------------------------------------------------------




--------------------------------------- Iteration      1(   6)  ---------------------------------------


    POTLOK:  cpu time    0.0927: real time    0.1041
    SETDIJ:  cpu time    0.0086: real time    0.0086
     EDDAV:  cpu time   11.4429: real time   11.4602
 BZINTS: Fermi energy: -3.379845;280.000000 electrons
         Band energy:***********;  BLOECHL correction:  0.000000
       DOS:  cpu time    0.0163: real time    0.0163
    CHARGE:  cpu time    0.2012: real time    0.2012
    MIXING:  cpu time    0.0029: real time    0.0094
    --------------------------------------------
      LOOP:  cpu time   11.7646: real time   11.7997

 eigenvalue-minimisations  :  4360
 total energy-change (2. order) : 0.2623702E+02  (-0.5537877E+01)
 number of electron     280.0000015 magnetization      -0.0000000
 augmentation part       19.2123320 magnetization       0.0098810

 Broyden mixing:
  rms(total) = 0.26195E+01    rms(broyden)= 0.26191E+01
  rms(prec ) = 0.28275E+01
  weight for this iteration     100.00

 eigenvalues of (default mixing * dielectric matrix)
  average eigenvalue GAMMA=   1.4236
  1.4236

 Free energy of the ion-electron system (eV)
  ---------------------------------------------------
  alpha Z        PSCENC =       174.85037942
  Ewald energy   TEWEN  =     24540.36991867
  -Hartree energ DENC   =    -36822.37829654
  -exchange      EXHF   =         0.00000000
  -V(xc)+E(xc)   XCENC  =      1085.10820088
  PAW double counting   =     15062.07026544   -15553.36430880
  entropy T*S    EENTRO =         0.00000000
  eigenvalues    EBANDS =     -4157.49588124
  atomic energy  EATOM  =     15171.73615219
  Solvation  Ediel_sol  =         0.00000000
  ---------------------------------------------------
  free energy    TOTEN  =      -499.10356998 eV

  energy without entropy =     -499.10356998  energy(sigma->0) =     -499.10356998


--------------------------------------------------------------------------------------------------------




--------------------------------------- Iteration      1(   7)  ---------------------------------------


    POTLOK:  cpu time    0.0942: real time    0.1043
    SETDIJ:  cpu time    0.0087: real time    0.0087
     EDDAV:  cpu time   11.0570: real time   11.0687
 BZINTS: Fermi energy: -2.870968;280.000000 electrons
         Band energy:***********;  BLOECHL correction:  0.000000
       DOS:  cpu time    0.0160: real time    0.0160
    CHARGE:  cpu time    0.1998: real time    0.1998
    MIXING:  cpu time    0.0022: real time    0.0029
    --------------------------------------------
      LOOP:  cpu time   11.3778: real time   11.4003

 eigenvalue-minimisations  :  4176
 total energy-change (2. order) : 0.5427851E+01  (-0.4529649E+01)
 number of electron     280.0000015 magnetization      -0.0000000
 augmentation part       18.7771188 magnetization      -0.0001424

 Broyden mixing:
  rms(total) = 0.16809E+01    rms(broyden)= 0.16805E+01
  rms(prec ) = 0.18297E+01
  weight for this iteration     100.00

 eigenvalues of (default mixing * dielectric matrix)
  average eigenvalue GAMMA=   1.5155
  0.9202  2.1108

 Free energy of the ion-electron system (eV)
  ---------------------------------------------------
  alpha Z        PSCENC =       174.85037942
  Ewald energy   TEWEN  =     24540.36991867
  -Hartree energ DENC   =    -37093.12516705
  -exchange      EXHF   =         0.00000000
  -V(xc)+E(xc)   XCENC  =      1096.69482684
  PAW double counting   =     19887.72053760   -20382.18423815
  entropy T*S    EENTRO =         0.00000000
  eigenvalues    EBANDS =     -3889.73812898
  atomic energy  EATOM  =     15171.73615219
  Solvation  Ediel_sol  =         0.00000000
  ---------------------------------------------------
  free energy    TOTEN  =      -493.67571948 eV

  energy without entropy =     -493.67571948  energy(sigma->0) =     -493.67571948


--------------------------------------------------------------------------------------------------------




--------------------------------------- Iteration      1(   8)  ---------------------------------------


    POTLOK:  cpu time    0.1051: real time    0.1058
    SETDIJ:  cpu time    0.0087: real time    0.0087
     EDDAV:  cpu time   10.6378: real time   10.6523
 BZINTS: Fermi energy: -2.320830;280.000000 electrons
         Band energy:***********;  BLOECHL correction:  0.000000
       DOS:  cpu time    0.0164: real time    0.0164
    CHARGE:  cpu time    0.2036: real time    0.2036
    MIXING:  cpu time    0.0024: real time    0.0024
    --------------------------------------------
      LOOP:  cpu time   10.9739: real time   10.9891

 eigenvalue-minimisations  :  3976
 total energy-change (2. order) : 0.1964006E+01  (-0.1650527E+01)
 number of electron     280.0000016 magnetization       0.0000000
 augmentation part       18.5251916 magnetization      -0.0017582

 Broyden mixing:
  rms(total) = 0.11602E+01    rms(broyden)= 0.11600E+01
  rms(prec ) = 0.12456E+01
  weight for this iteration     100.00

 eigenvalues of (default mixing * dielectric matrix)
  average eigenvalue GAMMA=   1.6436
  3.0287  1.2364  0.6658

 Free energy of the ion-electron system (eV)
  ---------------------------------------------------
  alpha Z        PSCENC =       174.85037942
  Ewald energy   TEWEN  =     24540.36991867
  -Hartree energ DENC   =    -37200.27020618
  -exchange      EXHF   =         0.00000000
  -V(xc)+E(xc)   XCENC  =      1101.71332444
  PAW double counting   =     23365.80248227   -23862.58282106
  entropy T*S    EENTRO =         0.00000000
  eigenvalues    EBANDS =     -3783.33094354
  atomic energy  EATOM  =     15171.73615219
  Solvation  Ediel_sol  =         0.00000000
  ---------------------------------------------------
  free energy    TOTEN  =      -491.71171380 eV

  energy without entropy =     -491.71171380  energy(sigma->0) =     -491.71171380


--------------------------------------------------------------------------------------------------------




--------------------------------------- Iteration      1(   9)  ---------------------------------------


    POTLOK:  cpu time    0.0973: real time    0.1042
    SETDIJ:  cpu time    0.0086: real time    0.0086
     EDDAV:  cpu time   12.2943: real time   12.3128
 BZINTS: Fermi energy: -2.219555;280.000000 electrons
         Band energy:***********;  BLOECHL correction:  0.000000
       DOS:  cpu time    0.0155: real time    0.0155
    CHARGE:  cpu time    0.2032: real time    0.2032
    MIXING:  cpu time    0.0022: real time    0.0022
    --------------------------------------------
      LOOP:  cpu time   12.6211: real time   12.6466

 eigenvalue-minimisations  :  4800
 total energy-change (2. order) :-0.9259915E-01  (-0.1531434E+01)
 number of electron     280.0000017 magnetization       0.0000000
 augmentation part       18.6086379 magnetization      -0.0007476

 Broyden mixing:
  rms(total) = 0.67392E+00    rms(broyden)= 0.67364E+00
  rms(prec ) = 0.83909E+00
  weight for this iteration     100.00

 eigenvalues of (default mixing * dielectric matrix)
  average eigenvalue GAMMA=   1.5815
  3.5969  1.3606  0.6843  0.6843

 Free energy of the ion-electron system (eV)
  ---------------------------------------------------
  alpha Z        PSCENC =       174.85037942
  Ewald energy   TEWEN  =     24540.36991867
  -Hartree energ DENC   =    -37255.21904079
  -exchange      EXHF   =         0.00000000
  -V(xc)+E(xc)   XCENC  =      1104.05110543
  PAW double counting   =     27238.20615583   -27739.41685475
  entropy T*S    EENTRO =         0.00000000
  eigenvalues    EBANDS =     -3726.38212895
  atomic energy  EATOM  =     15171.73615219
  Solvation  Ediel_sol  =         0.00000000
  ---------------------------------------------------
  free energy    TOTEN  =      -491.80431295 eV

  energy without entropy =     -491.80431295  energy(sigma->0) =     -491.80431295


--------------------------------------------------------------------------------------------------------




--------------------------------------- Iteration      1(  10)  ---------------------------------------


    POTLOK:  cpu time    0.1004: real time    0.1010
    SETDIJ:  cpu time    0.0086: real time    0.0086
     EDDAV:  cpu time   11.0874: real time   11.1009
 BZINTS: Fermi energy: -1.914479;280.000000 electrons
         Band energy:***********;  BLOECHL correction:  0.000000
       DOS:  cpu time    0.0156: real time    0.0156
    CHARGE:  cpu time    0.2062: real time    0.2062
    MIXING:  cpu time    0.0025: real time    0.0025
    --------------------------------------------
      LOOP:  cpu time   11.4206: real time   11.4348

 eigenvalue-minimisations  :  4184
 total energy-change (2. order) : 0.5938386E+00  (-0.6591063E+00)
 number of electron     280.0000015 magnetization       0.0000000
 augmentation part       18.6020300 magnetization      -0.0006001

 Broyden mixing:
  rms(total) = 0.32889E+00    rms(broyden)= 0.32835E+00
  rms(prec ) = 0.40906E+00
  weight for this iteration     100.00

 eigenvalues of (default mixing * dielectric matrix)
  average eigenvalue GAMMA=   1.5053
  3.8575  1.5522  0.9922  0.5623  0.5623

 Free energy of the ion-electron system (eV)
  ---------------------------------------------------
  alpha Z        PSCENC =       174.85037942
  Ewald energy   TEWEN  =     24540.36991867
  -Hartree energ DENC   =    -37274.11880601
  -exchange      EXHF   =         0.00000000
  -V(xc)+E(xc)   XCENC  =      1105.32575021
  PAW double counting   =     29550.29616088   -30051.99421817
  entropy T*S    EENTRO =         0.00000000
  eigenvalues    EBANDS =     -3707.67581148
  atomic energy  EATOM  =     15171.73615219
  Solvation  Ediel_sol  =         0.00000000
  ---------------------------------------------------
  free energy    TOTEN  =      -491.21047430 eV

  energy without entropy =     -491.21047430  energy(sigma->0) =     -491.21047430


--------------------------------------------------------------------------------------------------------




--------------------------------------- Iteration      1(  11)  ---------------------------------------


    POTLOK:  cpu time    0.0987: real time    0.1038
    SETDIJ:  cpu time    0.0072: real time    0.0091
     EDDAV:  cpu time   12.4072: real time   12.4240
 BZINTS: Fermi energy: -1.985746;280.000000 electrons
         Band energy:***********;  BLOECHL correction:  0.000000
       DOS:  cpu time    0.0160: real time    0.0160
    CHARGE:  cpu time    0.2047: real time    0.2047
    MIXING:  cpu time    0.0024: real time    0.0024
    --------------------------------------------
      LOOP:  cpu time   12.7362: real time   12.7601

 eigenvalue-minimisations  :  4824
 total energy-change (2. order) : 0.7188248E-01  (-0.2791555E+00)
 number of electron     280.0000017 magnetization       0.0000000
 augmentation part       18.5941473 magnetization      -0.0003070

 Broyden mixing:
  rms(total) = 0.22957E+00    rms(broyden)= 0.22930E+00
  rms(prec ) = 0.30930E+00
  weight for this iteration     100.00

 eigenvalues of (default mixing * dielectric matrix)
  average eigenvalue GAMMA=   1.4297
  3.8476  1.5470  1.0672  1.0672  0.5246  0.5246

 Free energy of the ion-electron system (eV)
  ---------------------------------------------------
  alpha Z        PSCENC =       174.85037942
  Ewald energy   TEWEN  =     24540.36991867
  -Hartree energ DENC   =    -37258.20534275
  -exchange      EXHF   =         0.00000000
  -V(xc)+E(xc)   XCENC  =      1105.01711291
  PAW double counting   =     30384.95001878   -30886.06879683
  entropy T*S    EENTRO =         0.00000000
  eigenvalues    EBANDS =     -3723.78803420
  atomic energy  EATOM  =     15171.73615219
  Solvation  Ediel_sol  =         0.00000000
  ---------------------------------------------------
  free energy    TOTEN  =      -491.13859182 eV

  energy without entropy =     -491.13859182  energy(sigma->0) =     -491.13859182


--------------------------------------------------------------------------------------------------------




--------------------------------------- Iteration      1(  12)  ---------------------------------------


    POTLOK:  cpu time    0.1043: real time    0.1055
    SETDIJ:  cpu time    0.0086: real time    0.0086
     EDDAV:  cpu time   12.3257: real time   12.3412
 BZINTS: Fermi energy: -2.009502;280.000000 electrons
         Band energy:***********;  BLOECHL correction:  0.000000
       DOS:  cpu time    0.0153: real time    0.0153
    CHARGE:  cpu time    0.2019: real time    0.2019
    MIXING:  cpu time    0.0026: real time    0.0026
    --------------------------------------------
      LOOP:  cpu time   12.6587: real time   12.6754

 eigenvalue-minimisations  :  4792
 total energy-change (2. order) : 0.9497800E-01  (-0.1560615E+00)
 number of electron     280.0000016 magnetization      -0.0000000
 augmentation part       18.5749791 magnetization      -0.0000317

 Broyden mixing:
  rms(total) = 0.13392E+00    rms(broyden)= 0.13365E+00
  rms(prec ) = 0.16727E+00
  weight for this iteration     100.00

 eigenvalues of (default mixing * dielectric matrix)
  average eigenvalue GAMMA=   1.4359
  3.8218  2.1071  1.2522  0.9182  0.9182  0.5170  0.5170

 Free energy of the ion-electron system (eV)
  ---------------------------------------------------
  alpha Z        PSCENC =       174.85037942
  Ewald energy   TEWEN  =     24540.36991867
  -Hartree energ DENC   =    -37242.80698241
  -exchange      EXHF   =         0.00000000
  -V(xc)+E(xc)   XCENC  =      1104.50707979
  PAW double counting   =     30600.91609345   -31101.37440215
  entropy T*S    EENTRO =         0.00000000
  eigenvalues    EBANDS =     -3739.24185277
  atomic energy  EATOM  =     15171.73615219
  Solvation  Ediel_sol  =         0.00000000
  ---------------------------------------------------
  free energy    TOTEN  =      -491.04361382 eV

  energy without entropy =     -491.04361382  energy(sigma->0) =     -491.04361382


--------------------------------------------------------------------------------------------------------




--------------------------------------- Iteration      1(  13)  ---------------------------------------


    POTLOK:  cpu time    0.0924: real time    0.1015
    SETDIJ:  cpu time    0.0087: real time    0.0087
     EDDAV:  cpu time   10.4404: real time   10.4538
 BZINTS: Fermi energy: -2.060765;280.000000 electrons
         Band energy:***********;  BLOECHL correction:  0.000000
       DOS:  cpu time    0.0161: real time    0.0161
    CHARGE:  cpu time    0.2040: real time    0.2040
    MIXING:  cpu time    0.0028: real time    0.0028
    --------------------------------------------
      LOOP:  cpu time   10.7643: real time   10.7868

 eigenvalue-minimisations  :  3888
 total energy-change (2. order) : 0.3323884E-01  (-0.2328372E-01)
 number of electron     280.0000016 magnetization      -0.0000000
 augmentation part       18.5844163 magnetization       0.0000669

 Broyden mixing:
  rms(total) = 0.57003E-01    rms(broyden)= 0.56973E-01
  rms(prec ) = 0.64529E-01
  weight for this iteration     100.00

 eigenvalues of (default mixing * dielectric matrix)
  average eigenvalue GAMMA=   1.4261
  3.8283  2.4439  1.3185  0.9870  0.9870  0.8048  0.5197  0.5197

 Free energy of the ion-electron system (eV)
  ---------------------------------------------------
  alpha Z        PSCENC =       174.85037942
  Ewald energy   TEWEN  =     24540.36991867
  -Hartree energ DENC   =    -37224.64092855
  -exchange      EXHF   =         0.00000000
  -V(xc)+E(xc)   XCENC  =      1103.85108287
  PAW double counting   =     30746.78173698   -31247.03493078
  entropy T*S    EENTRO =         0.00000000
  eigenvalues    EBANDS =     -3756.92378578
  atomic energy  EATOM  =     15171.73615219
  Solvation  Ediel_sol  =         0.00000000
  ---------------------------------------------------
  free energy    TOTEN  =      -491.01037498 eV

  energy without entropy =     -491.01037498  energy(sigma->0) =     -491.01037498


--------------------------------------------------------------------------------------------------------




--------------------------------------- Iteration      1(  14)  ---------------------------------------


    POTLOK:  cpu time    0.0917: real time    0.1029
    SETDIJ:  cpu time    0.0087: real time    0.0087
     EDDAV:  cpu time   11.1629: real time   11.1790
 BZINTS: Fermi energy: -2.089522;280.000000 electrons
         Band energy:***********;  BLOECHL correction:  0.000000
       DOS:  cpu time    0.0148: real time    0.0148
    CHARGE:  cpu time    0.2048: real time    0.2048
    MIXING:  cpu time    0.0029: real time    0.0029
    --------------------------------------------
      LOOP:  cpu time   11.4858: real time   11.5131

 eigenvalue-minimisations  :  4232
 total energy-change (2. order) : 0.7795435E-03  (-0.5723303E-02)
 number of electron     280.0000016 magnetization      -0.0000000
 augmentation part       18.5894107 magnetization       0.0000966

 Broyden mixing:
  rms(total) = 0.34056E-01    rms(broyden)= 0.34002E-01
  rms(prec ) = 0.42073E-01
  weight for this iteration     100.00

 eigenvalues of (default mixing * dielectric matrix)
  average eigenvalue GAMMA=   1.3931
  3.8068  2.4747  1.4254  1.0583  1.0583  0.9576  0.7192  0.5187  0.5187

 Free energy of the ion-electron system (eV)
  ---------------------------------------------------
  alpha Z        PSCENC =       174.85037942
  Ewald energy   TEWEN  =     24540.36991867
  -Hartree energ DENC   =    -37218.80184871
  -exchange      EXHF   =         0.00000000
  -V(xc)+E(xc)   XCENC  =      1103.63453766
  PAW double counting   =     30831.82479970   -31332.06901620
  entropy T*S    EENTRO =         0.00000000
  eigenvalues    EBANDS =     -3762.55451816
  atomic energy  EATOM  =     15171.73615219
  Solvation  Ediel_sol  =         0.00000000
  ---------------------------------------------------
  free energy    TOTEN  =      -491.00959544 eV

  energy without entropy =     -491.00959544  energy(sigma->0) =     -491.00959544


--------------------------------------------------------------------------------------------------------




--------------------------------------- Iteration      1(  15)  ---------------------------------------


    POTLOK:  cpu time    0.0999: real time    0.1004
    SETDIJ:  cpu time    0.0087: real time    0.0087
     EDDAV:  cpu time   10.8442: real time   10.8612
 BZINTS: Fermi energy: -2.079520;280.000000 electrons
         Band energy:***********;  BLOECHL correction:  0.000000
       DOS:  cpu time    0.0156: real time    0.0156
    CHARGE:  cpu time    0.2017: real time    0.2017
    MIXING:  cpu time    0.0031: real time    0.0031
    --------------------------------------------
      LOOP:  cpu time   11.1732: real time   11.1908

 eigenvalue-minimisations  :  4072
 total energy-change (2. order) : 0.7052348E-03  (-0.2615658E-02)
 number of electron     280.0000016 magnetization      -0.0000000
 augmentation part       18.5898036 magnetization       0.0000475

 Broyden mixing:
  rms(total) = 0.25115E-01    rms(broyden)= 0.25092E-01
  rms(prec ) = 0.29239E-01
  weight for this iteration     100.00

 eigenvalues of (default mixing * dielectric matrix)
  average eigenvalue GAMMA=   1.4168
  3.7228  2.7042  1.6685  1.3609  1.1419  0.9184  0.9184  0.6949  0.5189  0.5189

 Free energy of the ion-electron system (eV)
  ---------------------------------------------------
  alpha Z        PSCENC =       174.85037942
  Ewald energy   TEWEN  =     24540.36991867
  -Hartree energ DENC   =    -37220.27933015
  -exchange      EXHF   =         0.00000000
  -V(xc)+E(xc)   XCENC  =      1103.66323476
  PAW double counting   =     30843.35975014   -31343.65063165
  entropy T*S    EENTRO =         0.00000000
  eigenvalues    EBANDS =     -3761.05836357
  atomic energy  EATOM  =     15171.73615219
  Solvation  Ediel_sol  =         0.00000000
  ---------------------------------------------------
  free energy    TOTEN  =      -491.00889020 eV

  energy without entropy =     -491.00889020  energy(sigma->0) =     -491.00889020


--------------------------------------------------------------------------------------------------------




--------------------------------------- Iteration      1(  16)  ---------------------------------------


    POTLOK:  cpu time    0.0981: real time    0.1028
    SETDIJ:  cpu time    0.0086: real time    0.0086
     EDDAV:  cpu time   11.6543: real time   11.6704
 BZINTS: Fermi energy: -2.080770;280.000000 electrons
         Band energy:***********;  BLOECHL correction:  0.000000
       DOS:  cpu time    0.0159: real time    0.0159
    CHARGE:  cpu time    0.2036: real time    0.2047
    MIXING:  cpu time    0.0033: real time    0.0033
    --------------------------------------------
      LOOP:  cpu time   11.9838: real time   12.0057

 eigenvalue-minimisations  :  4480
 total energy-change (2. order) : 0.1281093E-03  (-0.1189775E-02)
 number of electron     280.0000016 magnetization      -0.0000000
 augmentation part       18.5904452 magnetization       0.0000296

 Broyden mixing:
  rms(total) = 0.15930E-01    rms(broyden)= 0.15909E-01
  rms(prec ) = 0.19631E-01
  weight for this iteration     100.00

 eigenvalues of (default mixing * dielectric matrix)
  average eigenvalue GAMMA=   1.4657
  3.6537  3.2427  2.0954  1.2686  1.2686  1.0349  0.9179  0.9179  0.5174  0.5174
  0.6884

 Free energy of the ion-electron system (eV)
  ---------------------------------------------------
  alpha Z        PSCENC =       174.85037942
  Ewald energy   TEWEN  =     24540.36991867
  -Hartree energ DENC   =    -37220.53867774
  -exchange      EXHF   =         0.00000000
  -V(xc)+E(xc)   XCENC  =      1103.65432603
  PAW double counting   =     30845.17814072   -31345.50185855
  entropy T*S    EENTRO =         0.00000000
  eigenvalues    EBANDS =     -3760.75714282
  atomic energy  EATOM  =     15171.73615219
  Solvation  Ediel_sol  =         0.00000000
  ---------------------------------------------------
  free energy    TOTEN  =      -491.00876209 eV

  energy without entropy =     -491.00876209  energy(sigma->0) =     -491.00876209


--------------------------------------------------------------------------------------------------------




--------------------------------------- Iteration      1(  17)  ---------------------------------------


    POTLOK:  cpu time    0.0974: real time    0.1036
    SETDIJ:  cpu time    0.0086: real time    0.0086
     EDDAV:  cpu time   10.9436: real time   10.9627
 BZINTS: Fermi energy: -2.079520;280.000000 electrons
         Band energy:***********;  BLOECHL correction:  0.000000
       DOS:  cpu time    0.0145: real time    0.0145
    CHARGE:  cpu time    0.2078: real time    0.2094
    MIXING:  cpu time    0.0035: real time    0.0035
    --------------------------------------------
      LOOP:  cpu time   11.2754: real time   11.3023

 eigenvalue-minimisations  :  4136
 total energy-change (2. order) : 0.9823108E-04  (-0.5419949E-03)
 number of electron     280.0000016 magnetization      -0.0000000
 augmentation part       18.5900441 magnetization       0.0000302

 Broyden mixing:
  rms(total) = 0.91894E-02    rms(broyden)= 0.91731E-02
  rms(prec ) = 0.11292E-01
  weight for this iteration     100.00

 eigenvalues of (default mixing * dielectric matrix)
  average eigenvalue GAMMA=   1.4886
  3.7680  3.1519  2.1642  1.9674  1.1550  1.1550  0.9349  0.9349  0.9280  0.5171
  0.5171  0.6698

 Free energy of the ion-electron system (eV)
  ---------------------------------------------------
  alpha Z        PSCENC =       174.85037942
  Ewald energy   TEWEN  =     24540.36991867
  -Hartree energ DENC   =    -37220.77807419
  -exchange      EXHF   =         0.00000000
  -V(xc)+E(xc)   XCENC  =      1103.65907259
  PAW double counting   =     30854.76096386   -31355.07250201
  entropy T*S    EENTRO =         0.00000000
  eigenvalues    EBANDS =     -3760.53457439
  atomic energy  EATOM  =     15171.73615219
  Solvation  Ediel_sol  =         0.00000000
  ---------------------------------------------------
  free energy    TOTEN  =      -491.00866386 eV

  energy without entropy =     -491.00866386  energy(sigma->0) =     -491.00866386


--------------------------------------------------------------------------------------------------------




--------------------------------------- Iteration      1(  18)  ---------------------------------------


    POTLOK:  cpu time    0.0956: real time    0.1023
    SETDIJ:  cpu time    0.0087: real time    0.0087
     EDDAV:  cpu time    8.0571: real time    8.0687
 BZINTS: Fermi energy: -2.079520;280.000000 electrons
         Band energy:***********;  BLOECHL correction:  0.000000
       DOS:  cpu time    0.0157: real time    0.0157
    CHARGE:  cpu time    0.2029: real time    0.2029
    MIXING:  cpu time    0.0037: real time    0.0037
    --------------------------------------------
      LOOP:  cpu time    8.3836: real time    8.4019

 eigenvalue-minimisations  :  2696
 total energy-change (2. order) : 0.5179509E-04  (-0.1571602E-03)
 number of electron     280.0000016 magnetization      -0.0000000
 augmentation part       18.5897917 magnetization       0.0000450

 Broyden mixing:
  rms(total) = 0.42815E-02    rms(broyden)= 0.42724E-02
  rms(prec ) = 0.53200E-02
  weight for this iteration     100.00

 eigenvalues of (default mixing * dielectric matrix)
  average eigenvalue GAMMA=   1.5233
  3.5517  3.5517  3.1037  1.8658  1.2330  1.2330  0.9094  0.9094  0.9531  0.5170
  0.5170  0.7905  0.6675

 Free energy of the ion-electron system (eV)
  ---------------------------------------------------
  alpha Z        PSCENC =       174.85037942
  Ewald energy   TEWEN  =     24540.36991867
  -Hartree energ DENC   =    -37220.89579576
  -exchange      EXHF   =         0.00000000
  -V(xc)+E(xc)   XCENC  =      1103.66697879
  PAW double counting   =     30860.77024978   -31361.07366995
  entropy T*S    EENTRO =         0.00000000
  eigenvalues    EBANDS =     -3760.43282520
  atomic energy  EATOM  =     15171.73615219
  Solvation  Ediel_sol  =         0.00000000
  ---------------------------------------------------
  free energy    TOTEN  =      -491.00861206 eV

  energy without entropy =     -491.00861206  energy(sigma->0) =     -491.00861206


--------------------------------------------------------------------------------------------------------




--------------------------------------- Iteration      1(  19)  ---------------------------------------


    POTLOK:  cpu time    0.0928: real time    0.1042
    SETDIJ:  cpu time    0.0086: real time    0.0087
     EDDAV:  cpu time    6.7980: real time    6.8079
 BZINTS: Fermi energy: -2.079520;280.000000 electrons
         Band energy:***********;  BLOECHL correction:  0.000000
       DOS:  cpu time    0.0157: real time    0.0157
    --------------------------------------------
      LOOP:  cpu time    6.9152: real time    6.9365

 eigenvalue-minimisations  :  2080
 total energy-change (2. order) : 0.3204805E-05  (-0.2523892E-04)
 number of electron     280.0000016 magnetization      -0.0000000
 augmentation part       18.5897917 magnetization       0.0000450

 Free energy of the ion-electron system (eV)
  ---------------------------------------------------
  alpha Z        PSCENC =       174.85037942
  Ewald energy   TEWEN  =     24540.36991867
  -Hartree energ DENC   =    -37221.13813859
  -exchange      EXHF   =         0.00000000
  -V(xc)+E(xc)   XCENC  =      1103.67464251
  PAW double counting   =     30858.40425444   -31358.70593072
  entropy T*S    EENTRO =         0.00000000
  eigenvalues    EBANDS =     -3760.19988677
  atomic energy  EATOM  =     15171.73615219
  Solvation  Ediel_sol  =         0.00000000
  ---------------------------------------------------
  free energy    TOTEN  =      -491.00860886 eV

  energy without entropy =     -491.00860886  energy(sigma->0) =     -491.00860886


--------------------------------------------------------------------------------------------------------




 average (electrostatic) potential at core
  the test charge radii are     0.6991  0.7089  0.9911  0.6991  0.7215
  (the norm of the test charge is              1.0000)
       1 -60.3294       2 -60.5599       3 -60.5303       4 -60.2855       5 -60.3431
       6 -60.3151       7 -60.5376       8 -60.3616       9 -60.1664      10 -60.9889
      11 -60.5075      12 -60.9738      13 -60.2518      14 -60.3033      15 -60.0766
      16 -60.3568      17 -60.3449      18 -60.2570      19 -60.6639      20 -60.2918
      21 -60.3136      22 -60.4715      23 -60.3997      24 -60.4263      25 -74.2081
[...]
   -.116E+02 0.129E+02 0.238E+03   0.119E+02 -.150E+02 -.240E+03   -.297E+00 0.214E+01 0.236E+01   -.190E-02 -.456E-02 -.242E-02
   -.604E+02 -.122E+02 0.112E+03   0.630E+02 0.131E+02 -.114E+03   -.269E+01 -.876E+00 0.167E+01   0.651E-02 0.231E-02 -.491E-02
   0.594E+02 -.201E+02 -.445E+02   -.598E+02 0.176E+02 0.430E+02   0.413E+00 0.246E+01 0.150E+01   0.183E-02 -.472E-02 0.314E-03
   0.119E+02 -.278E+02 -.665E+02   -.912E+01 0.297E+02 0.657E+02   -.268E+01 -.180E+01 0.860E+00   0.354E-02 0.125E-02 0.795E-03
   0.222E+00 -.158E+02 -.792E+02   -.317E+01 0.178E+02 0.790E+02   0.289E+01 -.188E+01 0.184E+00   -.467E-02 0.340E-02 -.418E-03
   -.298E+02 0.316E+02 -.723E+02   0.288E+02 -.304E+02 0.738E+02   0.105E+01 -.118E+01 -.156E+01   -.672E-02 0.241E-02 0.339E-02
   -.403E+01 0.568E+01 0.619E+02   0.402E+01 -.848E+01 -.608E+02   0.157E-03 0.283E+01 -.108E+01   0.325E-03 -.134E-01 0.350E-02
   0.484E+02 0.308E+02 -.520E+02   -.473E+02 -.292E+02 0.535E+02   -.103E+01 -.148E+01 -.150E+01   0.773E-02 0.716E-02 0.760E-02
   -.638E+01 0.298E+01 0.175E+02   0.665E+01 -.663E+01 -.163E+02   -.254E+00 0.351E+01 -.110E+01   -.320E-02 -.381E-02 0.391E-02
   0.461E+02 0.325E+02 0.272E+03   -.431E+02 -.309E+02 -.272E+03   -.289E+01 -.154E+01 0.935E-01   0.228E-02 0.464E-02 0.218E-03
   0.326E+01 0.174E+02 0.961E+02   -.613E+01 -.158E+02 -.953E+02   0.282E+01 -.142E+01 -.711E+00   -.219E-02 0.161E-02 0.181E-02
   0.697E+02 -.721E+01 0.790E+02   -.725E+02 0.823E+01 -.800E+02   0.291E+01 -.101E+01 0.102E+01   -.783E-02 0.293E-02 -.312E-02
   -.608E+01 0.512E+02 0.277E+03   0.648E+01 -.535E+02 -.279E+03   -.330E+00 0.250E+01 0.211E+01   0.212E-02 -.603E-02 -.279E-02
   -.583E+02 -.675E+02 -.840E+02   0.610E+02 0.689E+02 0.845E+02   -.273E+01 -.154E+01 -.377E+00   0.780E-02 0.349E-02 0.174E-02
   -.470E+02 -.134E+02 -.200E+03   0.472E+02 0.110E+02 0.198E+03   -.231E+00 0.244E+01 0.157E+01   -.145E-02 -.407E-02 0.800E-03
   0.262E+01 -.120E+02 -.132E+03   0.390E+00 0.138E+02 0.132E+03   -.293E+01 -.181E+01 0.498E+00   0.776E-02 0.533E-02 -.227E-02
   -.127E+02 -.250E+02 -.127E+03   0.101E+02 0.269E+02 0.126E+03   0.255E+01 -.180E+01 0.123E+01   -.661E-02 0.210E-02 -.240E-02
   0.665E+02 -.922E+02 0.165E+03   -.693E+02 0.940E+02 -.165E+03   0.298E+01 -.182E+01 -.347E+00   -.697E-02 0.378E-02 0.333E-04
   -.140E+02 0.422E+01 -.234E+03   0.141E+02 -.717E+01 0.236E+03   -.102E+00 0.299E+01 -.193E+01   0.706E-04 -.789E-02 0.604E-02
   -.816E+02 -.113E+02 -.929E+02   0.844E+02 0.117E+02 0.944E+02   -.290E+01 -.300E+00 -.144E+01   0.320E-02 -.132E-02 0.136E-02
   -.337E+02 0.390E+02 0.212E+03   0.348E+02 -.401E+02 -.215E+03   -.119E+01 0.108E+01 0.311E+01   -.750E-03 0.361E-02 0.243E-02
   -.198E+03 -.107E+02 0.301E+03   0.228E+03 0.250E+02 -.317E+03   -.296E+02 -.144E+02 0.166E+02   -.175E-02 -.205E-02 -.847E-03
   0.136E+03 -.168E+03 -.252E+03   -.165E+03 0.184E+03 0.265E+03   0.296E+02 -.155E+02 -.128E+02   -.805E-03 -.588E-03 -.228E-02
   0.118E+02 0.125E+03 0.462E+03   -.908E+01 -.149E+03 -.491E+03   -.285E+01 0.237E+02 0.286E+02   0.434E-02 0.968E-03 0.522E-02
   -.312E+02 0.984E+02 0.471E+03   0.284E+02 -.121E+03 -.501E+03   0.286E+01 0.227E+02 0.293E+02   -.656E-02 0.540E-03 0.444E-02
   0.189E+03 -.932E+02 -.814E+02   -.218E+03 0.114E+03 0.808E+02   0.284E+02 -.205E+02 0.640E+00   0.357E-02 0.978E-03 -.185E-02
   -.133E+03 -.491E+02 0.295E+03   0.161E+03 0.517E+02 -.319E+03   -.284E+02 -.262E+01 0.237E+02   -.114E-02 0.277E-02 0.747E-05
   -.719E+01 -.311E+02 -.643E+02   0.752E+01 0.337E+02 0.669E+02   -.331E+00 -.261E+01 -.257E+01   -.153E-02 -.112E-02 -.220E-02
   0.166E+02 -.707E+01 -.144E+03   -.167E+02 0.613E+01 0.152E+03   0.843E-01 0.873E+00 -.749E+01   0.184E-02 -.336E-02 -.282E-02
   0.447E+02 -.200E+02 -.326E+03   -.266E+02 0.285E+02 0.354E+03   -.180E+02 -.851E+01 -.273E+02   0.391E-02 0.233E-02 -.390E-03
   -.749E+00 0.796E+02 -.625E+02   -.189E+02 -.783E+02 0.742E+02   0.196E+02 -.141E+01 -.118E+02   -.968E-02 -.135E-02 -.126E-02
   -.264E+02 0.997E+02 0.108E+03   0.308E+02 -.134E+03 -.117E+03   -.445E+01 0.341E+02 0.882E+01   -.265E-02 -.318E-02 0.344E-02
   0.225E+01 0.925E+02 0.125E+03   -.441E+01 -.126E+03 -.134E+03   0.217E+01 0.331E+02 0.868E+01   0.884E-03 -.446E-02 0.535E-02
   0.276E+02 -.185E+02 -.377E+03   -.528E+02 0.291E+02 0.397E+03   0.252E+02 -.107E+02 -.202E+02   -.168E-03 0.372E-02 -.362E-03
   0.118E+01 0.100E+03 -.102E+03   0.160E+02 -.100E+03 0.120E+03   -.172E+02 -.150E+00 -.180E+02   0.441E-02 0.157E-02 -.112E-02
   0.379E+02 -.242E+01 0.144E+03   -.416E+02 0.173E+00 -.146E+03   0.370E+01 0.218E+01 0.194E+01   0.107E-02 -.139E-02 -.108E-02
   0.216E+02 0.795E+02 0.199E+03   -.242E+02 -.829E+02 -.203E+03   0.256E+01 0.354E+01 0.448E+01   -.191E-02 0.271E-02 0.484E-02
   -.188E+03 -.101E+03 -.798E+02   0.217E+03 0.120E+03 0.793E+02   -.298E+02 -.192E+02 0.572E+00   -.541E-02 -.195E-02 0.435E-03
   0.134E+03 -.237E+02 0.216E+03   -.164E+03 0.257E+02 -.235E+03   0.302E+02 -.197E+01 0.190E+02   0.239E-02 0.510E-02 -.714E-04
   -.216E+02 0.127E+03 0.503E+03   0.300E+02 -.150E+03 -.530E+03   -.847E+01 0.237E+02 0.268E+02   0.470E-02 -.173E-04 0.669E-02
   0.110E+02 0.239E+03 0.454E+03   -.117E+02 -.272E+03 -.468E+03   0.746E+00 0.328E+02 0.145E+02   0.220E-02 0.662E-02 0.299E-02
   0.196E+03 0.153E+00 0.215E+03   -.227E+03 0.154E+02 -.225E+03   0.306E+02 -.156E+02 0.106E+02   0.139E-02 -.104E-02 -.619E-04
   -.114E+03 -.178E+03 -.327E+03   0.141E+03 0.194E+03 0.344E+03   -.271E+02 -.160E+02 -.171E+02   -.505E-03 0.180E-03 -.437E-02
   -.576E-01 -.393E+02 0.389E+02   0.434E+00 0.413E+02 -.442E+02   -.363E+00 -.198E+01 0.526E+01   0.688E-03 0.125E-02 0.539E-02
   -.248E+02 -.208E+02 -.273E+03   0.250E+02 0.227E+02 0.282E+03   -.250E+00 -.197E+01 -.921E+01   -.189E-02 -.628E-02 -.509E-02
   -.237E+03 -.394E+02 -.209E+03   0.267E+03 0.555E+02 0.216E+03   -.306E+02 -.162E+02 -.668E+01   -.820E-02 -.142E-02 0.202E-02
   0.179E+03 -.170E+03 0.381E+03   -.209E+03 0.185E+03 -.389E+03   0.303E+02 -.149E+02 0.862E+01   0.891E-03 -.327E-02 0.214E-02
   -.208E+02 0.103E+03 -.454E+03   0.276E+02 -.127E+03 0.482E+03   -.683E+01 0.239E+02 -.283E+02   -.458E-02 0.614E-03 -.144E-03
   -.348E+02 0.678E+02 -.491E+03   0.338E+02 -.890E+02 0.523E+03   0.925E+00 0.212E+02 -.313E+02   0.503E-02 0.156E-02 -.166E-02
   0.187E+03 -.147E+03 0.221E+03   -.209E+03 0.172E+03 -.231E+03   0.224E+02 -.247E+02 0.105E+02   0.360E-02 -.835E-03 0.451E-02
   -.162E+03 -.286E+02 -.233E+03   0.194E+03 0.314E+02 0.250E+03   -.317E+02 -.286E+01 -.171E+02   -.255E-02 -.297E-02 -.427E-02
   -.465E+02 -.320E+01 0.756E+02   0.493E+02 0.357E+01 -.795E+02   -.276E+01 -.424E+00 0.392E+01   0.333E-02 -.829E-03 0.291E-02
   0.551E+02 -.561E+02 -.834E+03   -.562E+02 0.694E+02 0.853E+03   0.110E+01 -.133E+02 -.187E+02   0.273E-02 -.453E-02 0.374E-02
   -.528E+02 -.187E+03 -.206E+03   0.603E+02 0.211E+03 0.195E+03   -.756E+01 -.242E+02 0.109E+02   -.899E-03 -.222E-02 -.230E-02
   0.696E+02 0.214E+03 -.429E+03   -.857E+02 -.265E+03 0.453E+03   0.161E+02 0.513E+02 -.246E+02   0.115E-02 0.377E-02 -.478E-02
 -----------------------------------------------------------------------------------------------
   0.218E+01 -.466E+02 0.150E+02   0.313E-12 0.227E-12 0.171E-11   -.217E+01 0.467E+02 -.150E+02   -.130E-01 -.749E-02 0.313E-01


 POSITION                                       TOTAL-FORCE (eV/Angst)
 -----------------------------------------------------------------------------------
     -0.02930      2.34977      6.12233        -0.017095      0.031059     -0.016589
      1.15892      4.49538      6.30858         0.000359      0.090520      0.034795
     -1.25152      4.38252      6.12160         0.047605      0.067745      0.022663
      5.52866      0.64725      7.53589        -0.051332     -0.029242      0.015730
      3.37356      4.64195      5.93699         0.041226     -0.001382      0.048108
      1.16926      0.56146      6.64996         0.022434      0.035593     -0.042857
     -3.58404      7.91035      7.30817        -0.004504      0.045570      0.016666
     -2.12663      9.86284      7.63405        -0.012761      0.041194      0.014878
     -4.47029     10.07688      7.62188         0.006127      0.002737     -0.005430
      2.30955      6.04896      7.60640         0.015000      0.051437     -0.008169
      0.08740      9.78429      7.38484        -0.003415     -0.050483     -0.011165
     -2.59117      5.94745      7.08729         0.004973      0.073120      0.047622
      6.77199      2.40166      6.86902         0.018473     -0.063527      0.038625
      7.72376      4.24161      5.49710         0.000367      0.010243      0.043354
      5.53900      4.36317      6.33637         0.000877      0.088686      0.099521
     12.09501      0.40159      6.87228         0.020765      0.029109     -0.022046
      9.91637      4.22819      5.41400         0.086795      0.075521      0.029061
      7.92002      0.64432      7.65662         0.028251     -0.009828      0.041009
      3.49451      7.79650      8.32937         0.002181      0.070680      0.006128
      4.56025      9.97187      8.10342         0.018334      0.011242      0.006483
      2.20636      9.86994      8.05992         0.040964      0.030736      0.016504
      8.60059      6.20736      6.03727         0.111763      0.062184      0.055320
      6.74217     10.17459      8.31093         0.010203      0.009616      0.013154
      4.66356      6.06161      7.49718        -0.032453      0.128675      0.022864
     -0.01562      3.73420      6.11461        -0.039926     -0.049798      0.019025
      1.14862      1.72779      6.03817         0.029515     -0.062471      0.015227
      4.46083     -0.05466      7.90959         0.040397      0.058682     -0.031524
      4.51549      4.10125      5.53834        -0.100491     -0.002243      0.006271
      2.18537      4.19761      5.54185         0.059960      0.003020     -0.033313
      5.55607      1.93287      7.25043        -0.067845      0.028743     -0.012111
     -4.43803     10.96802      6.64524        -0.033222     -0.038148      0.048376
      0.03593      0.13406      7.35739        -0.003224     -0.010437      0.023344
     -3.35396      9.23097      7.67053         0.005786     -0.060714     -0.029932
     -2.69915      7.03632      7.82461         0.003767     -0.019560     -0.007938
      1.14084      5.41513      7.34135        -0.038869     -0.065275     -0.075663
      1.23979      9.13667      7.50054        -0.002271      0.027607     -0.037548
     -1.06193      9.12153      7.29397         0.002110     -0.024876     -0.033225
      2.34408      7.06554      8.44589        -0.016807     -0.062028     -0.000129
     -1.44168      5.25994      7.15392         0.006691     -0.062967     -0.057710
      9.75145      5.39719      6.21540         0.004596     -0.065903     -0.024805
      6.70380      3.56301      6.10861        -0.015692      0.109600     -0.079373
      7.96192      1.91104      7.26268         0.038177      0.014858     -0.010725
      4.42027     10.80759      7.07542        -0.013614     -0.004366     -0.013719
     -2.12087      4.00049      5.21204        -0.088486      0.026897     -0.020147
      8.81955      3.58348      5.09363        -0.010369     -0.029125     -0.017625
     12.05523      1.57013      6.26454        -0.010056     -0.056607      0.009471
      8.88905     -0.03477      8.26877        -0.038348     -0.036869     -0.036377
      6.73143     -0.07252      7.40511         0.015489     -0.011448     -0.010345
      3.39605      9.19011      8.38300        -0.028968     -0.037845     -0.049699
      4.68414      7.25559      8.08287         0.018331     -0.087065     -0.029230
      7.57170      5.61229      5.50042        -0.090549     -0.050597     -0.032097
     -5.36937      9.79877      8.56356         0.009189     -0.009033     -0.006147
      5.61600      9.72500      8.86647        -0.030434     -0.021174      0.039574
      8.70568      7.48423      6.46207         0.005279     -0.026694     -0.009484
      5.69970      5.27216      7.31197         0.055327     -0.100338     -0.075458
      3.42746      5.62493      6.95833         0.017021     -0.054232     -0.041509
     -0.26995      6.53109      8.37888        -0.035313     -0.007548      0.066085
     -0.14768      6.62689     11.49211        -0.013969     -0.031431      0.032122
     -0.45990      5.63067     11.96622         0.011681      0.018177      0.050109
 -----------------------------------------------------------------------------------
    total drift:                               -0.012546      0.004611      0.004288


--------------------------------------------------------------------------------------------------------



  FREE ENERGIE OF THE ION-ELECTRON SYSTEM (eV)
  ---------------------------------------------------
  free  energy   TOTEN  =      -495.23768387 eV

  energy  without entropy=     -495.23768387  energy(sigma->0) =     -495.23768387



--------------------------------------------------------------------------------------------------------


    POTLOK:  cpu time    0.1361: real time    0.1361


--------------------------------------------------------------------------------------------------------


     LOOP+:  cpu time  222.3845: real time  222.8319
    4ORBIT:  cpu time    0.0000: real time    0.0000



 total charge     

# of ion       s       p       d       tot
------------------------------------------
    1        0.856   1.742   0.000   2.598
    2        0.842   1.738   0.000   2.580
    3        0.851   1.756   0.000   2.607
    4        0.865   1.749   0.000   2.614
    5        0.860   1.751   0.000   2.611
    6        0.871   1.762   0.000   2.633
    7        0.855   1.740   0.000   2.595
    8        0.858   1.744   0.000   2.602
    9        0.867   1.756   0.000   2.623
   10        0.866   1.770   0.000   2.636
   11        0.871   1.769   0.000   2.640
   12        0.877   1.797   0.000   2.674
   13        0.851   1.727   0.000   2.578
   14        0.852   1.740   0.000   2.592
   15        0.854   1.743   0.000   2.598
   16        0.867   1.753   0.000   2.620
   17        0.860   1.754   0.000   2.614
   18        0.862   1.744   0.000   2.606
   19        0.850   1.723   0.000   2.573
   20        0.858   1.734   0.000   2.592
   21        0.855   1.737   0.000   2.593
   22        0.861   1.739   0.000   2.600
   23        0.870   1.752   0.000   2.622
   24        0.864   1.752   0.000   2.616
   25        1.215   2.779   0.000   3.993
   26        1.274   2.661   0.000   3.936
   27        1.268   2.659   0.000   3.927
   28        1.281   2.639   0.000   3.919
   29        1.277   2.650   0.000   3.928
   30        1.267   2.651   0.000   3.918
   31        1.283   2.656   0.000   3.939
   32        1.233   2.765   0.000   3.998
   33        1.225   2.797   0.000   4.022
   34        1.269   2.677   0.000   3.946
   35        1.243   2.670   0.000   3.913
   36        1.272   2.667   0.000   3.939
   37        1.268   2.661   0.000   3.930
   38        1.262   2.656   0.000   3.918
   39        1.251   2.686   0.000   3.937
   40        1.230   2.783   0.000   4.013
   41        1.222   2.768   0.000   3.990
   42        1.267   2.639   0.000   3.906
   43        1.272   2.657   0.000   3.930
   44        1.275   2.650   0.000   3.926
   45        1.274   2.641   0.000   3.915
   46        1.267   2.656   0.000   3.923
   47        1.270   2.648   0.000   3.918
   48        1.231   2.771   0.000   4.002
   49        1.220   2.740   0.000   3.960
   50        1.269   2.654   0.000   3.923
   51        1.266   2.645   0.000   3.911
   52        1.281   2.643   0.000   3.925
   53        1.279   2.645   0.000   3.924
   54        1.263   2.641   0.000   3.905
   55        1.277   2.644   0.000   3.921
   56        1.228   2.769   0.000   3.997
   57        1.358   0.686  10.046  12.090
   58        1.036   1.435   0.000   2.472
   59        1.639   3.539   0.000   5.178
--------------------------------------------------
tot         64.957 133.502  10.046 208.505



 magnetization (x)

# of ion       s       p       d       tot
------------------------------------------
    1       -0.000  -0.000   0.000  -0.000
    2       -0.000  -0.001   0.000  -0.001
    3        0.000   0.000   0.000   0.000
    4        0.000   0.000   0.000   0.000
    5       -0.000  -0.000   0.000  -0.000
    6        0.000   0.000   0.000   0.000
    7        0.000   0.000   0.000   0.000
    8        0.000   0.000   0.000   0.000
    9        0.000   0.000   0.000   0.000
   10        0.000   0.000   0.000   0.000
   11       -0.000  -0.000   0.000  -0.000
   12       -0.000  -0.000   0.000  -0.000
   13        0.000   0.000   0.000   0.000
   14        0.000   0.001   0.000   0.001
   15       -0.000  -0.000   0.000  -0.000
   16        0.000  -0.000   0.000  -0.000
   17        0.000   0.000   0.000   0.000
   18        0.000   0.000   0.000   0.000
   19       -0.000  -0.000   0.000  -0.000
   20       -0.000  -0.000   0.000  -0.000
   21        0.000   0.000   0.000   0.000
   22        0.000   0.000   0.000   0.000
   23        0.000  -0.000   0.000  -0.000
   24       -0.000  -0.000   0.000  -0.000
   25        0.000  -0.000   0.000  -0.000
   26       -0.000  -0.000   0.000  -0.000
   27       -0.000   0.000   0.000   0.000
   28        0.000   0.000   0.000   0.000
   29        0.000   0.000   0.000   0.000
   30       -0.000   0.000   0.000   0.000
   31        0.000   0.000   0.000   0.000
   32        0.000  -0.000   0.000  -0.000
   33       -0.000   0.000   0.000   0.000
   34        0.000   0.000   0.000   0.000
   35        0.000  -0.000   0.000  -0.000
   36       -0.000   0.000   0.000   0.000
   37       -0.000   0.000   0.000   0.000
   38        0.000  -0.000   0.000  -0.000
   39        0.000   0.000   0.000   0.000
   40        0.000   0.000   0.000   0.000
   41       -0.000  -0.000   0.000  -0.000
   42       -0.000   0.000   0.000   0.000
   43       -0.000  -0.000   0.000  -0.000
   44       -0.000  -0.000   0.000  -0.000
   45        0.000  -0.000   0.000  -0.000
   46        0.000  -0.000   0.000   0.000
   47        0.000   0.000   0.000   0.000
   48        0.000   0.000   0.000   0.000
   49        0.000  -0.000   0.000  -0.000
   50       -0.000   0.000   0.000   0.000
   51        0.000   0.000   0.000   0.000
   52        0.000   0.000   0.000   0.000
   53       -0.000  -0.000   0.000  -0.000
   54       -0.000   0.000   0.000   0.000
   55       -0.000  -0.000   0.000  -0.000
   56       -0.000  -0.000   0.000  -0.000
   57       -0.000  -0.000  -0.000  -0.000
   58       -0.000  -0.000   0.000  -0.000
   59        0.000  -0.000   0.000  -0.000
--------------------------------------------------
tot          0.000   0.000  -0.000   0.000

 BZINTS: Fermi energy: -2.079520;280.000000 electrons
         Band energy:***********;  BLOECHL correction:  0.000000

 total amount of memory used by VASP MPI-rank0    86188. kBytes
=======================================================================

   base      :      30000. kBytes
   nonl-proj :      16940. kBytes
   fftplans  :       3323. kBytes
   grid      :       9764. kBytes
   one-center:        155. kBytes
   wavefun   :      26006. kBytes

  
  
 General timing and accounting informations for this job:
 ========================================================
  
                  Total CPU time used (sec):      233.827
                            User time (sec):      232.860
                          System time (sec):        0.967
                         Elapsed time (sec):      234.602
  
                   Maximum memory used (kb):      165060.
                   Average memory used (kb):           0.
  
                          Minor page faults:        50330
                          Major page faults:            1
                 Voluntary context switches:          997
