       N       E                     dE             d eps       ncg     rms          ort
DAV:   1     0.252583721398E+04    0.25258E+04   -0.11675E+05   768   0.110E+03
DAV:   2    -0.244103678162E+03   -0.27699E+04   -0.26483E+04   768   0.279E+02
DAV:   3    -0.702645577191E+03   -0.45854E+03   -0.45518E+03   768   0.120E+02
DAV:   4    -0.719222556049E+03   -0.16577E+02   -0.16434E+02   768   0.280E+01
DAV:   5    -0.719758788496E+03   -0.53623E+00   -0.53460E+00   768   0.424E+00
SDA:   6    -0.549722710427E+03    0.17004E+03   -0.53460E+00   768   0.499E+03 0.000E+00
CGA:   7    -0.602383304948E+03   -0.52661E+02   -0.25337E+02   768   0.340E+03 0.474E+03
CGA:   8    -0.637964266584E+03   -0.35581E+02   -0.15531E+02   768   0.164E+03 0.300E+03
CGA:   9    -0.651194026674E+03   -0.13230E+02   -0.88472E+01   768   0.365E+02 0.374E+02
CGA:  10    -0.658501772250E+03   -0.73077E+01   -0.72846E+01   768   0.243E+02-0.551E+00
CGA:  11    -0.660370813074E+03   -0.18690E+01   -0.17930E+01   768   0.599E+01 0.951E+00
CGA:  12    -0.661193211724E+03   -0.82240E+00   -0.82168E+00   768   0.653E+01-0.236E-01
CGA:  13    -0.661809466457E+03   -0.61625E+00   -0.46684E+00   768   0.220E+01 0.184E+01
CGA:  14    -0.661966834955E+03   -0.15737E+00   -0.13944E+00   768   0.103E+01 0.253E+00
CGA:  15    -0.662098215266E+03   -0.13138E+00   -0.13038E+00   768   0.184E+01 0.234E-03
CGA:  16    -0.662183157845E+03   -0.84943E-01   -0.56488E-01   768   0.126E+01 0.928E+00
CGA:  17    -0.662272601433E+03   -0.89444E-01   -0.97093E-01   768   0.330E+00-0.453E-01
CGA:  18    -0.662366142741E+03   -0.93541E-01   -0.91390E-01   768   0.177E+00 0.135E-01
CGA:  19    -0.662412193658E+03   -0.46051E-01   -0.44977E-01   768   0.189E+00 0.860E-02
CGA:  20    -0.662443255655E+03   -0.31062E-01   -0.30985E-01   768   0.930E-01-0.143E-01
CGA:  21    -0.662462473029E+03   -0.19217E-01   -0.19440E-01   768   0.385E-01-0.311E-02
CGA:  22    -0.662472973018E+03   -0.10500E-01   -0.10333E-01   768   0.365E-01 0.117E-02
CGA:  23    -0.662478789519E+03   -0.58165E-02   -0.58953E-02   768   0.170E-01 0.296E-02
CGA:  24    -0.662483087806E+03   -0.42983E-02   -0.42019E-02   768   0.106E-01 0.119E-02
CGA:  25    -0.662485799319E+03   -0.27115E-02   -0.26406E-02   768   0.111E-01 0.803E-03
CGA:  26    -0.662488837612E+03   -0.30383E-02   -0.30594E-02   768   0.729E-02-0.143E-03
CGA:  27    -0.662490169756E+03   -0.13321E-02   -0.13296E-02   768   0.328E-02 0.170E-03
CGA:  28    -0.662490979347E+03   -0.80959E-03   -0.81437E-03   768   0.218E-02-0.500E-04
CGA:  29    -0.662491381006E+03   -0.40166E-03   -0.40142E-03   768   0.109E-02 0.946E-05
CGA:  30    -0.662491677853E+03   -0.29685E-03   -0.29962E-03   768   0.754E-03-0.239E-04
CGA:  31    -0.662491815432E+03   -0.13758E-03   -0.13758E-03   768   0.438E-03-0.301E-05
CGA:  32    -0.662491942555E+03   -0.12712E-03   -0.12793E-03   768   0.301E-03-0.628E-05
CGA:  33    -0.662491998033E+03   -0.55478E-04   -0.55484E-04   768   0.165E-03 0.991E-07
   1 F= -.66902822E+03 E0= -.66900946E+03  d E =-.669028E+03  mag=     1.7110
       N       E                     dE             d eps       ncg     rms          ort
SDA:   1    -0.661448046165E+03    0.10439E+01    0.00000E+00   768   0.342E+01 0.000E+00
CGA:   2    -0.661937897959E+03   -0.48985E+00   -0.49133E+00   768   0.154E+01 0.502E-02
CGA:   3    -0.662235830612E+03   -0.29793E+00   -0.29798E+00   768   0.967E+00-0.166E-01
CGA:   4    -0.662407168175E+03   -0.17134E+00   -0.17149E+00   768   0.334E+00 0.586E-02
CGA:   5    -0.662466621191E+03   -0.59453E-01   -0.59433E-01   768   0.110E+00-0.590E-03
CGA:   6    -0.662488393279E+03   -0.21772E-01   -0.21767E-01   768   0.460E-01 0.380E-03
CGA:   7    -0.662497986295E+03   -0.95930E-02   -0.95987E-02   768   0.233E-01-0.192E-03
CGA:   8    -0.662501912038E+03   -0.39257E-02   -0.39274E-02   768   0.101E-01 0.442E-04
CGA:   9    -0.662503659425E+03   -0.17474E-02   -0.17470E-02   768   0.318E-02-0.146E-05
CGA:  10    -0.662504288303E+03   -0.62888E-03   -0.62878E-03   768   0.100E-02 0.955E-05
CGA:  11    -0.662504487603E+03   -0.19930E-03   -0.19930E-03   768   0.492E-03-0.612E-07
CGA:  12    -0.662504565972E+03   -0.78369E-04   -0.78380E-04   768   0.184E-03 0.726E-06
   2 F= -.66904067E+03 E0= -.66902213E+03  d E =-.124466E-01  mag=     1.6376
       N       E                     dE             d eps       ncg     rms          ort
SDA:   1    -0.662382198257E+03    0.12229E+00    0.00000E+00   768   0.406E+00 0.000E+00
CGA:   2    -0.662442177507E+03   -0.59979E-01   -0.59943E-01   768   0.184E+00-0.302E-03
CGA:   3    -0.662477800240E+03   -0.35623E-01   -0.35619E-01   768   0.112E+00 0.404E-03
CGA:   4    -0.662497915220E+03   -0.20115E-01   -0.20110E-01   768   0.419E-01-0.294E-03
CGA:   5    -0.662505074880E+03   -0.71597E-02   -0.71606E-02   768   0.137E-01 0.117E-04
CGA:   6    -0.662507753275E+03   -0.26784E-02   -0.26787E-02   768   0.598E-02-0.172E-04
CGA:   7    -0.662508906580E+03   -0.11533E-02   -0.11532E-02   768   0.305E-02 0.484E-05
CGA:   8    -0.662509412702E+03   -0.50612E-03   -0.50589E-03   768   0.126E-02-0.844E-05
CGA:   9    -0.662509642197E+03   -0.22950E-03   -0.22948E-03   768   0.389E-03-0.433E-05
CGA:  10    -0.662509719032E+03   -0.76835E-04   -0.76872E-04   768   0.131E-03-0.315E-05
   3 F= -.66904587E+03 E0= -.66902722E+03  d E =-.176479E-01  mag=     1.6542
       N       E                     dE             d eps       ncg     rms          ort
SDA:   1    -0.662225007755E+03    0.28463E+00    0.00000E+00   768   0.107E+01 0.000E+00
CGA:   2    -0.662362169173E+03   -0.13716E+00   -0.13750E+00   768   0.401E+00 0.383E-03
CGA:   3    -0.662441496344E+03   -0.79327E-01   -0.79402E-01   768   0.283E+00-0.343E-02
CGA:   4    -0.662495969009E+03   -0.54473E-01   -0.54444E-01   768   0.120E+00 0.168E-02
CGA:   5    -0.662518176371E+03   -0.22207E-01   -0.22207E-01   768   0.400E-01-0.236E-03
CGA:   6    -0.662525434098E+03   -0.72577E-02   -0.72582E-02   768   0.143E-01 0.859E-04
CGA:   7    -0.662528148775E+03   -0.27147E-02   -0.27149E-02   768   0.698E-02-0.147E-04
CGA:   8    -0.662529299593E+03   -0.11508E-02   -0.11511E-02   768   0.290E-02 0.146E-04
CGA:   9    -0.662529811634E+03   -0.51204E-03   -0.51206E-03   768   0.873E-03 0.458E-05
CGA:  10    -0.662529984960E+03   -0.17333E-03   -0.17328E-03   768   0.303E-03 0.338E-05
CGA:  11    -0.662530041420E+03   -0.56460E-04   -0.56461E-04   768   0.159E-03-0.631E-06
   4 F= -.66906585E+03 E0= -.66904744E+03  d E =-.199780E-01  mag=     1.6070
       N       E                     dE             d eps       ncg     rms          ort
SDA:   1    -0.659825150078E+03    0.27048E+01    0.00000E+00   768   0.996E+01 0.000E+00
CGA:   2    -0.661049127944E+03   -0.12240E+01   -0.12347E+01   768   0.369E+01-0.174E-01
CGA:   3    -0.661758225896E+03   -0.70910E+00   -0.71104E+00   768   0.268E+01-0.109E+00
CGA:   4    -0.662263933745E+03   -0.50571E+00   -0.50461E+00   768   0.104E+01 0.528E-01
CGA:   5    -0.662467292936E+03   -0.20336E+00   -0.20346E+00   768   0.352E+00-0.546E-02
CGA:   6    -0.662531652577E+03   -0.64360E-01   -0.64354E-01   768   0.124E+00 0.219E-02
CGA:   7    -0.662556454170E+03   -0.24802E-01   -0.24819E-01   768   0.604E-01-0.665E-03
CGA:   8    -0.662566607714E+03   -0.10154E-01   -0.10157E-01   768   0.264E-01 0.152E-03
CGA:   9    -0.662571047073E+03   -0.44394E-02   -0.44376E-02   768   0.850E-02-0.431E-04
CGA:  10    -0.662572717080E+03   -0.16700E-02   -0.16698E-02   768   0.285E-02 0.127E-04
CGA:  11    -0.662573310297E+03   -0.59322E-03   -0.59342E-03   768   0.163E-02-0.663E-05
CGA:  12    -0.662573588270E+03   -0.27797E-03   -0.27791E-03   768   0.827E-03-0.205E-05
CGA:  13    -0.662573805547E+03   -0.21728E-03   -0.21757E-03   768   0.548E-03-0.391E-05
CGA:  14    -0.662573944881E+03   -0.13933E-03   -0.13945E-03   768   0.554E-03-0.961E-06
CGA:  15    -0.662574057245E+03   -0.11236E-03   -0.11236E-03   768   0.318E-03-0.427E-06
CGA:  16    -0.662574146390E+03   -0.89145E-04   -0.89064E-04   768   0.205E-03 0.132E-05
   5 F= -.66910937E+03 E0= -.66909352E+03  d E =-.634984E-01  mag=     1.4530
       N       E                     dE             d eps       ncg     rms          ort
SDA:   1    -0.651507860997E+03    0.11066E+02    0.00000E+00   768   0.430E+02 0.000E+00
CGA:   2    -0.656357162176E+03   -0.48493E+01   -0.49785E+01   768   0.158E+02-0.668E+00
CGA:   3    -0.659155114262E+03   -0.27980E+01   -0.27798E+01   768   0.112E+02-0.749E+00
CGA:   4    -0.661289985036E+03   -0.21349E+01   -0.21282E+01   768   0.391E+01 0.472E+00
CGA:   5    -0.662120578239E+03   -0.83059E+00   -0.83025E+00   768   0.138E+01 0.233E-01
CGA:   6    -0.662385400607E+03   -0.26482E+00   -0.26482E+00   768   0.513E+00 0.203E-03
CGA:   7    -0.662492590824E+03   -0.10719E+00   -0.10702E+00   768   0.223E+00 0.669E-02
CGA:   8    -0.662534216438E+03   -0.41626E-01   -0.41598E-01   768   0.115E+00-0.145E-02
CGA:   9    -0.662551634479E+03   -0.17418E-01   -0.17460E-01   768   0.367E-01 0.322E-03
CGA:  10    -0.662558857877E+03   -0.72234E-02   -0.72245E-02   768   0.118E-01-0.110E-03
CGA:  11    -0.662561745549E+03   -0.28877E-02   -0.28861E-02   768   0.524E-02 0.216E-04
CGA:  12    -0.662562827163E+03   -0.10816E-02   -0.10820E-02   768   0.414E-02-0.219E-04
CGA:  13    -0.662563570022E+03   -0.74286E-03   -0.74284E-03   768   0.201E-02-0.119E-05
CGA:  14    -0.662564226567E+03   -0.65654E-03   -0.65797E-03   768   0.136E-02-0.111E-04
CGA:  15    -0.662564566846E+03   -0.34028E-03   -0.34012E-03   768   0.136E-02 0.387E-05
CGA:  16    -0.662564803235E+03   -0.23639E-03   -0.23629E-03   768   0.526E-03-0.188E-05
CGA:  17    -0.662564959611E+03   -0.15638E-03   -0.15623E-03   768   0.286E-03 0.170E-05
CGA:  18    -0.662565018560E+03   -0.58949E-04   -0.58949E-04   768   0.231E-03-0.119E-05
   6 F= -.66910248E+03 E0= -.66909146E+03  d E =-.566158E-01  mag=     1.3410
       N       E                     dE             d eps       ncg     rms          ort
SDA:   1    -0.658643346199E+03    0.39216E+01    0.00000E+00   768   0.134E+02 0.000E+00
CGA:   2    -0.660489028038E+03   -0.18457E+01   -0.18434E+01   768   0.498E+01-0.586E-01
CGA:   3    -0.661507807068E+03   -0.10188E+01   -0.10186E+01   768   0.350E+01 0.427E-02
CGA:   4    -0.662167444882E+03   -0.65964E+00   -0.65796E+00   768   0.157E+01-0.626E-01
CGA:   5    -0.662436562933E+03   -0.26912E+00   -0.26970E+00   768   0.505E+00 0.473E-02
CGA:   6    -0.662528359235E+03   -0.91796E-01   -0.91616E-01   768   0.198E+00-0.431E-02
CGA:   7    -0.662562546289E+03   -0.34187E-01   -0.34229E-01   768   0.914E-01 0.511E-03
CGA:   8    -0.662577815542E+03   -0.15269E-01   -0.15240E-01   768   0.377E-01-0.353E-03
CGA:   9    -0.662584596914E+03   -0.67814E-02   -0.67835E-02   768   0.112E-01 0.472E-04
CGA:  10    -0.662586711590E+03   -0.21147E-02   -0.21144E-02   768   0.408E-02-0.312E-04
CGA:  11    -0.662587377445E+03   -0.66585E-03   -0.66589E-03   768   0.177E-02 0.208E-06
CGA:  12    -0.662587696966E+03   -0.31952E-03   -0.31951E-03   768   0.658E-03-0.105E-05
CGA:  13    -0.662587847525E+03   -0.15056E-03   -0.15048E-03   768   0.396E-03 0.252E-05
CGA:  14    -0.662587923639E+03   -0.76114E-04   -0.76118E-04   768   0.279E-03 0.718E-06
   7 F= -.66912356E+03 E0= -.66911048E+03  d E =-.776969E-01  mag=     1.3750
       N       E                     dE             d eps       ncg     rms          ort
SDA:   1    -0.661995693308E+03    0.59215E+00    0.00000E+00   768   0.210E+01 0.000E+00
CGA:   2    -0.662274906181E+03   -0.27921E+00   -0.28023E+00   768   0.921E+00-0.911E-03
CGA:   3    -0.662446140677E+03   -0.17123E+00   -0.17111E+00   768   0.587E+00-0.901E-02
CGA:   4    -0.662553415294E+03   -0.10727E+00   -0.10734E+00   768   0.209E+00 0.404E-02
CGA:   5    -0.662591335879E+03   -0.37921E-01   -0.37910E-01   768   0.698E-01-0.305E-03
CGA:   6    -0.662604165123E+03   -0.12829E-01   -0.12834E-01   768   0.310E-01 0.298E-03
CGA:   7    -0.662609730396E+03   -0.55653E-02   -0.55638E-02   768   0.160E-01-0.377E-04
CGA:   8    -0.662612477996E+03   -0.27476E-02   -0.27491E-02   768   0.625E-02 0.433E-04
CGA:   9    -0.662613668059E+03   -0.11901E-02   -0.11901E-02   768   0.195E-02-0.438E-05
CGA:  10    -0.662614020370E+03   -0.35231E-03   -0.35237E-03   768   0.765E-03 0.475E-05
CGA:  11    -0.662614143018E+03   -0.12265E-03   -0.12264E-03   768   0.291E-03-0.128E-06
CGA:  12    -0.662614198295E+03   -0.55278E-04   -0.55277E-04   768   0.103E-03 0.782E-06
   8 F= -.66915062E+03 E0= -.66913747E+03  d E =-.270581E-01  mag=     1.3730
       N       E                     dE             d eps       ncg     rms          ort
SDA:   1    -0.659412501861E+03    0.32016E+01    0.00000E+00   768   0.114E+02 0.000E+00
CGA:   2    -0.660842348508E+03   -0.14298E+01   -0.14413E+01   768   0.492E+01-0.336E-01
CGA:   3    -0.661739443465E+03   -0.89709E+00   -0.89642E+00   768   0.317E+01-0.114E+00
CGA:   4    -0.662319004202E+03   -0.57956E+00   -0.57948E+00   768   0.104E+01 0.558E-01
CGA:   5    -0.662517931070E+03   -0.19893E+00   -0.19893E+00   768   0.357E+00-0.255E-02
CGA:   6    -0.662584931738E+03   -0.67001E-01   -0.66992E-01   768   0.156E+00 0.348E-02
CGA:   7    -0.662613557119E+03   -0.28625E-01   -0.28619E-01   768   0.855E-01-0.689E-03
CGA:   8    -0.662627688226E+03   -0.14131E-01   -0.14144E-01   768   0.339E-01 0.310E-03
CGA:   9    -0.662634098892E+03   -0.64107E-02   -0.64112E-02   768   0.104E-01-0.985E-04
CGA:  10    -0.662636056312E+03   -0.19574E-02   -0.19573E-02   768   0.404E-02 0.221E-04
CGA:  11    -0.662636715270E+03   -0.65896E-03   -0.65879E-03   768   0.181E-02-0.389E-05
CGA:  12    -0.662637045453E+03   -0.33018E-03   -0.33018E-03   768   0.655E-03 0.114E-05
CGA:  13    -0.662637203844E+03   -0.15839E-03   -0.15854E-03   768   0.448E-03-0.280E-05
CGA:  14    -0.662637281781E+03   -0.77938E-04   -0.77934E-04   768   0.289E-03 0.180E-06
   9 F= -.66917615E+03 E0= -.66916203E+03  d E =-.525827E-01  mag=     1.3827
       N       E                     dE             d eps       ncg     rms          ort
SDA:   1    -0.661979099878E+03    0.65810E+00    0.00000E+00   768   0.208E+01 0.000E+00
CGA:   2    -0.662305043198E+03   -0.32594E+00   -0.32543E+00   768   0.141E+01-0.594E-02
CGA:   3    -0.662529112911E+03   -0.22407E+00   -0.22405E+00   768   0.579E+00-0.123E-02
CGA:   4    -0.662633388026E+03   -0.10428E+00   -0.10430E+00   768   0.134E+00 0.190E-02
CGA:   5    -0.662656397116E+03   -0.23009E-01   -0.23010E-01   768   0.418E-01 0.933E-04
CGA:   6    -0.662664697964E+03   -0.83008E-02   -0.82989E-02   768   0.186E-01 0.126E-03
CGA:   7    -0.662668086135E+03   -0.33882E-02   -0.33881E-02   768   0.102E-01 0.464E-05
CGA:   8    -0.662669859613E+03   -0.17735E-02   -0.17739E-02   768   0.497E-02 0.187E-04
CGA:   9    -0.662670802515E+03   -0.94290E-03   -0.94293E-03   768   0.175E-02-0.561E-05
CGA:  10    -0.662671177034E+03   -0.37452E-03   -0.37433E-03   768   0.781E-03 0.582E-05
CGA:  11    -0.662671306207E+03   -0.12917E-03   -0.12919E-03   768   0.371E-03 0.938E-06
CGA:  12    -0.662671371028E+03   -0.64821E-04   -0.64841E-04   768   0.127E-03 0.169E-05
  10 F= -.66921223E+03 E0= -.66919741E+03  d E =-.360848E-01  mag=     1.3987
       N       E                     dE             d eps       ncg     rms          ort
SDA:   1    -0.661592782630E+03    0.10785E+01    0.00000E+00   768   0.333E+01 0.000E+00
CGA:   2    -0.662108331675E+03   -0.51555E+00   -0.51501E+00   768   0.227E+01-0.862E-02
CGA:   3    -0.662469040112E+03   -0.36071E+00   -0.36063E+00   768   0.937E+00-0.281E-02
CGA:   4    -0.662637849878E+03   -0.16881E+00   -0.16884E+00   768   0.211E+00 0.413E-02
CGA:   5    -0.662674533516E+03   -0.36684E-01   -0.36684E-01   768   0.668E-01 0.166E-03
CGA:   6    -0.662687874974E+03   -0.13341E-01   -0.13337E-01   768   0.299E-01 0.231E-03
CGA:   7    -0.662693394202E+03   -0.55192E-02   -0.55192E-02   768   0.167E-01-0.116E-05
CGA:   8    -0.662696226830E+03   -0.28326E-02   -0.28336E-02   768   0.815E-02 0.363E-04
CGA:   9    -0.662697749550E+03   -0.15227E-02   -0.15228E-02   768   0.280E-02-0.103E-04
CGA:  10    -0.662698351110E+03   -0.60156E-03   -0.60125E-03   768   0.123E-02 0.839E-05
CGA:  11    -0.662698550866E+03   -0.19976E-03   -0.19978E-03   768   0.581E-03 0.986E-06
CGA:  12    -0.662698649768E+03   -0.98901E-04   -0.98932E-04   768   0.188E-03 0.205E-05
  11 F= -.66924211E+03 E0= -.66922580E+03  d E =-.659636E-01  mag=     1.4329
       N       E                     dE             d eps       ncg     rms          ort
SDA:   1    -0.658301043027E+03    0.43975E+01    0.00000E+00   768   0.135E+02 0.000E+00
CGA:   2    -0.660309938786E+03   -0.20089E+01   -0.20130E+01   768   0.909E+01 0.592E-03
CGA:   3    -0.661776805340E+03   -0.14669E+01   -0.14655E+01   768   0.377E+01-0.329E-01
CGA:   4    -0.662452061712E+03   -0.67526E+00   -0.67544E+00   768   0.820E+00 0.335E-01
CGA:   5    -0.662598348514E+03   -0.14629E+00   -0.14629E+00   768   0.270E+00 0.134E-02
CGA:   6    -0.662654388305E+03   -0.56040E-01   -0.56002E-01   768   0.116E+00 0.132E-02
CGA:   7    -0.662678314648E+03   -0.23926E-01   -0.23937E-01   768   0.620E-01-0.241E-03
CGA:   8    -0.662689316257E+03   -0.11002E-01   -0.11006E-01   768   0.348E-01 0.335E-03
CGA:   9    -0.662694862579E+03   -0.55463E-02   -0.55441E-02   768   0.119E-01-0.316E-04
CGA:  10    -0.662697429096E+03   -0.25665E-02   -0.25649E-02   768   0.421E-02 0.356E-04
CGA:  11    -0.662698260214E+03   -0.83112E-03   -0.83114E-03   768   0.215E-02-0.115E-05
CGA:  12    -0.662698571726E+03   -0.31151E-03   -0.31162E-03   768   0.803E-03 0.252E-05
CGA:  13    -0.662698743188E+03   -0.17146E-03   -0.17150E-03   768   0.305E-03-0.147E-05
CGA:  14    -0.662698811138E+03   -0.67949E-04   -0.67924E-04   768   0.244E-03 0.800E-06
  12 F= -.66924756E+03 E0= -.66922688E+03  d E =-.714106E-01  mag=     1.5627
       N       E                     dE             d eps       ncg     rms          ort
SDA:   1    -0.661726120743E+03    0.97262E+00    0.00000E+00   768   0.300E+01 0.000E+00
CGA:   2    -0.662191784392E+03   -0.46566E+00   -0.46607E+00   768   0.192E+01 0.431E-02
CGA:   3    -0.662496126235E+03   -0.30434E+00   -0.30431E+00   768   0.850E+00 0.117E-02
CGA:   4    -0.662655550234E+03   -0.15942E+00   -0.15945E+00   768   0.190E+00-0.389E-02
CGA:   5    -0.662687150042E+03   -0.31600E-01   -0.31604E-01   768   0.637E-01-0.638E-05
CGA:   6    -0.662698477475E+03   -0.11327E-01   -0.11326E-01   768   0.309E-01-0.207E-03
CGA:   7    -0.662703524055E+03   -0.50466E-02   -0.50471E-02   768   0.145E-01-0.300E-05
CGA:   8    -0.662706335623E+03   -0.28116E-02   -0.28122E-02   768   0.683E-02-0.368E-04
CGA:   9    -0.662707675863E+03   -0.13402E-02   -0.13400E-02   768   0.272E-02 0.129E-04
CGA:  10    -0.662708160388E+03   -0.48453E-03   -0.48449E-03   768   0.131E-02-0.580E-05
CGA:  11    -0.662708370400E+03   -0.21001E-03   -0.20999E-03   768   0.437E-03-0.157E-05
CGA:  12    -0.662708458727E+03   -0.88327E-04   -0.88379E-04   768   0.171E-03-0.248E-05
  13 F= -.66925471E+03 E0= -.66923641E+03  d E =-.785668E-01  mag=     1.4881
       N       E                     dE             d eps       ncg     rms          ort
SDA:   1    -0.661935616375E+03    0.77275E+00    0.00000E+00   768   0.210E+01 0.000E+00
CGA:   2    -0.662336199860E+03   -0.40058E+00   -0.40063E+00   768   0.187E+01-0.327E-02
CGA:   3    -0.662602733269E+03   -0.26653E+00   -0.26682E+00   768   0.608E+00 0.167E-02
CGA:   4    -0.662712508437E+03   -0.10978E+00   -0.10977E+00   768   0.103E+00 0.918E-03
CGA:   5    -0.662732415945E+03   -0.19908E-01   -0.19907E-01   768   0.395E-01 0.474E-04
CGA:   6    -0.662739603938E+03   -0.71880E-02   -0.71880E-02   768   0.138E-01 0.223E-04
CGA:   7    -0.662742588891E+03   -0.29850E-02   -0.29861E-02   768   0.693E-02-0.200E-04
CGA:   8    -0.662744024685E+03   -0.14358E-02   -0.14356E-02   768   0.426E-02 0.315E-05
CGA:   9    -0.662744654951E+03   -0.63027E-03   -0.63002E-03   768   0.179E-02-0.664E-05
CGA:  10    -0.662745030320E+03   -0.37537E-03   -0.37534E-03   768   0.610E-03 0.643E-06
CGA:  11    -0.662745167947E+03   -0.13763E-03   -0.13763E-03   768   0.249E-03-0.167E-06
CGA:  12    -0.662745209233E+03   -0.41286E-04   -0.41302E-04   768   0.136E-03 0.859E-06
  14 F= -.66929390E+03 E0= -.66927405E+03  d E =-.391908E-01  mag=     1.5285
       N       E                     dE             d eps       ncg     rms          ort
SDA:   1    -0.662542206958E+03    0.20296E+00    0.00000E+00   768   0.542E+00 0.000E+00
CGA:   2    -0.662643606140E+03   -0.10140E+00   -0.10140E+00   768   0.469E+00-0.135E-04
CGA:   3    -0.662712561837E+03   -0.68956E-01   -0.68983E-01   768   0.155E+00 0.162E-03
CGA:   4    -0.662740630282E+03   -0.28068E-01   -0.28069E-01   768   0.257E-01 0.135E-04
CGA:   5    -0.662745586522E+03   -0.49562E-02   -0.49560E-02   768   0.100E-01 0.218E-04
CGA:   6    -0.662747338014E+03   -0.17515E-02   -0.17516E-02   768   0.354E-02 0.140E-04
CGA:   7    -0.662748063201E+03   -0.72519E-03   -0.72523E-03   768   0.198E-02-0.936E-06
CGA:   8    -0.662748418381E+03   -0.35518E-03   -0.35518E-03   768   0.117E-02-0.188E-05
CGA:   9    -0.662748617467E+03   -0.19909E-03   -0.19904E-03   768   0.436E-03-0.391E-05
CGA:  10    -0.662748717883E+03   -0.10042E-03   -0.10042E-03   768   0.176E-03-0.160E-06
CGA:  11    -0.662748752023E+03   -0.34140E-04   -0.34141E-04   768   0.967E-04-0.160E-06
  15 F= -.66929867E+03 E0= -.66927795E+03  d E =-.439547E-01  mag=     1.5504
       N       E                     dE             d eps       ncg     rms          ort
SDA:   1    -0.661605824273E+03    0.11429E+01    0.00000E+00   768   0.302E+01 0.000E+00
CGA:   2    -0.662227897523E+03   -0.62207E+00   -0.62151E+00   768   0.214E+01 0.123E-01
CGA:   3    -0.662571169333E+03   -0.34327E+00   -0.34241E+00   768   0.988E+00-0.162E-01
CGA:   4    -0.662714680445E+03   -0.14351E+00   -0.14368E+00   768   0.209E+00 0.485E-03
CGA:   5    -0.662753295107E+03   -0.38615E-01   -0.38618E-01   768   0.811E-01-0.654E-03
CGA:   6    -0.662768174280E+03   -0.14879E-01   -0.14879E-01   768   0.378E-01 0.168E-03
CGA:   7    -0.662774479072E+03   -0.63048E-02   -0.63023E-02   768   0.193E-01-0.747E-04
CGA:   8    -0.662778070736E+03   -0.35917E-02   -0.35913E-02   768   0.793E-02 0.357E-04
CGA:   9    -0.662779658424E+03   -0.15877E-02   -0.15884E-02   768   0.334E-02-0.276E-04
CGA:  10    -0.662780243801E+03   -0.58538E-03   -0.58542E-03   768   0.155E-02 0.419E-05
CGA:  11    -0.662780493676E+03   -0.24987E-03   -0.24988E-03   768   0.508E-03 0.961E-06
CGA:  12    -0.662780596408E+03   -0.10273E-03   -0.10268E-03   768   0.206E-03 0.256E-05
CGA:  13    -0.662780631615E+03   -0.35207E-04   -0.35211E-04   768   0.109E-03 0.288E-06
  16 F= -.66933208E+03 E0= -.66931083E+03  d E =-.334152E-01  mag=     1.5303
       N       E                     dE             d eps       ncg     rms          ort
SDA:   1    -0.662597797580E+03    0.18280E+00    0.00000E+00   768   0.473E+00 0.000E+00
CGA:   2    -0.662696247138E+03   -0.98450E-01   -0.98412E-01   768   0.335E+00 0.723E-03
CGA:   3    -0.662749583423E+03   -0.53336E-01   -0.53287E-01   768   0.156E+00-0.981E-03
CGA:   4    -0.662772375037E+03   -0.22792E-01   -0.22800E-01   768   0.334E-01-0.214E-04
CGA:   5    -0.662778458023E+03   -0.60830E-02   -0.60831E-02   768   0.130E-01-0.368E-04
CGA:   6    -0.662780813350E+03   -0.23553E-02   -0.23553E-02   768   0.598E-02 0.148E-04
CGA:   7    -0.662781828575E+03   -0.10152E-02   -0.10151E-02   768   0.310E-02-0.666E-05
CGA:   8    -0.662782404535E+03   -0.57596E-03   -0.57597E-03   768   0.131E-02-0.354E-05
CGA:   9    -0.662782664565E+03   -0.26003E-03   -0.26016E-03   768   0.558E-03-0.633E-05
CGA:  10    -0.662782761333E+03   -0.96768E-04   -0.96773E-04   768   0.260E-03 0.551E-06
  17 F= -.66933481E+03 E0= -.66931332E+03  d E =-.361382E-01  mag=     1.5185
       N       E                     dE             d eps       ncg     rms          ort
SDA:   1    -0.662231460828E+03    0.55120E+00    0.00000E+00   768   0.152E+01 0.000E+00
CGA:   2    -0.662510632548E+03   -0.27917E+00   -0.27915E+00   768   0.880E+00 0.100E-02
CGA:   3    -0.662685390270E+03   -0.17476E+00   -0.17499E+00   768   0.541E+00-0.867E-02
CGA:   4    -0.662763887899E+03   -0.78498E-01   -0.78603E-01   768   0.146E+00 0.273E-03
CGA:   5    -0.662789046141E+03   -0.25158E-01   -0.25150E-01   768   0.553E-01-0.580E-03
CGA:   6    -0.662798943840E+03   -0.98977E-02   -0.98975E-02   768   0.276E-01 0.103E-03
CGA:   7    -0.662803658005E+03   -0.47142E-02   -0.47129E-02   768   0.144E-01-0.753E-04
CGA:   8    -0.662806215901E+03   -0.25579E-02   -0.25579E-02   768   0.561E-02 0.128E-04
CGA:   9    -0.662807285573E+03   -0.10697E-02   -0.10699E-02   768   0.211E-02-0.170E-04
CGA:  10    -0.662807635260E+03   -0.34969E-03   -0.34971E-03   768   0.909E-03 0.784E-06
CGA:  11    -0.662807781331E+03   -0.14607E-03   -0.14607E-03   768   0.321E-03 0.165E-06
CGA:  12    -0.662807848328E+03   -0.66997E-04   -0.66951E-04   768   0.158E-03 0.151E-05
  18 F= -.66936063E+03 E0= -.66933561E+03  d E =-.258223E-01  mag=     1.6135
       N       E                     dE             d eps       ncg     rms          ort
SDA:   1    -0.661364950197E+03    0.14428E+01    0.00000E+00   768   0.385E+01 0.000E+00
CGA:   2    -0.662069702874E+03   -0.70475E+00   -0.70467E+00   768   0.223E+01 0.502E-02
CGA:   3    -0.662509756646E+03   -0.44005E+00   -0.44107E+00   768   0.142E+01-0.395E-01
CGA:   4    -0.662709927152E+03   -0.20017E+00   -0.20068E+00   768   0.376E+00 0.112E-02
CGA:   5    -0.662774610129E+03   -0.64683E-01   -0.64652E-01   768   0.145E+00-0.245E-02
CGA:   6    -0.662799525319E+03   -0.24915E-01   -0.24920E-01   768   0.721E-01 0.392E-03
CGA:   7    -0.662811903796E+03   -0.12378E-01   -0.12375E-01   768   0.369E-01-0.271E-03
CGA:   8    -0.662818610186E+03   -0.67064E-02   -0.67057E-02   768   0.150E-01 0.835E-04
CGA:   9    -0.662821414849E+03   -0.28047E-02   -0.28052E-02   768   0.613E-02-0.439E-04
CGA:  10    -0.662822404816E+03   -0.98997E-03   -0.99012E-03   768   0.262E-02 0.334E-05
CGA:  11    -0.662822852302E+03   -0.44749E-03   -0.44749E-03   768   0.101E-02 0.151E-06
CGA:  12    -0.662823070269E+03   -0.21797E-03   -0.21792E-03   768   0.617E-03 0.154E-05
CGA:  13    -0.662823190761E+03   -0.12049E-03   -0.12047E-03   768   0.456E-03 0.810E-06
CGA:  14    -0.662823300261E+03   -0.10950E-03   -0.10958E-03   768   0.355E-03-0.742E-06
CGA:  15    -0.662823391061E+03   -0.90801E-04   -0.90736E-04   768   0.326E-03 0.261E-06
  19 F= -.66937725E+03 E0= -.66934649E+03  d E =-.424387E-01  mag=     1.8888
       N       E                     dE             d eps       ncg     rms          ort
SDA:   1    -0.662213752321E+03    0.60955E+00    0.00000E+00   768   0.155E+01 0.000E+00
CGA:   2    -0.662563149666E+03   -0.34940E+00   -0.34942E+00   768   0.999E+00-0.771E-03
CGA:   3    -0.662745510414E+03   -0.18236E+00   -0.18236E+00   768   0.448E+00-0.560E-04
CGA:   4    -0.662809743632E+03   -0.64233E-01   -0.64219E-01   768   0.122E+00-0.164E-03
CGA:   5    -0.662831357459E+03   -0.21614E-01   -0.21616E-01   768   0.439E-01 0.476E-04
CGA:   6    -0.662840187138E+03   -0.88297E-02   -0.88319E-02   768   0.205E-01-0.949E-04
CGA:   7    -0.662844068030E+03   -0.38809E-02   -0.38808E-02   768   0.129E-01 0.212E-04
CGA:   8    -0.662846031454E+03   -0.19634E-02   -0.19622E-02   768   0.606E-02-0.187E-04
CGA:   9    -0.662847188114E+03   -0.11567E-02   -0.11566E-02   768   0.209E-02-0.121E-05
CGA:  10    -0.662847665762E+03   -0.47765E-03   -0.47755E-03   768   0.100E-02 0.191E-05
CGA:  11    -0.662847843152E+03   -0.17739E-03   -0.17741E-03   768   0.712E-03 0.197E-05
CGA:  12    -0.662847973348E+03   -0.13020E-03   -0.13021E-03   768   0.368E-03 0.113E-05
CGA:  13    -0.662848095583E+03   -0.12224E-03   -0.12246E-03   768   0.344E-03-0.140E-05
CGA:  14    -0.662848172434E+03   -0.76851E-04   -0.76825E-04   768   0.371E-03-0.389E-07
  20 F= -.66940243E+03 E0= -.66937085E+03  d E =-.251888E-01  mag=     2.1585
       N       E                     dE             d eps       ncg     rms          ort
SDA:   1    -0.659152327194E+03    0.36958E+01    0.00000E+00   768   0.912E+01 0.000E+00
CGA:   2    -0.661202530377E+03   -0.20502E+01   -0.20496E+01   768   0.585E+01 0.281E-02
CGA:   3    -0.662278860859E+03   -0.10763E+01   -0.10759E+01   768   0.262E+01-0.249E-01
CGA:   4    -0.662651002892E+03   -0.37214E+00   -0.37264E+00   768   0.709E+00-0.270E-02
CGA:   5    -0.662777688200E+03   -0.12669E+00   -0.12663E+00   768   0.252E+00-0.241E-02
CGA:   6    -0.662828797872E+03   -0.51110E-01   -0.51103E-01   768   0.114E+00 0.225E-03
CGA:   7    -0.662851799143E+03   -0.23001E-01   -0.23010E-01   768   0.669E-01-0.623E-03
CGA:   8    -0.662861827186E+03   -0.10028E-01   -0.10059E-01   768   0.338E-01 0.140E-03
CGA:   9    -0.662867602239E+03   -0.57751E-02   -0.57725E-02   768   0.108E-01-0.527E-04
CGA:  10    -0.662869940530E+03   -0.23383E-02   -0.23373E-02   768   0.420E-02 0.261E-04
CGA:  11    -0.662870692741E+03   -0.75221E-03   -0.75227E-03   768   0.254E-02 0.291E-05
CGA:  12    -0.662871086011E+03   -0.39327E-03   -0.39356E-03   768   0.100E-02 0.421E-05
CGA:  13    -0.662871358376E+03   -0.27236E-03   -0.27224E-03   768   0.627E-03 0.109E-05
CGA:  14    -0.662871498443E+03   -0.14007E-03   -0.14003E-03   768   0.628E-03 0.106E-05
CGA:  15    -0.662871618637E+03   -0.12019E-03   -0.12020E-03   768   0.322E-03-0.395E-06
CGA:  16    -0.662871710343E+03   -0.91706E-04   -0.91685E-04   768   0.200E-03 0.218E-06
  21 F= -.66942675E+03 E0= -.66940046E+03  d E =-.495043E-01  mag=     2.5423
       N       E                     dE             d eps       ncg     rms          ort
SDA:   1    -0.662446776324E+03    0.42484E+00    0.00000E+00   768   0.101E+01 0.000E+00
CGA:   2    -0.662712497980E+03   -0.26572E+00   -0.26585E+00   768   0.669E+00-0.158E-02
CGA:   3    -0.662830093998E+03   -0.11760E+00   -0.11764E+00   768   0.273E+00 0.640E-03
CGA:   4    -0.662867442666E+03   -0.37349E-01   -0.37292E-01   768   0.702E-01 0.242E-04
CGA:   5    -0.662879057824E+03   -0.11615E-01   -0.11620E-01   768   0.247E-01 0.440E-04
CGA:   6    -0.662883437700E+03   -0.43799E-02   -0.43783E-02   768   0.134E-01-0.364E-04
CGA:   7    -0.662885643708E+03   -0.22060E-02   -0.22071E-02   768   0.628E-02 0.709E-05
CGA:   8    -0.662886859783E+03   -0.12161E-02   -0.12161E-02   768   0.293E-02-0.148E-04
CGA:   9    -0.662887458918E+03   -0.59913E-03   -0.59912E-03   768   0.124E-02-0.633E-06
CGA:  10    -0.662887666969E+03   -0.20805E-03   -0.20804E-03   768   0.629E-03 0.548E-07
CGA:  11    -0.662887772547E+03   -0.10558E-03   -0.10563E-03   768   0.211E-03 0.165E-05
CGA:  12    -0.662887816023E+03   -0.43477E-04   -0.43475E-04   768   0.989E-04 0.658E-07
  22 F= -.66944341E+03 E0= -.66941865E+03  d E =-.166594E-01  mag=     2.6185
       N       E                     dE             d eps       ncg     rms          ort
SDA:   1    -0.662668787570E+03    0.21898E+00    0.00000E+00   768   0.510E+00 0.000E+00
CGA:   2    -0.662802124094E+03   -0.13334E+00   -0.13340E+00   768   0.341E+00-0.740E-03
CGA:   3    -0.662860790804E+03   -0.58667E-01   -0.58693E-01   768   0.144E+00 0.439E-03
CGA:   4    -0.662879982139E+03   -0.19191E-01   -0.19161E-01   768   0.372E-01 0.197E-04
CGA:   5    -0.662885968146E+03   -0.59860E-02   -0.59881E-02   768   0.131E-01 0.228E-04
CGA:   6    -0.662888185208E+03   -0.22171E-02   -0.22164E-02   768   0.672E-02-0.130E-04
CGA:   7    -0.662889376860E+03   -0.11917E-02   -0.11917E-02   768   0.311E-02 0.901E-06
CGA:   8    -0.662889984358E+03   -0.60750E-03   -0.60758E-03   768   0.156E-02-0.843E-05
CGA:   9    -0.662890280824E+03   -0.29647E-03   -0.29647E-03   768   0.711E-03-0.145E-05
CGA:  10    -0.662890396379E+03   -0.11556E-03   -0.11555E-03   768   0.308E-03-0.174E-06
CGA:  11    -0.662890453540E+03   -0.57161E-04   -0.57163E-04   768   0.117E-03 0.114E-05
  23 F= -.66944642E+03 E0= -.66942229E+03  d E =-.196710E-01  mag=     2.6532
       N       E                     dE             d eps       ncg     rms          ort
SDA:   1    -0.662708685045E+03    0.18171E+00    0.00000E+00   768   0.484E+00 0.000E+00
CGA:   2    -0.662836479049E+03   -0.12779E+00   -0.12781E+00   768   0.278E+00-0.168E-03
CGA:   3    -0.662882619793E+03   -0.46141E-01   -0.46163E-01   768   0.135E+00 0.380E-03
CGA:   4    -0.662900405766E+03   -0.17786E-01   -0.17759E-01   768   0.293E-01 0.362E-04
CGA:   5    -0.662904981998E+03   -0.45762E-02   -0.45771E-02   768   0.105E-01 0.702E-05
CGA:   6    -0.662906858202E+03   -0.18762E-02   -0.18761E-02   768   0.454E-02-0.127E-04
CGA:   7    -0.662907654800E+03   -0.79660E-03   -0.79657E-03   768   0.222E-02-0.412E-05
CGA:   8    -0.662908056717E+03   -0.40192E-03   -0.40190E-03   768   0.114E-02-0.482E-05
CGA:   9    -0.662908275196E+03   -0.21848E-03   -0.21848E-03   768   0.510E-03-0.434E-06
CGA:  10    -0.662908370514E+03   -0.95318E-04   -0.95318E-04   768   0.253E-03 0.199E-06
  24 F= -.66946479E+03 E0= -.66944049E+03  d E =-.183696E-01  mag=     2.6390
       N       E                     dE             d eps       ncg     rms          ort
SDA:   1    -0.662145537983E+03    0.76274E+00    0.00000E+00   768   0.188E+01 0.000E+00
CGA:   2    -0.662638800305E+03   -0.49326E+00   -0.49332E+00   768   0.112E+01-0.109E-03
CGA:   3    -0.662817229265E+03   -0.17843E+00   -0.17862E+00   768   0.547E+00 0.279E-02
CGA:   4    -0.662889981640E+03   -0.72752E-01   -0.72538E-01   768   0.118E+00 0.485E-04
CGA:   5    -0.662908319430E+03   -0.18338E-01   -0.18346E-01   768   0.422E-01 0.998E-04
CGA:   6    -0.662915978467E+03   -0.76590E-02   -0.76589E-02   768   0.184E-01-0.849E-04
CGA:   7    -0.662919150502E+03   -0.31720E-02   -0.31721E-02   768   0.917E-02 0.293E-05
CGA:   8    -0.662920756058E+03   -0.16056E-02   -0.16054E-02   768   0.462E-02-0.173E-04
CGA:   9    -0.662921655402E+03   -0.89934E-03   -0.89929E-03   768   0.204E-02 0.227E-05
CGA:  10    -0.662922031172E+03   -0.37577E-03   -0.37577E-03   768   0.105E-02-0.224E-06
CGA:  11    -0.662922203702E+03   -0.17253E-03   -0.17256E-03   768   0.407E-03 0.168E-05
CGA:  12    -0.662922278931E+03   -0.75229E-04   -0.75231E-04   768   0.170E-03-0.515E-06
  25 F= -.66947948E+03 E0= -.66945440E+03  d E =-.330586E-01  mag=     2.5934
       N       E                     dE             d eps       ncg     rms          ort
SDA:   1    -0.662776645475E+03    0.14556E+00    0.00000E+00   768   0.437E+00 0.000E+00
CGA:   2    -0.662863616486E+03   -0.86971E-01   -0.86973E-01   768   0.225E+00-0.448E-04
CGA:   3    -0.662906443502E+03   -0.42827E-01   -0.42824E-01   768   0.129E+00 0.207E-03
CGA:   4    -0.662926397296E+03   -0.19954E-01   -0.19949E-01   768   0.327E-01-0.522E-04
CGA:   5    -0.662931794562E+03   -0.53973E-02   -0.53978E-02   768   0.117E-01 0.107E-04
CGA:   6    -0.662934018255E+03   -0.22237E-02   -0.22239E-02   768   0.598E-02-0.137E-04
CGA:   7    -0.662935037921E+03   -0.10197E-02   -0.10198E-02   768   0.354E-02 0.525E-05
CGA:   8    -0.662935606176E+03   -0.56825E-03   -0.56811E-03   768   0.147E-02-0.233E-05
CGA:   9    -0.662935906510E+03   -0.30033E-03   -0.30028E-03   768   0.520E-03 0.155E-05
CGA:  10    -0.662936007266E+03   -0.10076E-03   -0.10076E-03   768   0.262E-03-0.442E-06
CGA:  11    -0.662936044084E+03   -0.36819E-04   -0.36832E-04   768   0.101E-03 0.303E-06
  26 F= -.66949368E+03 E0= -.66946835E+03  d E =-.141977E-01  mag=     2.5629
       N       E                     dE             d eps       ncg     rms          ort
SDA:   1    -0.662190970124E+03    0.74504E+00    0.00000E+00   768   0.207E+01 0.000E+00
CGA:   2    -0.662603590641E+03   -0.41262E+00   -0.41261E+00   768   0.106E+01 0.225E-03
CGA:   3    -0.662807381290E+03   -0.20379E+00   -0.20379E+00   768   0.612E+00-0.161E-03
CGA:   4    -0.662902164202E+03   -0.94783E-01   -0.94786E-01   768   0.151E+00-0.393E-04
CGA:   5    -0.662927762393E+03   -0.25598E-01   -0.25596E-01   768   0.537E-01-0.971E-04
CGA:   6    -0.662938690959E+03   -0.10929E-01   -0.10927E-01   768   0.237E-01 0.298E-04
CGA:   7    -0.662943967212E+03   -0.52763E-02   -0.52798E-02   768   0.119E-01-0.582E-04
CGA:   8    -0.662946082222E+03   -0.21150E-02   -0.21152E-02   768   0.740E-02 0.176E-04
CGA:   9    -0.662947113584E+03   -0.10314E-02   -0.10305E-02   768   0.248E-02-0.370E-05
CGA:  10    -0.662947627111E+03   -0.51353E-03   -0.51344E-03   768   0.782E-03 0.228E-05
CGA:  11    -0.662947794077E+03   -0.16697E-03   -0.16699E-03   768   0.397E-03-0.550E-06
CGA:  12    -0.662947850679E+03   -0.56602E-04   -0.56625E-04   768   0.214E-03 0.719E-06
  27 F= -.66950626E+03 E0= -.66948024E+03  d E =-.267797E-01  mag=     2.4719
       N       E                     dE             d eps       ncg     rms          ort
SDA:   1    -0.662539048268E+03    0.40875E+00    0.00000E+00   768   0.121E+01 0.000E+00
CGA:   2    -0.662757351002E+03   -0.21830E+00   -0.21830E+00   768   0.584E+00-0.232E-03
CGA:   3    -0.662868601090E+03   -0.11125E+00   -0.11124E+00   768   0.359E+00 0.407E-03
CGA:   4    -0.662928574717E+03   -0.59974E-01   -0.59964E-01   768   0.104E+00-0.284E-03
CGA:   5    -0.662946415823E+03   -0.17841E-01   -0.17843E-01   768   0.391E-01 0.621E-04
CGA:   6    -0.662953888364E+03   -0.74725E-02   -0.74740E-02   768   0.195E-01-0.877E-04
CGA:   7    -0.662957244722E+03   -0.33564E-02   -0.33570E-02   768   0.120E-01 0.307E-04
CGA:   8    -0.662959046656E+03   -0.18019E-02   -0.18006E-02   768   0.478E-02-0.111E-04
CGA:   9    -0.662959985573E+03   -0.93892E-03   -0.93878E-03   768   0.152E-02 0.618E-05
CGA:  10    -0.662960287657E+03   -0.30208E-03   -0.30209E-03   768   0.730E-03-0.145E-06
CGA:  11    -0.662960386333E+03   -0.98676E-04   -0.98740E-04   768   0.307E-03 0.140E-05
  28 F= -.66951874E+03 E0= -.66949312E+03  d E =-.124817E-01  mag=     2.3733
       N       E                     dE             d eps       ncg     rms          ort
SDA:   1    -0.662849671277E+03    0.11062E+00    0.00000E+00   768   0.321E+00 0.000E+00
CGA:   2    -0.662907970033E+03   -0.58299E-01   -0.58299E-01   768   0.156E+00-0.462E-04
CGA:   3    -0.662937471763E+03   -0.29502E-01   -0.29501E-01   768   0.969E-01 0.673E-04
CGA:   4    -0.662953551788E+03   -0.16080E-01   -0.16079E-01   768   0.281E-01-0.322E-04
CGA:   5    -0.662958326128E+03   -0.47743E-02   -0.47745E-02   768   0.103E-01 0.611E-05
CGA:   6    -0.662960360147E+03   -0.20340E-02   -0.20344E-02   768   0.526E-02-0.115E-04
CGA:   7    -0.662961266164E+03   -0.90602E-03   -0.90609E-03   768   0.330E-02 0.472E-05
CGA:   8    -0.662961759175E+03   -0.49301E-03   -0.49287E-03   768   0.131E-02-0.777E-06
CGA:   9    -0.662962018458E+03   -0.25928E-03   -0.25924E-03   768   0.428E-03 0.210E-05
CGA:  10    -0.662962106266E+03   -0.87808E-04   -0.87801E-04   768   0.215E-03 0.334E-06
  29 F= -.66952038E+03 E0= -.66949471E+03  d E =-.141218E-01  mag=     2.3107
       N       E                     dE             d eps       ncg     rms          ort
SDA:   1    -0.662633877091E+03    0.32814E+00    0.00000E+00   768   0.995E+00 0.000E+00
CGA:   2    -0.662799746527E+03   -0.16587E+00   -0.16588E+00   768   0.445E+00-0.348E-04
CGA:   3    -0.662887616736E+03   -0.87870E-01   -0.87893E-01   768   0.315E+00-0.865E-03
CGA:   4    -0.662942709050E+03   -0.55092E-01   -0.55093E-01   768   0.985E-01 0.162E-04
CGA:   5    -0.662959651456E+03   -0.16942E-01   -0.16941E-01   768   0.363E-01-0.134E-03
CGA:   6    -0.662966499036E+03   -0.68476E-02   -0.68466E-02   768   0.173E-01 0.548E-04
CGA:   7    -0.662969552920E+03   -0.30539E-02   -0.30537E-02   768   0.109E-01-0.296E-04
CGA:   8    -0.662971093933E+03   -0.15410E-02   -0.15417E-02   768   0.422E-02 0.852E-05
CGA:   9    -0.662971911741E+03   -0.81781E-03   -0.81790E-03   768   0.130E-02-0.326E-05
CGA:  10    -0.662972179013E+03   -0.26727E-03   -0.26726E-03   768   0.601E-03 0.210E-06
CGA:  11    -0.662972265223E+03   -0.86209E-04   -0.86173E-04   768   0.326E-03-0.879E-06
  30 F= -.66953033E+03 E0= -.66950402E+03  d E =-.995045E-02  mag=     2.1959
       N       E                     dE             d eps       ncg     rms          ort
SDA:   1    -0.662753916558E+03    0.21826E+00    0.00000E+00   768   0.648E+00 0.000E+00
CGA:   2    -0.662862440014E+03   -0.10852E+00   -0.10853E+00   768   0.291E+00-0.702E-06
CGA:   3    -0.662919511771E+03   -0.57072E-01   -0.57081E-01   768   0.208E+00-0.388E-03
CGA:   4    -0.662955642685E+03   -0.36131E-01   -0.36131E-01   768   0.651E-01 0.353E-06
CGA:   5    -0.662966895864E+03   -0.11253E-01   -0.11253E-01   768   0.230E-01-0.619E-04
CGA:   6    -0.662971361770E+03   -0.44659E-02   -0.44652E-02   768   0.113E-01 0.293E-04
CGA:   7    -0.662973379725E+03   -0.20180E-02   -0.20179E-02   768   0.728E-02-0.133E-04
CGA:   8    -0.662974397623E+03   -0.10179E-02   -0.10182E-02   768   0.294E-02 0.559E-05
CGA:   9    -0.662974967280E+03   -0.56966E-03   -0.56970E-03   768   0.940E-03-0.145E-05
CGA:  10    -0.662975172114E+03   -0.20483E-03   -0.20484E-03   768   0.486E-03 0.214E-07
CGA:  11    -0.662975247580E+03   -0.75467E-04   -0.75448E-04   768   0.335E-03-0.739E-06
  31 F= -.66953307E+03 E0= -.66950576E+03  d E =-.126933E-01  mag=     2.0635
       N       E                     dE             d eps       ncg     rms          ort
SDA:   1    -0.662745154949E+03    0.23002E+00    0.00000E+00   768   0.712E+00 0.000E+00
CGA:   2    -0.662862668123E+03   -0.11751E+00   -0.11752E+00   768   0.315E+00-0.682E-04
CGA:   3    -0.662923895211E+03   -0.61227E-01   -0.61236E-01   768   0.228E+00-0.463E-03
CGA:   4    -0.662964296993E+03   -0.40402E-01   -0.40402E-01   768   0.742E-01 0.646E-04
CGA:   5    -0.662977276468E+03   -0.12979E-01   -0.12979E-01   768   0.267E-01-0.676E-04
CGA:   6    -0.662982476499E+03   -0.52000E-02   -0.51992E-02   768   0.135E-01 0.337E-04
CGA:   7    -0.662984770006E+03   -0.22935E-02   -0.22931E-02   768   0.877E-02-0.156E-04
CGA:   8    -0.662986012426E+03   -0.12424E-02   -0.12425E-02   768   0.349E-02 0.490E-05
CGA:   9    -0.662986712621E+03   -0.70019E-03   -0.70022E-03   768   0.123E-02-0.359E-06
CGA:  10    -0.662986991749E+03   -0.27913E-03   -0.27915E-03   768   0.819E-03-0.279E-07
CGA:  11    -0.662987122595E+03   -0.13085E-03   -0.13085E-03   768   0.646E-03-0.303E-06
CGA:  12    -0.662987291576E+03   -0.16898E-03   -0.16912E-03   768   0.537E-03-0.898E-06
CGA:  13    -0.662987485484E+03   -0.19391E-03   -0.19256E-03   768   0.771E-03 0.752E-05
CGA:  14    -0.662987622074E+03   -0.13659E-03   -0.13642E-03   768   0.664E-03-0.145E-05
CGA:  15    -0.662987782694E+03   -0.16062E-03   -0.16017E-03   768   0.297E-03 0.651E-05
CGA:  16    -0.662987856923E+03   -0.74229E-04   -0.74288E-04   768   0.263E-03-0.223E-06
  32 F= -.66954527E+03 E0= -.66951810E+03  d E =-.121995E-01  mag=     1.7003
       N       E                     dE             d eps       ncg     rms          ort
SDA:   1    -0.660846727596E+03    0.21411E+01    0.00000E+00   768   0.639E+01 0.000E+00
CGA:   2    -0.661901656650E+03   -0.10549E+01   -0.10561E+01   768   0.286E+01 0.819E-03
CGA:   3    -0.662448427605E+03   -0.54677E+00   -0.54665E+00   768   0.218E+01-0.384E-01
CGA:   4    -0.662810554891E+03   -0.36213E+00   -0.36270E+00   768   0.731E+00 0.613E-02
CGA:   5    -0.662925864460E+03   -0.11531E+00   -0.11498E+00   768   0.327E+00-0.343E-02
CGA:   6    -0.662973035704E+03   -0.47171E-01   -0.47264E-01   768   0.150E+00 0.376E-03
CGA:   7    -0.662999291882E+03   -0.26256E-01   -0.26239E-01   768   0.696E-01-0.639E-03
CGA:   8    -0.663012232728E+03   -0.12941E-01   -0.12941E-01   768   0.326E-01 0.139E-03
CGA:   9    -0.663017390952E+03   -0.51582E-02   -0.51580E-02   768   0.155E-01-0.951E-05
CGA:  10    -0.663019749155E+03   -0.23582E-02   -0.23581E-02   768   0.549E-02 0.207E-05
CGA:  11    -0.663020832248E+03   -0.10831E-02   -0.10829E-02   768   0.287E-02 0.593E-05
CGA:  12    -0.663021343437E+03   -0.51119E-03   -0.51109E-03   768   0.212E-02-0.519E-05
CGA:  13    -0.663021809599E+03   -0.46616E-03   -0.46526E-03   768   0.152E-02 0.160E-04
CGA:  14    -0.663022217130E+03   -0.40753E-03   -0.40956E-03   768   0.172E-02-0.186E-04
CGA:  15    -0.663022530941E+03   -0.31381E-03   -0.31402E-03   768   0.109E-02 0.176E-04
CGA:  16    -0.663022797486E+03   -0.26655E-03   -0.26744E-03   768   0.721E-03-0.108E-04
CGA:  17    -0.663022917200E+03   -0.11971E-03   -0.11987E-03   768   0.422E-03 0.118E-05
CGA:  18    -0.663023003690E+03   -0.86490E-04   -0.86508E-04   768   0.195E-03-0.115E-07
  33 F= -.66957886E+03 E0= -.66956274E+03  d E =-.457906E-01  mag=     1.1719
       N       E                     dE             d eps       ncg     rms          ort
SDA:   1    -0.654362947800E+03    0.86600E+01    0.00000E+00   768   0.259E+02 0.000E+00
CGA:   2    -0.658537212947E+03   -0.41743E+01   -0.41931E+01   768   0.118E+02 0.338E-01
CGA:   3    -0.660685068473E+03   -0.21479E+01   -0.21429E+01   768   0.916E+01-0.390E+00
CGA:   4    -0.662193376791E+03   -0.15083E+01   -0.15139E+01   768   0.268E+01 0.844E-01
CGA:   5    -0.662674344604E+03   -0.48097E+00   -0.48018E+00   768   0.106E+01-0.354E-01
CGA:   6    -0.662856863114E+03   -0.18252E+00   -0.18278E+00   768   0.481E+00 0.829E-02
CGA:   7    -0.662941461740E+03   -0.84599E-01   -0.84468E-01   768   0.266E+00-0.447E-02
CGA:   8    -0.662985269545E+03   -0.43808E-01   -0.43865E-01   768   0.981E-01 0.111E-02
CGA:   9    -0.663004499498E+03   -0.19230E-01   -0.19237E-01   768   0.347E-01-0.498E-03
CGA:  10    -0.663010515169E+03   -0.60157E-02   -0.60173E-02   768   0.154E-01 0.660E-04
CGA:  11    -0.663012849729E+03   -0.23346E-02   -0.23333E-02   768   0.559E-02-0.165E-04
CGA:  12    -0.663014052858E+03   -0.12031E-02   -0.12031E-02   768   0.270E-02 0.211E-05
CGA:  13    -0.663014621202E+03   -0.56834E-03   -0.56834E-03   768   0.218E-02-0.126E-05
CGA:  14    -0.663015045683E+03   -0.42448E-03   -0.42451E-03   768   0.132E-02 0.539E-06
CGA:  15    -0.663015406826E+03   -0.36114E-03   -0.36106E-03   768   0.103E-02-0.348E-07
CGA:  16    -0.663015605127E+03   -0.19830E-03   -0.19830E-03   768   0.743E-03 0.136E-05
CGA:  17    -0.663015764623E+03   -0.15950E-03   -0.15949E-03   768   0.351E-03-0.608E-06
CGA:  18    -0.663015845979E+03   -0.81356E-04   -0.81341E-04   768   0.272E-03 0.864E-06
  34 F= -.66956759E+03 E0= -.66955902E+03  d E =-.345174E-01  mag=     1.0069
       N       E                     dE             d eps       ncg     rms          ort
SDA:   1    -0.659600565521E+03    0.34152E+01    0.00000E+00   768   0.101E+02 0.000E+00
CGA:   2    -0.661267975863E+03   -0.16674E+01   -0.16701E+01   768   0.461E+01-0.515E-02
CGA:   3    -0.662120729818E+03   -0.85275E+00   -0.85144E+00   768   0.348E+01-0.985E-01
CGA:   4    -0.662714048355E+03   -0.59332E+00   -0.59430E+00   768   0.108E+01 0.134E-01
CGA:   5    -0.662901332203E+03   -0.18728E+00   -0.18687E+00   768   0.426E+00-0.995E-02
CGA:   6    -0.662971943673E+03   -0.70611E-01   -0.70713E-01   768   0.212E+00 0.148E-02
CGA:   7    -0.663005893442E+03   -0.33950E-01   -0.33892E-01   768   0.104E+00-0.747E-03
CGA:   8    -0.663024271281E+03   -0.18378E-01   -0.18384E-01   768   0.388E-01 0.258E-03
CGA:   9    -0.663031592289E+03   -0.73210E-02   -0.73212E-02   768   0.153E-01-0.143E-03
CGA:  10    -0.663033855074E+03   -0.22628E-02   -0.22630E-02   768   0.619E-02 0.413E-05
CGA:  11    -0.663034844044E+03   -0.98897E-03   -0.98867E-03   768   0.193E-02-0.637E-05
CGA:  12    -0.663035235485E+03   -0.39144E-03   -0.39148E-03   768   0.101E-02-0.773E-06
CGA:  13    -0.663035401349E+03   -0.16586E-03   -0.16583E-03   768   0.594E-03-0.230E-05
CGA:  14    -0.663035531057E+03   -0.12971E-03   -0.12976E-03   768   0.352E-03-0.905E-06
CGA:  15    -0.663035614761E+03   -0.83703E-04   -0.83743E-04   768   0.324E-03-0.106E-05
  35 F= -.66959006E+03 E0= -.66957841E+03  d E =-.569872E-01  mag=     1.0656
       N       E                     dE             d eps       ncg     rms          ort
SDA:   1    -0.662583457594E+03    0.45207E+00    0.00000E+00   768   0.128E+01 0.000E+00
CGA:   2    -0.662826250544E+03   -0.24279E+00   -0.24278E+00   768   0.723E+00 0.284E-02
CGA:   3    -0.662950303537E+03   -0.12405E+00   -0.12395E+00   768   0.437E+00-0.323E-02
CGA:   4    -0.663018712119E+03   -0.68409E-01   -0.68500E-01   768   0.127E+00 0.862E-03
CGA:   5    -0.663039600648E+03   -0.20889E-01   -0.20877E-01   768   0.528E-01-0.206E-03
CGA:   6    -0.663048288144E+03   -0.86875E-02   -0.86924E-02   768   0.255E-01 0.108E-03
CGA:   7    -0.663052739978E+03   -0.44518E-02   -0.44509E-02   768   0.122E-01-0.394E-04
CGA:   8    -0.663055013548E+03   -0.22736E-02   -0.22734E-02   768   0.550E-02 0.310E-04
CGA:   9    -0.663055976546E+03   -0.96300E-03   -0.96293E-03   768   0.228E-02-0.343E-05
CGA:  10    -0.663056333095E+03   -0.35655E-03   -0.35664E-03   768   0.817E-03 0.214E-05
CGA:  11    -0.663056473912E+03   -0.14082E-03   -0.14080E-03   768   0.289E-03-0.121E-05
CGA:  12    -0.663056523772E+03   -0.49861E-04   -0.49868E-04   768   0.131E-03 0.848E-06
  36 F= -.66961061E+03 E0= -.66960069E+03  d E =-.205499E-01  mag=     1.0320
       N       E                     dE             d eps       ncg     rms          ort
SDA:   1    -0.662823614230E+03    0.23286E+00    0.00000E+00   768   0.646E+00 0.000E+00
CGA:   2    -0.662946023613E+03   -0.12241E+00   -0.12239E+00   768   0.366E+00 0.108E-02
CGA:   3    -0.663008818017E+03   -0.62794E-01   -0.62771E-01   768   0.218E+00-0.130E-02
CGA:   4    -0.663043477574E+03   -0.34660E-01   -0.34680E-01   768   0.632E-01 0.334E-03
CGA:   5    -0.663054089717E+03   -0.10612E-01   -0.10610E-01   768   0.255E-01-0.823E-04
CGA:   6    -0.663058419268E+03   -0.43296E-02   -0.43303E-02   768   0.127E-01 0.445E-04
CGA:   7    -0.663060584296E+03   -0.21650E-02   -0.21648E-02   768   0.617E-02-0.109E-04
CGA:   8    -0.663061738933E+03   -0.11546E-02   -0.11545E-02   768   0.268E-02 0.150E-04
CGA:   9    -0.663062228985E+03   -0.49005E-03   -0.49006E-03   768   0.110E-02-0.103E-05
CGA:  10    -0.663062401415E+03   -0.17243E-03   -0.17247E-03   768   0.421E-03 0.125E-05
CGA:  11    -0.663062473505E+03   -0.72091E-04   -0.72085E-04   768   0.149E-03-0.798E-06
  37 F= -.66961627E+03 E0= -.66960716E+03  d E =-.262131E-01  mag=     1.0163
       N       E                     dE             d eps       ncg     rms          ort
SDA:   1    -0.662872220654E+03    0.19018E+00    0.00000E+00   768   0.566E+00 0.000E+00
CGA:   2    -0.662986271022E+03   -0.11405E+00   -0.11399E+00   768   0.371E+00 0.145E-02
CGA:   3    -0.663039002297E+03   -0.52731E-01   -0.52715E-01   768   0.172E+00-0.295E-03
CGA:   4    -0.663067874105E+03   -0.28872E-01   -0.28874E-01   768   0.430E-01 0.990E-04
CGA:   5    -0.663075271494E+03   -0.73974E-02   -0.73973E-02   768   0.153E-01 0.837E-05
CGA:   6    -0.663078011586E+03   -0.27401E-02   -0.27399E-02   768   0.679E-02 0.433E-04
CGA:   7    -0.663079111078E+03   -0.10995E-02   -0.10996E-02   768   0.343E-02 0.821E-05
CGA:   8    -0.663079762743E+03   -0.65167E-03   -0.65152E-03   768   0.164E-02 0.896E-05
CGA:   9    -0.663080095936E+03   -0.33319E-03   -0.33323E-03   768   0.679E-03-0.117E-05
CGA:  10    -0.663080215025E+03   -0.11909E-03   -0.11909E-03   768   0.351E-03 0.163E-05
CGA:  11    -0.663080273043E+03   -0.58018E-04   -0.58014E-04   768   0.119E-03-0.235E-06
  38 F= -.66963469E+03 E0= -.66962582E+03  d E =-.184176E-01  mag=     1.0091
       N       E                     dE             d eps       ncg     rms          ort
SDA:   1    -0.662938742142E+03    0.14147E+00    0.00000E+00   768   0.396E+00 0.000E+00
CGA:   2    -0.663018855529E+03   -0.80113E-01   -0.80084E-01   768   0.259E+00 0.703E-03
CGA:   3    -0.663055779457E+03   -0.36924E-01   -0.36912E-01   768   0.119E+00-0.190E-03
CGA:   4    -0.663075806126E+03   -0.20027E-01   -0.20028E-01   768   0.300E-01 0.460E-04
CGA:   5    -0.663080969019E+03   -0.51629E-02   -0.51629E-02   768   0.105E-01 0.107E-04
CGA:   6    -0.663082879866E+03   -0.19108E-02   -0.19107E-02   768   0.474E-02 0.300E-04
CGA:   7    -0.663083652241E+03   -0.77237E-03   -0.77246E-03   768   0.239E-02 0.720E-05
CGA:   8    -0.663084109010E+03   -0.45677E-03   -0.45666E-03   768   0.115E-02 0.646E-05
CGA:   9    -0.663084341932E+03   -0.23292E-03   -0.23295E-03   768   0.474E-03-0.798E-06
CGA:  10    -0.663084425917E+03   -0.83985E-04   -0.83987E-04   768   0.246E-03 0.129E-05
  39 F= -.66963934E+03 E0= -.66963061E+03  d E =-.230667E-01  mag=     1.0045
       N       E                     dE             d eps       ncg     rms          ort
SDA:   1    -0.663011212508E+03    0.73129E-01    0.00000E+00   768   0.233E+00 0.000E+00
CGA:   2    -0.663059207600E+03   -0.47995E-01   -0.47984E-01   768   0.143E+00 0.237E-03
CGA:   3    -0.663079456684E+03   -0.20249E-01   -0.20249E-01   768   0.679E-01-0.452E-04
CGA:   4    -0.663090634003E+03   -0.11177E-01   -0.11178E-01   768   0.154E-01-0.566E-06
CGA:   5    -0.663093322523E+03   -0.26885E-02   -0.26885E-02   768   0.573E-02 0.881E-05
CGA:   6    -0.663094385239E+03   -0.10627E-02   -0.10626E-02   768   0.249E-02 0.142E-04
CGA:   7    -0.663094790176E+03   -0.40494E-03   -0.40495E-03   768   0.127E-02 0.150E-05
CGA:   8    -0.663095028165E+03   -0.23799E-03   -0.23798E-03   768   0.586E-03 0.476E-06
CGA:   9    -0.663095147733E+03   -0.11957E-03   -0.11960E-03   768   0.246E-03-0.107E-05
CGA:  10    -0.663095192045E+03   -0.44312E-04   -0.44308E-04   768   0.128E-03 0.179E-05
  40 F= -.66965048E+03 E0= -.66964175E+03  d E =-.111396E-01  mag=     1.0047
       N       E                     dE             d eps       ncg     rms          ort
SDA:   1    -0.662356682495E+03    0.73847E+00    0.00000E+00   768   0.209E+01 0.000E+00
CGA:   2    -0.662787962070E+03   -0.43128E+00   -0.43113E+00   768   0.129E+01 0.265E-02
CGA:   3    -0.662970413506E+03   -0.18245E+00   -0.18251E+00   768   0.610E+00-0.624E-03
CGA:   4    -0.663070209218E+03   -0.99796E-01   -0.99819E-01   768   0.137E+00 0.766E-03
CGA:   5    -0.663094724725E+03   -0.24516E-01   -0.24516E-01   768   0.508E-01-0.471E-04
CGA:   6    -0.663104078498E+03   -0.93538E-02   -0.93521E-02   768   0.219E-01 0.158E-03
CGA:   7    -0.663107677707E+03   -0.35992E-02   -0.35990E-02   768   0.111E-01-0.563E-05
CGA:   8    -0.663109754878E+03   -0.20772E-02   -0.20769E-02   768   0.512E-02 0.185E-04
CGA:   9    -0.663110794609E+03   -0.10397E-02   -0.10399E-02   768   0.206E-02-0.570E-05
CGA:  10    -0.663111173679E+03   -0.37907E-03   -0.37902E-03   768   0.106E-02 0.666E-05
CGA:  11    -0.663111343215E+03   -0.16954E-03   -0.16957E-03   768   0.356E-03 0.207E-05
CGA:  12    -0.663111415842E+03   -0.72627E-04   -0.72572E-04   768   0.148E-03 0.211E-05
  41 F= -.66966776E+03 E0= -.66965903E+03  d E =-.284195E-01  mag=     1.0071
       N       E                     dE             d eps       ncg     rms          ort
SDA:   1    -0.663080015062E+03    0.31328E-01    0.00000E+00   768   0.885E-01 0.000E+00
CGA:   2    -0.663098139672E+03   -0.18125E-01   -0.18122E-01   768   0.542E-01 0.509E-04
CGA:   3    -0.663105864979E+03   -0.77253E-02   -0.77251E-02   768   0.254E-01-0.122E-04
CGA:   4    -0.663110083824E+03   -0.42188E-02   -0.42188E-02   768   0.580E-02-0.113E-04
CGA:   5    -0.663111122318E+03   -0.10385E-02   -0.10385E-02   768   0.205E-02 0.670E-05
CGA:   6    -0.663111501363E+03   -0.37904E-03   -0.37900E-03   768   0.936E-03 0.606E-05
CGA:   7    -0.663111655945E+03   -0.15458E-03   -0.15460E-03   768   0.469E-03 0.124E-05
CGA:   8    -0.663111746214E+03   -0.90269E-04   -0.90265E-04   768   0.230E-03 0.182E-06
  42 F= -.66966830E+03 E0= -.66965957E+03  d E =-.289543E-01  mag=     1.0076
       N       E                     dE             d eps       ncg     rms          ort
SDA:   1    -0.663083309407E+03    0.28347E-01    0.00000E+00   768   0.962E-01 0.000E+00
CGA:   2    -0.663104905094E+03   -0.21596E-01   -0.21594E-01   768   0.604E-01 0.209E-04
CGA:   3    -0.663112860126E+03   -0.79550E-02   -0.79558E-02   768   0.249E-01-0.139E-04
CGA:   4    -0.663117056158E+03   -0.41960E-02   -0.41957E-02   768   0.553E-02-0.298E-04
CGA:   5    -0.663118093568E+03   -0.10374E-02   -0.10374E-02   768   0.207E-02 0.556E-05
CGA:   6    -0.663118453269E+03   -0.35970E-03   -0.35973E-03   768   0.779E-03 0.479E-05
CGA:   7    -0.663118583720E+03   -0.13045E-03   -0.13044E-03   768   0.424E-03-0.475E-06
CGA:   8    -0.663118664186E+03   -0.80466E-04   -0.80483E-04   768   0.199E-03-0.143E-05
  43 F= -.66967558E+03 E0= -.66966684E+03  d E =-.728336E-02  mag=     1.0063
       N       E                     dE             d eps       ncg     rms          ort
SDA:   1    -0.662808974177E+03    0.30961E+00    0.00000E+00   768   0.858E+00 0.000E+00
CGA:   2    -0.663004118124E+03   -0.19514E+00   -0.19515E+00   768   0.536E+00-0.262E-03
CGA:   3    -0.663074893181E+03   -0.70775E-01   -0.70799E-01   768   0.226E+00-0.218E-03
CGA:   4    -0.663112447421E+03   -0.37554E-01   -0.37553E-01   768   0.491E-01-0.991E-04
CGA:   5    -0.663121797142E+03   -0.93497E-02   -0.93502E-02   768   0.183E-01-0.163E-04
CGA:   6    -0.663124927053E+03   -0.31299E-02   -0.31302E-02   768   0.692E-02 0.255E-04
CGA:   7    -0.663126096758E+03   -0.11697E-02   -0.11696E-02   768   0.375E-02-0.387E-05
CGA:   8    -0.663126799846E+03   -0.70309E-03   -0.70309E-03   768   0.176E-02-0.186E-05
CGA:   9    -0.663127169086E+03   -0.36924E-03   -0.36937E-03   768   0.786E-03-0.396E-05
CGA:  10    -0.663127320461E+03   -0.15138E-03   -0.15135E-03   768   0.418E-03 0.228E-05
CGA:  11    -0.663127386235E+03   -0.65774E-04   -0.65779E-04   768   0.149E-03 0.217E-06
  44 F= -.66968533E+03 E0= -.66967654E+03  d E =-.170379E-01  mag=     1.0005
       N       E                     dE             d eps       ncg     rms          ort
SDA:   1    -0.663047404943E+03    0.79916E-01    0.00000E+00   768   0.240E+00 0.000E+00
CGA:   2    -0.663097550536E+03   -0.50146E-01   -0.50139E-01   768   0.143E+00 0.110E-03
CGA:   3    -0.663118965352E+03   -0.21415E-01   -0.21400E-01   768   0.655E-01-0.218E-03
CGA:   4    -0.663129303155E+03   -0.10338E-01   -0.10338E-01   768   0.184E-01-0.412E-04
CGA:   5    -0.663132443536E+03   -0.31404E-02   -0.31401E-02   768   0.637E-02-0.133E-04
CGA:   6    -0.663133571053E+03   -0.11275E-02   -0.11276E-02   768   0.281E-02 0.101E-04
CGA:   7    -0.663134057902E+03   -0.48685E-03   -0.48683E-03   768   0.146E-02-0.432E-06
CGA:   8    -0.663134336535E+03   -0.27863E-03   -0.27864E-03   768   0.684E-03-0.779E-06
CGA:   9    -0.663134472291E+03   -0.13576E-03   -0.13582E-03   768   0.296E-03-0.323E-05
CGA:  10    -0.663134524296E+03   -0.52005E-04   -0.52005E-04   768   0.135E-03 0.342E-07
  45 F= -.66969307E+03 E0= -.66968419E+03  d E =-.773407E-02  mag=     0.9979
       N       E                     dE             d eps       ncg     rms          ort
SDA:   1    -0.662959996322E+03    0.17448E+00    0.00000E+00   768   0.493E+00 0.000E+00
CGA:   2    -0.663061400440E+03   -0.10140E+00   -0.10139E+00   768   0.300E+00 0.254E-03
CGA:   3    -0.663105573529E+03   -0.44173E-01   -0.44130E-01   768   0.135E+00-0.608E-03
CGA:   4    -0.663127288161E+03   -0.21715E-01   -0.21716E-01   768   0.374E-01-0.582E-04
CGA:   5    -0.663133684637E+03   -0.63965E-02   -0.63959E-02   768   0.132E-01-0.418E-04
CGA:   6    -0.663136035263E+03   -0.23506E-02   -0.23506E-02   768   0.575E-02 0.202E-04
CGA:   7    -0.663137027463E+03   -0.99220E-03   -0.99215E-03   768   0.302E-02-0.367E-05
CGA:   8    -0.663137599267E+03   -0.57180E-03   -0.57178E-03   768   0.139E-02 0.379E-06
CGA:   9    -0.663137878984E+03   -0.27972E-03   -0.27985E-03   768   0.602E-03-0.528E-05
CGA:  10    -0.663137984613E+03   -0.10563E-03   -0.10563E-03   768   0.279E-03 0.109E-06
CGA:  11    -0.663138030388E+03   -0.45776E-04   -0.45766E-04   768   0.947E-04-0.580E-06
  46 F= -.66969740E+03 E0= -.66968841E+03  d E =-.120674E-01  mag=     0.9945
       N       E                     dE             d eps       ncg     rms          ort
SDA:   1    -0.663071423517E+03    0.66561E-01    0.00000E+00   768   0.186E+00 0.000E+00
CGA:   2    -0.663116653154E+03   -0.45230E-01   -0.45217E-01   768   0.109E+00 0.138E-03
CGA:   3    -0.663133285562E+03   -0.16632E-01   -0.16624E-01   768   0.442E-01-0.123E-03
CGA:   4    -0.663139806585E+03   -0.65210E-02   -0.65217E-02   768   0.125E-01-0.218E-04
CGA:   5    -0.663141882329E+03   -0.20757E-02   -0.20755E-02   768   0.434E-02-0.800E-05
CGA:   6    -0.663142609846E+03   -0.72752E-03   -0.72755E-03   768   0.185E-02 0.145E-05
CGA:   7    -0.663142932119E+03   -0.32227E-03   -0.32225E-03   768   0.931E-03-0.310E-05
CGA:   8    -0.663143113098E+03   -0.18098E-03   -0.18101E-03   768   0.434E-03-0.225E-05
CGA:   9    -0.663143199283E+03   -0.86185E-04   -0.86233E-04   768   0.212E-03-0.230E-05
  47 F= -.66970294E+03 E0= -.66969390E+03  d E =-.553606E-02  mag=     0.9942
       N       E                     dE             d eps       ncg     rms          ort
SDA:   1    -0.663024300178E+03    0.11881E+00    0.00000E+00   768   0.314E+00 0.000E+00
CGA:   2    -0.663100345810E+03   -0.76046E-01   -0.76018E-01   768   0.184E+00 0.303E-03
CGA:   3    -0.663128407246E+03   -0.28061E-01   -0.28044E-01   768   0.750E-01-0.256E-03
CGA:   4    -0.663139507386E+03   -0.11100E-01   -0.11102E-01   768   0.206E-01-0.282E-04
CGA:   5    -0.663142983907E+03   -0.34765E-02   -0.34761E-02   768   0.764E-02-0.179E-04
CGA:   6    -0.663144232033E+03   -0.12481E-02   -0.12482E-02   768   0.318E-02 0.271E-05
CGA:   7    -0.663144791626E+03   -0.55959E-03   -0.55958E-03   768   0.159E-02-0.509E-05
CGA:   8    -0.663145101066E+03   -0.30944E-03   -0.30947E-03   768   0.736E-03-0.256E-05
CGA:   9    -0.663145246715E+03   -0.14565E-03   -0.14571E-03   768   0.362E-03-0.315E-05
CGA:  10    -0.663145308423E+03   -0.61708E-04   -0.61713E-04   768   0.157E-03 0.476E-06
  48 F= -.66970551E+03 E0= -.66969643E+03  d E =-.811366E-02  mag=     0.9941
       N       E                     dE             d eps       ncg     rms          ort
SDA:   1    -0.663100860191E+03    0.44387E-01    0.00000E+00   768   0.118E+00 0.000E+00
CGA:   2    -0.663135602785E+03   -0.34743E-01   -0.34738E-01   768   0.579E-01 0.288E-04
CGA:   3    -0.663144132460E+03   -0.85297E-02   -0.85259E-02   768   0.233E-01-0.373E-04
CGA:   4    -0.663147554812E+03   -0.34224E-02   -0.34224E-02   768   0.668E-02-0.944E-05
CGA:   5    -0.663148604447E+03   -0.10496E-02   -0.10495E-02   768   0.213E-02-0.736E-06
CGA:   6    -0.663148953752E+03   -0.34931E-03   -0.34931E-03   768   0.858E-03-0.245E-06
CGA:   7    -0.663149105911E+03   -0.15216E-03   -0.15216E-03   768   0.411E-03-0.131E-05
CGA:   8    -0.663149183424E+03   -0.77513E-04   -0.77518E-04   768   0.208E-03-0.574E-06
  49 F= -.66970970E+03 E0= -.66970066E+03  d E =-.418719E-02  mag=     0.9912
       N       E                     dE             d eps       ncg     rms          ort
SDA:   1    -0.662758030041E+03    0.39108E+00    0.00000E+00   768   0.963E+00 0.000E+00
CGA:   2    -0.663041942412E+03   -0.28391E+00   -0.28382E+00   768   0.469E+00 0.509E-03
CGA:   3    -0.663111604478E+03   -0.69662E-01   -0.69583E-01   768   0.190E+00-0.686E-03
CGA:   4    -0.663139143546E+03   -0.27539E-01   -0.27552E-01   768   0.541E-01-0.129E-04
CGA:   5    -0.663148075322E+03   -0.89318E-02   -0.89299E-02   768   0.166E-01-0.468E-04
CGA:   6    -0.663150768356E+03   -0.26930E-02   -0.26932E-02   768   0.716E-02 0.347E-05
CGA:   7    -0.663152001238E+03   -0.12329E-02   -0.12328E-02   768   0.329E-02-0.615E-05
CGA:   8    -0.663152630440E+03   -0.62920E-03   -0.62919E-03   768   0.165E-02 0.120E-06
CGA:   9    -0.663152969684E+03   -0.33924E-03   -0.33933E-03   768   0.849E-03-0.327E-05
CGA:  10    -0.663153119863E+03   -0.15018E-03   -0.15018E-03   768   0.411E-03 0.560E-06
CGA:  11    -0.663153193799E+03   -0.73936E-04   -0.73934E-04   768   0.160E-03-0.832E-06
  50 F= -.66971458E+03 E0= -.66970568E+03  d E =-.906646E-02  mag=     0.9825
       N       E                     dE             d eps       ncg     rms          ort
SDA:   1    -0.663042104198E+03    0.11102E+00    0.00000E+00   768   0.292E+00 0.000E+00
CGA:   2    -0.663122967902E+03   -0.80864E-01   -0.80877E-01   768   0.152E+00-0.113E-03
CGA:   3    -0.663144952291E+03   -0.21984E-01   -0.22001E-01   768   0.630E-01 0.107E-03
CGA:   4    -0.663154121408E+03   -0.91691E-02   -0.91666E-02   768   0.176E-01 0.101E-04
CGA:   5    -0.663157050394E+03   -0.29290E-02   -0.29293E-02   768   0.575E-02 0.691E-05
CGA:   6    -0.663157987858E+03   -0.93746E-03   -0.93729E-03   768   0.258E-02-0.598E-05
CGA:   7    -0.663158433567E+03   -0.44571E-03   -0.44570E-03   768   0.120E-02-0.165E-05
CGA:   8    -0.663158666251E+03   -0.23268E-03   -0.23270E-03   768   0.597E-03-0.825E-06
CGA:   9    -0.663158785778E+03   -0.11953E-03   -0.11950E-03   768   0.297E-03 0.139E-05
CGA:  10    -0.663158837375E+03   -0.51597E-04   -0.51595E-04   768   0.138E-03-0.214E-06
  51 F= -.66972030E+03 E0= -.66971141E+03  d E =-.571528E-02  mag=     0.9808
       N       E                     dE             d eps       ncg     rms          ort
SDA:   1    -0.662116376762E+03    0.10424E+01    0.00000E+00   768   0.263E+01 0.000E+00
CGA:   2    -0.662845296322E+03   -0.72892E+00   -0.72922E+00   768   0.135E+01-0.251E-02
CGA:   3    -0.663043574664E+03   -0.19828E+00   -0.19865E+00   768   0.554E+00 0.285E-02
CGA:   4    -0.663124774340E+03   -0.81200E-01   -0.81130E-01   768   0.156E+00-0.787E-04
CGA:   5    -0.663150774579E+03   -0.26000E-01   -0.26008E-01   768   0.523E-01 0.215E-03
CGA:   6    -0.663159161653E+03   -0.83871E-02   -0.83841E-02   768   0.233E-01-0.606E-04
CGA:   7    -0.663163158194E+03   -0.39965E-02   -0.39967E-02   768   0.107E-01 0.778E-05
CGA:   8    -0.663165247614E+03   -0.20894E-02   -0.20897E-02   768   0.522E-02-0.121E-04
CGA:   9    -0.663166304055E+03   -0.10564E-02   -0.10562E-02   768   0.264E-02 0.901E-05
CGA:  10    -0.663166750191E+03   -0.44614E-03   -0.44610E-03   768   0.121E-02-0.149E-05
CGA:  11    -0.663166967467E+03   -0.21728E-03   -0.21728E-03   768   0.442E-03 0.167E-05
CGA:  12    -0.663167051950E+03   -0.84483E-04   -0.84491E-04   768   0.203E-03-0.899E-06
  52 F= -.66972870E+03 E0= -.66971987E+03  d E =-.141193E-01  mag=     0.9773
       N       E                     dE             d eps       ncg     rms          ort
SDA:   1    -0.662998596750E+03    0.16837E+00    0.00000E+00   768   0.461E+00 0.000E+00
CGA:   2    -0.663107236842E+03   -0.10864E+00   -0.10867E+00   768   0.273E+00-0.313E-03
CGA:   3    -0.663146428395E+03   -0.39192E-01   -0.39243E-01   768   0.117E+00 0.405E-03
CGA:   4    -0.663164141549E+03   -0.17713E-01   -0.17708E-01   768   0.325E-01 0.145E-05
CGA:   5    -0.663169709179E+03   -0.55676E-02   -0.55682E-02   768   0.120E-01 0.310E-04
CGA:   6    -0.663171682747E+03   -0.19736E-02   -0.19732E-02   768   0.561E-02-0.156E-04
CGA:   7    -0.663172676705E+03   -0.99396E-03   -0.99396E-03   768   0.275E-02-0.143E-05
CGA:   8    -0.663173210571E+03   -0.53387E-03   -0.53393E-03   768   0.132E-02-0.288E-05
CGA:   9    -0.663173463071E+03   -0.25250E-03   -0.25246E-03   768   0.607E-03 0.315E-05
CGA:  10    -0.663173564401E+03   -0.10133E-03   -0.10133E-03   768   0.254E-03 0.357E-06
CGA:  11    -0.663173608568E+03   -0.44166E-04   -0.44174E-04   768   0.920E-04 0.125E-05
  53 F= -.66973501E+03 E0= -.66972623E+03  d E =-.630576E-02  mag=     0.9784
       N       E                     dE             d eps       ncg     rms          ort
SDA:   1    -0.662882424589E+03    0.29114E+00    0.00000E+00   768   0.774E+00 0.000E+00
CGA:   2    -0.663066078080E+03   -0.18365E+00   -0.18370E+00   768   0.449E+00-0.550E-03
CGA:   3    -0.663131995543E+03   -0.65917E-01   -0.66007E-01   768   0.193E+00 0.871E-03
CGA:   4    -0.663161127720E+03   -0.29132E-01   -0.29121E-01   768   0.545E-01-0.287E-04
CGA:   5    -0.663170329468E+03   -0.92017E-02   -0.92032E-02   768   0.202E-01 0.654E-04
CGA:   6    -0.663173681644E+03   -0.33522E-02   -0.33515E-02   768   0.948E-02-0.285E-04
CGA:   7    -0.663175337615E+03   -0.16560E-02   -0.16560E-02   768   0.462E-02 0.138E-05
CGA:   8    -0.663176241298E+03   -0.90368E-03   -0.90383E-03   768   0.217E-02-0.559E-05
CGA:   9    -0.663176659328E+03   -0.41803E-03   -0.41795E-03   768   0.101E-02 0.473E-05
CGA:  10    -0.663176825992E+03   -0.16666E-03   -0.16666E-03   768   0.419E-03 0.276E-06
CGA:  11    -0.663176898769E+03   -0.72778E-04   -0.72786E-04   768   0.148E-03 0.160E-05
  54 F= -.66973797E+03 E0= -.66972925E+03  d E =-.926658E-02  mag=     0.9803
       N       E                     dE             d eps       ncg     rms          ort
SDA:   1    -0.663053257834E+03    0.12357E+00    0.00000E+00   768   0.345E+00 0.000E+00
CGA:   2    -0.663130112215E+03   -0.76854E-01   -0.76868E-01   768   0.195E+00-0.202E-03
CGA:   3    -0.663160415709E+03   -0.30303E-01   -0.30317E-01   768   0.888E-01 0.227E-03
CGA:   4    -0.663174035748E+03   -0.13620E-01   -0.13617E-01   768   0.259E-01-0.262E-05
CGA:   5    -0.663178551040E+03   -0.45153E-02   -0.45155E-02   768   0.961E-02 0.254E-04
CGA:   6    -0.663180202520E+03   -0.16515E-02   -0.16513E-02   768   0.486E-02-0.124E-04
CGA:   7    -0.663181024239E+03   -0.82172E-03   -0.82175E-03   768   0.245E-02 0.800E-06
CGA:   8    -0.663181485850E+03   -0.46161E-03   -0.46164E-03   768   0.106E-02-0.128E-05
CGA:   9    -0.663181699890E+03   -0.21404E-03   -0.21396E-03   768   0.452E-03 0.288E-05
CGA:  10    -0.663181774571E+03   -0.74681E-04   -0.74679E-04   768   0.204E-03-0.268E-07
  55 F= -.66974265E+03 E0= -.66973403E+03  d E =-.468453E-02  mag=     0.9793
       N       E                     dE             d eps       ncg     rms          ort
SDA:   1    -0.662346301388E+03    0.83540E+00    0.00000E+00   768   0.225E+01 0.000E+00
CGA:   2    -0.662848820961E+03   -0.50252E+00   -0.50275E+00   768   0.128E+01-0.325E-02
CGA:   3    -0.663046682773E+03   -0.19786E+00   -0.19811E+00   768   0.579E+00 0.403E-02
CGA:   4    -0.663136026732E+03   -0.89344E-01   -0.89287E-01   768   0.170E+00-0.497E-03
CGA:   5    -0.663165491487E+03   -0.29465E-01   -0.29469E-01   768   0.650E-01 0.407E-03
CGA:   6    -0.663176397297E+03   -0.10906E-01   -0.10903E-01   768   0.320E-01-0.145E-03
CGA:   7    -0.663181898020E+03   -0.55007E-02   -0.55011E-02   768   0.157E-01 0.397E-04
CGA:   8    -0.663184917910E+03   -0.30199E-02   -0.30207E-02   768   0.690E-02-0.307E-04
CGA:   9    -0.663186287902E+03   -0.13700E-02   -0.13696E-02   768   0.305E-02 0.156E-04
CGA:  10    -0.663186777452E+03   -0.48955E-03   -0.48948E-03   768   0.129E-02-0.167E-05
CGA:  11    -0.663186994508E+03   -0.21706E-03   -0.21708E-03   768   0.428E-03 0.197E-05
CGA:  12    -0.663187079426E+03   -0.84918E-04   -0.84932E-04   768   0.197E-03-0.703E-06
  56 F= -.66974746E+03 E0= -.66973904E+03  d E =-.949162E-02  mag=     0.9767
       N       E                     dE             d eps       ncg     rms          ort
SDA:   1    -0.663086274215E+03    0.10072E+00    0.00000E+00   768   0.286E+00 0.000E+00
CGA:   2    -0.663147396388E+03   -0.61122E-01   -0.61130E-01   768   0.160E+00-0.141E-03
CGA:   3    -0.663172555898E+03   -0.25160E-01   -0.25168E-01   768   0.758E-01 0.162E-03
CGA:   4    -0.663184431706E+03   -0.11876E-01   -0.11874E-01   768   0.225E-01-0.908E-05
CGA:   5    -0.663188400644E+03   -0.39689E-02   -0.39690E-02   768   0.833E-02 0.195E-04
CGA:   6    -0.663189849894E+03   -0.14493E-02   -0.14492E-02   768   0.441E-02-0.113E-04
CGA:   7    -0.663190589437E+03   -0.73954E-03   -0.73958E-03   768   0.222E-02 0.124E-05
CGA:   8    -0.663191003814E+03   -0.41438E-03   -0.41440E-03   768   0.942E-03-0.761E-06
CGA:   9    -0.663191194933E+03   -0.19112E-03   -0.19105E-03   768   0.385E-03 0.260E-05
CGA:  10    -0.663191258859E+03   -0.63926E-04   -0.63923E-04   768   0.179E-03-0.156E-06
  57 F= -.66975150E+03 E0= -.66974318E+03  d E =-.403917E-02  mag=     0.9751
       N       E                     dE             d eps       ncg     rms          ort
SDA:   1    -0.662687406302E+03    0.50379E+00    0.00000E+00   768   0.138E+01 0.000E+00
CGA:   2    -0.662983652622E+03   -0.29625E+00   -0.29630E+00   768   0.766E+00-0.913E-03
CGA:   3    -0.663105757170E+03   -0.12210E+00   -0.12215E+00   768   0.360E+00 0.115E-02
CGA:   4    -0.663162450301E+03   -0.56693E-01   -0.56678E-01   768   0.107E+00-0.219E-03
CGA:   5    -0.663181316985E+03   -0.18867E-01   -0.18867E-01   768   0.397E-01 0.161E-03
CGA:   6    -0.663188491257E+03   -0.71743E-02   -0.71749E-02   768   0.204E-01-0.967E-04
CGA:   7    -0.663191898465E+03   -0.34072E-02   -0.34076E-02   768   0.109E-01 0.207E-04
CGA:   8    -0.663193813521E+03   -0.19151E-02   -0.19150E-02   768   0.445E-02-0.141E-04
CGA:   9    -0.663194725788E+03   -0.91227E-03   -0.91192E-03   768   0.168E-02 0.971E-05
CGA:  10    -0.663195022481E+03   -0.29669E-03   -0.29669E-03   768   0.786E-03-0.125E-05
CGA:  11    -0.663195138392E+03   -0.11591E-03   -0.11595E-03   768   0.267E-03 0.119E-05
CGA:  12    -0.663195193400E+03   -0.55008E-04   -0.55022E-04   768   0.106E-03-0.512E-06
  58 F= -.66975512E+03 E0= -.66974700E+03  d E =-.765801E-02  mag=     0.9715
       N       E                     dE             d eps       ncg     rms          ort
SDA:   1    -0.663078014082E+03    0.11712E+00    0.00000E+00   768   0.324E+00 0.000E+00
CGA:   2    -0.663151618367E+03   -0.73604E-01   -0.73601E-01   768   0.177E+00 0.338E-04
CGA:   3    -0.663179562142E+03   -0.27944E-01   -0.27945E-01   768   0.800E-01 0.601E-05
CGA:   4    -0.663191980460E+03   -0.12418E-01   -0.12418E-01   768   0.227E-01-0.384E-05
CGA:   5    -0.663196027410E+03   -0.40469E-02   -0.40470E-02   768   0.753E-02 0.193E-05
CGA:   6    -0.663197529445E+03   -0.15020E-02   -0.15023E-02   768   0.348E-02-0.940E-05
CGA:   7    -0.663198211467E+03   -0.68202E-03   -0.68195E-03   768   0.200E-02 0.232E-05
CGA:   8    -0.663198524372E+03   -0.31290E-03   -0.31285E-03   768   0.101E-02-0.698E-06
CGA:   9    -0.663198706913E+03   -0.18254E-03   -0.18254E-03   768   0.335E-03 0.199E-05
CGA:  10    -0.663198779517E+03   -0.72604E-04   -0.72604E-04   768   0.124E-03 0.543E-07
  59 F= -.66975868E+03 E0= -.66975064E+03  d E =-.356767E-02  mag=     0.9714
       N       E                     dE             d eps       ncg     rms          ort
SDA:   1    -0.663161399612E+03    0.37307E-01    0.00000E+00   768   0.102E+00 0.000E+00
CGA:   2    -0.663184534183E+03   -0.23135E-01   -0.23135E-01   768   0.557E-01-0.757E-05
CGA:   3    -0.663193319526E+03   -0.87853E-02   -0.87860E-02   768   0.252E-01 0.651E-05
CGA:   4    -0.663197224024E+03   -0.39045E-02   -0.39043E-02   768   0.719E-02 0.937E-06
CGA:   5    -0.663198465513E+03   -0.12415E-02   -0.12415E-02   768   0.252E-02 0.353E-06
CGA:   6    -0.663198951594E+03   -0.48608E-03   -0.48614E-03   768   0.122E-02-0.342E-05
CGA:   7    -0.663199166076E+03   -0.21448E-03   -0.21449E-03   768   0.718E-03 0.109E-06
CGA:   8    -0.663199282885E+03   -0.11681E-03   -0.11680E-03   768   0.305E-03-0.132E-06
CGA:   9    -0.663199345145E+03   -0.62260E-04   -0.62235E-04   768   0.111E-03 0.100E-05
  60 F= -.66975924E+03 E0= -.66975123E+03  d E =-.412232E-02  mag=     0.9713
       N       E                     dE             d eps       ncg     rms          ort
SDA:   1    -0.663117468011E+03    0.81815E-01    0.00000E+00   768   0.226E+00 0.000E+00
CGA:   2    -0.663171492837E+03   -0.54025E-01   -0.54016E-01   768   0.122E+00 0.844E-04
CGA:   3    -0.663189823912E+03   -0.18331E-01   -0.18319E-01   768   0.550E-01-0.137E-03
CGA:   4    -0.663198144372E+03   -0.83205E-02   -0.83218E-02   768   0.156E-01-0.791E-05
CGA:   5    -0.663200733162E+03   -0.25888E-02   -0.25885E-02   768   0.549E-02-0.703E-05
CGA:   6    -0.663201648475E+03   -0.91531E-03   -0.91538E-03   768   0.245E-02 0.290E-05
CGA:   7    -0.663202089148E+03   -0.44067E-03   -0.44067E-03   768   0.123E-02-0.368E-06
CGA:   8    -0.663202314388E+03   -0.22524E-03   -0.22523E-03   768   0.576E-03 0.167E-05
CGA:   9    -0.663202428033E+03   -0.11364E-03   -0.11366E-03   768   0.271E-03-0.557E-06
CGA:  10    -0.663202474730E+03   -0.46697E-04   -0.46702E-04   768   0.119E-03 0.589E-06
  61 F= -.66976260E+03 E0= -.66975462E+03  d E =-.336511E-02  mag=     0.9699
       N       E                     dE             d eps       ncg     rms          ort
SDA:   1    -0.663085354347E+03    0.11707E+00    0.00000E+00   768   0.315E+00 0.000E+00
CGA:   2    -0.663160619736E+03   -0.75265E-01   -0.75252E-01   768   0.169E+00 0.134E-03
CGA:   3    -0.663186086723E+03   -0.25467E-01   -0.25449E-01   768   0.761E-01-0.229E-03
CGA:   4    -0.663197613271E+03   -0.11527E-01   -0.11529E-01   768   0.219E-01-0.617E-05
CGA:   5    -0.663201203741E+03   -0.35905E-02   -0.35900E-02   768   0.751E-02-0.133E-04
CGA:   6    -0.663202472642E+03   -0.12689E-02   -0.12690E-02   768   0.340E-02 0.430E-05
CGA:   7    -0.663203078678E+03   -0.60604E-03   -0.60603E-03   768   0.170E-02-0.900E-06
CGA:   8    -0.663203391790E+03   -0.31311E-03   -0.31310E-03   768   0.796E-03 0.220E-05
CGA:   9    -0.663203549525E+03   -0.15773E-03   -0.15775E-03   768   0.375E-03-0.751E-06
CGA:  10    -0.663203614227E+03   -0.64702E-04   -0.64707E-04   768   0.166E-03 0.723E-06
  62 F= -.66976402E+03 E0= -.66975606E+03  d E =-.477635E-02  mag=     0.9683
       N       E                     dE             d eps       ncg     rms          ort
SDA:   1    -0.663146870335E+03    0.56679E-01    0.00000E+00   768   0.156E+00 0.000E+00
CGA:   2    -0.663187571822E+03   -0.40701E-01   -0.40696E-01   768   0.765E-01 0.457E-04
CGA:   3    -0.663198530729E+03   -0.10959E-01   -0.10957E-01   768   0.367E-01-0.286E-04
CGA:   4    -0.663203847735E+03   -0.53170E-02   -0.53161E-02   768   0.855E-02-0.211E-04
CGA:   5    -0.663205277446E+03   -0.14297E-02   -0.14297E-02   768   0.268E-02 0.447E-05
CGA:   6    -0.663205747428E+03   -0.46998E-03   -0.46999E-03   768   0.108E-02 0.245E-05
CGA:   7    -0.663205936112E+03   -0.18868E-03   -0.18868E-03   768   0.564E-03-0.941E-06
CGA:   8    -0.663206032734E+03   -0.96622E-04   -0.96618E-04   768   0.253E-03-0.552E-06
  63 F= -.66976672E+03 E0= -.66975873E+03  d E =-.270735E-02  mag=     0.9676
       N       E                     dE             d eps       ncg     rms          ort
SDA:   1    -0.662978618860E+03    0.22732E+00    0.00000E+00   768   0.604E+00 0.000E+00
CGA:   2    -0.663136122869E+03   -0.15750E+00   -0.15747E+00   768   0.293E+00 0.305E-03
CGA:   3    -0.663178518319E+03   -0.42395E-01   -0.42382E-01   768   0.142E+00-0.181E-03
CGA:   4    -0.663198825973E+03   -0.20308E-01   -0.20306E-01   768   0.327E-01-0.600E-04
CGA:   5    -0.663204551433E+03   -0.57255E-02   -0.57253E-02   768   0.102E-01-0.538E-05
CGA:   6    -0.663206302057E+03   -0.17506E-02   -0.17507E-02   768   0.435E-02 0.761E-05
CGA:   7    -0.663207052740E+03   -0.75068E-03   -0.75067E-03   768   0.212E-02-0.201E-05
CGA:   8    -0.663207424078E+03   -0.37134E-03   -0.37134E-03   768   0.997E-03-0.335E-06
CGA:   9    -0.663207631979E+03   -0.20790E-03   -0.20794E-03   768   0.474E-03-0.123E-05
CGA:  10    -0.663207723184E+03   -0.91205E-04   -0.91184E-04   768   0.256E-03 0.167E-05
  64 F= -.66976897E+03 E0= -.66976090E+03  d E =-.495461E-02  mag=     0.9661
       N       E                     dE             d eps       ncg     rms          ort
SDA:   1    -0.663110934411E+03    0.96698E-01    0.00000E+00   768   0.261E+00 0.000E+00
[...]
CGA:   7    -0.663240203208E+03   -0.79183E-04   -0.79146E-04   768   0.175E-03-0.105E-05
  94 F= -.66980689E+03 E0= -.66979872E+03  d E =-.180675E-02  mag=     0.9654
       N       E                     dE             d eps       ncg     rms          ort
SDA:   1    -0.663214863616E+03    0.25260E-01    0.00000E+00   768   0.678E-01 0.000E+00
CGA:   2    -0.663234429436E+03   -0.19566E-01   -0.19562E-01   768   0.218E-01 0.284E-04
CGA:   3    -0.663239081060E+03   -0.46516E-02   -0.46517E-02   768   0.633E-02-0.256E-05
CGA:   4    -0.663240190912E+03   -0.11099E-02   -0.11099E-02   768   0.192E-02 0.181E-06
CGA:   5    -0.663240446465E+03   -0.25555E-03   -0.25551E-03   768   0.629E-03-0.330E-06
CGA:   6    -0.663240560721E+03   -0.11426E-03   -0.11425E-03   768   0.256E-03-0.133E-05
CGA:   7    -0.663240597520E+03   -0.36799E-04   -0.36774E-04   768   0.106E-03-0.611E-06
  95 F= -.66980736E+03 E0= -.66979915E+03  d E =-.227588E-02  mag=     0.9659
       N       E                     dE             d eps       ncg     rms          ort
SDA:   1    -0.663204566506E+03    0.35994E-01    0.00000E+00   768   0.991E-01 0.000E+00
CGA:   2    -0.663233072710E+03   -0.28506E-01   -0.28505E-01   768   0.311E-01 0.124E-04
CGA:   3    -0.663239780585E+03   -0.67079E-02   -0.67078E-02   768   0.939E-02-0.471E-06
CGA:   4    -0.663241277570E+03   -0.14970E-02   -0.14970E-02   768   0.334E-02 0.203E-05
CGA:   5    -0.663241679978E+03   -0.40241E-03   -0.40236E-03   768   0.902E-03-0.482E-06
CGA:   6    -0.663241850165E+03   -0.17019E-03   -0.17019E-03   768   0.334E-03-0.800E-06
CGA:   7    -0.663241903359E+03   -0.53194E-04   -0.53180E-04   768   0.126E-03-0.512E-06
  96 F= -.66980883E+03 E0= -.66980060E+03  d E =-.146898E-02  mag=     0.9659
       N       E                     dE             d eps       ncg     rms          ort
SDA:   1    -0.663089196532E+03    0.15265E+00    0.00000E+00   768   0.407E+00 0.000E+00
CGA:   2    -0.663206575999E+03   -0.11738E+00   -0.11737E+00   768   0.126E+00 0.842E-04
CGA:   3    -0.663234371875E+03   -0.27796E-01   -0.27794E-01   768   0.352E-01 0.371E-04
CGA:   4    -0.663240642401E+03   -0.62705E-02   -0.62706E-02   768   0.102E-01 0.135E-05
CGA:   5    -0.663241906265E+03   -0.12639E-02   -0.12638E-02   768   0.369E-02 0.245E-05
CGA:   6    -0.663242560433E+03   -0.65417E-03   -0.65415E-03   768   0.112E-02-0.155E-05
CGA:   7    -0.663242743542E+03   -0.18311E-03   -0.18308E-03   768   0.504E-03-0.122E-05
CGA:   8    -0.663242843938E+03   -0.10040E-03   -0.10039E-03   768   0.228E-03 0.559E-06
CGA:   9    -0.663242888146E+03   -0.44208E-04   -0.44206E-04   768   0.157E-03 0.320E-06
  97 F= -.66981013E+03 E0= -.66980188E+03  d E =-.277727E-02  mag=     0.9655
       N       E                     dE             d eps       ncg     rms          ort
SDA:   1    -0.663186154880E+03    0.56689E-01    0.00000E+00   768   0.154E+00 0.000E+00
CGA:   2    -0.663230285792E+03   -0.44131E-01   -0.44140E-01   768   0.487E-01-0.830E-04
CGA:   3    -0.663240808768E+03   -0.10523E-01   -0.10522E-01   768   0.143E-01 0.206E-04
CGA:   4    -0.663243161034E+03   -0.23523E-02   -0.23524E-02   768   0.453E-02 0.148E-05
CGA:   5    -0.663243729015E+03   -0.56798E-03   -0.56812E-03   768   0.143E-02 0.262E-05
CGA:   6    -0.663243978773E+03   -0.24976E-03   -0.24976E-03   768   0.525E-03 0.560E-06
CGA:   7    -0.663244062657E+03   -0.83885E-04   -0.83883E-04   768   0.181E-03-0.584E-07
  98 F= -.66981152E+03 E0= -.66980328E+03  d E =-.138270E-02  mag=     0.9649
       N       E                     dE             d eps       ncg     rms          ort
SDA:   1    -0.663201474666E+03    0.42504E-01    0.00000E+00   768   0.114E+00 0.000E+00
CGA:   2    -0.663233974217E+03   -0.32500E-01   -0.32506E-01   768   0.363E-01-0.557E-04
CGA:   3    -0.663241840615E+03   -0.78664E-02   -0.78659E-02   768   0.975E-02 0.128E-04
CGA:   4    -0.663243656675E+03   -0.18161E-02   -0.18161E-02   768   0.270E-02 0.263E-05
CGA:   5    -0.663244027313E+03   -0.37064E-03   -0.37067E-03   768   0.943E-03 0.986E-06
CGA:   6    -0.663244214549E+03   -0.18724E-03   -0.18723E-03   768   0.237E-03 0.317E-06
CGA:   7    -0.663244266499E+03   -0.51950E-04   -0.51938E-04   768   0.146E-03 0.441E-06
  99 F= -.66981190E+03 E0= -.66980368E+03  d E =-.176438E-02  mag=     0.9644
       N       E                     dE             d eps       ncg     rms          ort
SDA:   1    -0.663223956500E+03    0.20258E-01    0.00000E+00   768   0.564E-01 0.000E+00
CGA:   2    -0.663240025963E+03   -0.16069E-01   -0.16069E-01   768   0.184E-01 0.211E-05
CGA:   3    -0.663243646158E+03   -0.36202E-02   -0.36202E-02   768   0.772E-02-0.997E-06
CGA:   4    -0.663244581026E+03   -0.93487E-03   -0.93510E-03   768   0.240E-02 0.366E-05
CGA:   5    -0.663244945419E+03   -0.36439E-03   -0.36439E-03   768   0.535E-03 0.147E-06
CGA:   6    -0.663245048290E+03   -0.10287E-03   -0.10287E-03   768   0.236E-03-0.677E-06
CGA:   7    -0.663245085439E+03   -0.37149E-04   -0.37135E-04   768   0.900E-04-0.422E-06
 100 F= -.66981281E+03 E0= -.66980459E+03  d E =-.910887E-03  mag=     0.9646
       N       E                     dE             d eps       ncg     rms          ort
SDA:   1    -0.663056300365E+03    0.18875E+00    0.00000E+00   768   0.507E+00 0.000E+00
CGA:   2    -0.663201687259E+03   -0.14539E+00   -0.14538E+00   768   0.159E+00 0.937E-04
CGA:   3    -0.663235820699E+03   -0.34133E-01   -0.34130E-01   768   0.465E-01 0.859E-04
CGA:   4    -0.663243775614E+03   -0.79549E-02   -0.79545E-02   768   0.131E-01-0.468E-06
CGA:   5    -0.663245561723E+03   -0.17861E-02   -0.17865E-02   768   0.413E-02-0.739E-06
CGA:   6    -0.663246311236E+03   -0.74951E-03   -0.74949E-03   768   0.154E-02-0.187E-05
CGA:   7    -0.663246527278E+03   -0.21604E-03   -0.21603E-03   768   0.629E-03-0.212E-06
CGA:   8    -0.663246650915E+03   -0.12364E-03   -0.12364E-03   768   0.271E-03 0.751E-08
CGA:   9    -0.663246711249E+03   -0.60334E-04   -0.60295E-04   768   0.155E-03 0.114E-05
 101 F= -.66981471E+03 E0= -.66980651E+03  d E =-.280996E-02  mag=     0.9654
       N       E                     dE             d eps       ncg     rms          ort
SDA:   1    -0.662483738903E+03    0.76291E+00    0.00000E+00   768   0.203E+01 0.000E+00
CGA:   2    -0.663066007572E+03   -0.58227E+00   -0.58219E+00   768   0.639E+00 0.647E-03
CGA:   3    -0.663201643088E+03   -0.13564E+00   -0.13560E+00   768   0.200E+00 0.105E-02
CGA:   4    -0.663233473311E+03   -0.31830E-01   -0.31820E-01   768   0.596E-01-0.400E-04
CGA:   5    -0.663241562625E+03   -0.80893E-02   -0.80931E-02   768   0.174E-01 0.818E-05
CGA:   6    -0.663244559322E+03   -0.29967E-02   -0.29967E-02   768   0.738E-02-0.146E-05
CGA:   7    -0.663245604177E+03   -0.10449E-02   -0.10448E-02   768   0.233E-02-0.184E-06
CGA:   8    -0.663246097749E+03   -0.49357E-03   -0.49356E-03   768   0.111E-02 0.321E-06
CGA:   9    -0.663246321895E+03   -0.22415E-03   -0.22411E-03   768   0.664E-03 0.255E-05
CGA:  10    -0.663246438742E+03   -0.11685E-03   -0.11685E-03   768   0.356E-03 0.210E-06
CGA:  11    -0.663246510032E+03   -0.71291E-04   -0.71280E-04   768   0.145E-03 0.956E-06
 102 F= -.66981504E+03 E0= -.66980689E+03  d E =-.314231E-02  mag=     0.9675
       N       E                     dE             d eps       ncg     rms          ort
SDA:   1    -0.663108819039E+03    0.13762E+00    0.00000E+00   768   0.369E+00 0.000E+00
CGA:   2    -0.663214402600E+03   -0.10558E+00   -0.10559E+00   768   0.117E+00-0.523E-04
CGA:   3    -0.663238661707E+03   -0.24259E-01   -0.24260E-01   768   0.421E-01-0.123E-04
CGA:   4    -0.663244386888E+03   -0.57252E-02   -0.57264E-02   768   0.141E-01-0.434E-05
CGA:   5    -0.663246245977E+03   -0.18591E-02   -0.18595E-02   768   0.345E-02 0.228E-05
CGA:   6    -0.663246847753E+03   -0.60178E-03   -0.60182E-03   768   0.129E-02 0.265E-05
CGA:   7    -0.663247061361E+03   -0.21361E-03   -0.21363E-03   768   0.398E-03 0.107E-05
CGA:   8    -0.663247134948E+03   -0.73587E-04   -0.73588E-04   768   0.233E-03 0.261E-06
 103 F= -.66981544E+03 E0= -.66980727E+03  d E =-.354220E-02  mag=     0.9667
       N       E                     dE             d eps       ncg     rms          ort
SDA:   1    -0.663155959788E+03    0.91102E-01    0.00000E+00   768   0.250E+00 0.000E+00
CGA:   2    -0.663225487079E+03   -0.69527E-01   -0.69517E-01   768   0.908E-01 0.955E-04
CGA:   3    -0.663241473757E+03   -0.15987E-01   -0.15988E-01   768   0.395E-01 0.471E-04
CGA:   4    -0.663246775163E+03   -0.53014E-02   -0.53000E-02   768   0.109E-01 0.971E-05
CGA:   5    -0.663248336272E+03   -0.15611E-02   -0.15611E-02   768   0.286E-02-0.178E-05
CGA:   6    -0.663248802787E+03   -0.46652E-03   -0.46644E-03   768   0.111E-02-0.330E-05
CGA:   7    -0.663248987961E+03   -0.18517E-03   -0.18515E-03   768   0.382E-03-0.165E-05
CGA:   8    -0.663249054747E+03   -0.66786E-04   -0.66781E-04   768   0.182E-03-0.597E-06
 104 F= -.66981750E+03 E0= -.66980929E+03  d E =-.205792E-02  mag=     0.9675
       N       E                     dE             d eps       ncg     rms          ort
SDA:   1    -0.663132832108E+03    0.11616E+00    0.00000E+00   768   0.315E+00 0.000E+00
CGA:   2    -0.663219450098E+03   -0.86618E-01   -0.86605E-01   768   0.121E+00 0.131E-03
CGA:   3    -0.663239034486E+03   -0.19584E-01   -0.19589E-01   768   0.581E-01 0.655E-04
CGA:   4    -0.663246516630E+03   -0.74821E-02   -0.74813E-02   768   0.143E-01 0.172E-04
CGA:   5    -0.663248832827E+03   -0.23162E-02   -0.23162E-02   768   0.377E-02-0.336E-07
CGA:   6    -0.663249462813E+03   -0.62999E-03   -0.62992E-03   768   0.161E-02-0.373E-05
CGA:   7    -0.663249731741E+03   -0.26893E-03   -0.26890E-03   768   0.598E-03-0.206E-05
CGA:   8    -0.663249835432E+03   -0.10369E-03   -0.10369E-03   768   0.305E-03-0.837E-06
CGA:   9    -0.663249897229E+03   -0.61797E-04   -0.61779E-04   768   0.152E-03 0.786E-06
 105 F= -.66981849E+03 E0= -.66981025E+03  d E =-.305389E-02  mag=     0.9685
       N       E                     dE             d eps       ncg     rms          ort
SDA:   1    -0.663122759520E+03    0.12708E+00    0.00000E+00   768   0.344E+00 0.000E+00
CGA:   2    -0.663220875127E+03   -0.98116E-01   -0.98143E-01   768   0.113E+00-0.231E-03
CGA:   3    -0.663243384341E+03   -0.22509E-01   -0.22507E-01   768   0.439E-01 0.934E-04
CGA:   4    -0.663249109514E+03   -0.57252E-02   -0.57238E-02   768   0.139E-01 0.128E-04
CGA:   5    -0.663251070196E+03   -0.19607E-02   -0.19604E-02   768   0.339E-02-0.876E-06
CGA:   6    -0.663251661610E+03   -0.59141E-03   -0.59139E-03   768   0.145E-02-0.209E-05
CGA:   7    -0.663251895621E+03   -0.23401E-03   -0.23400E-03   768   0.451E-03-0.683E-06
CGA:   8    -0.663251981383E+03   -0.85761E-04   -0.85760E-04   768   0.268E-03 0.192E-06
 106 F= -.66982083E+03 E0= -.66981251E+03  d E =-.233598E-02  mag=     0.9681
       N       E                     dE             d eps       ncg     rms          ort
SDA:   1    -0.663200536581E+03    0.51359E-01    0.00000E+00   768   0.138E+00 0.000E+00
CGA:   2    -0.663239534621E+03   -0.38998E-01   -0.39005E-01   768   0.485E-01-0.617E-04
CGA:   3    -0.663248108398E+03   -0.85738E-02   -0.85739E-02   768   0.239E-01 0.680E-05
CGA:   4    -0.663250909307E+03   -0.28009E-02   -0.28018E-02   768   0.584E-02 0.892E-05
CGA:   5    -0.663251917467E+03   -0.10082E-02   -0.10081E-02   768   0.128E-02-0.101E-06
CGA:   6    -0.663252168331E+03   -0.25086E-03   -0.25088E-03   768   0.633E-03-0.122E-05
CGA:   7    -0.663252260663E+03   -0.92331E-04   -0.92310E-04   768   0.215E-03-0.544E-06
 107 F= -.66982127E+03 E0= -.66981290E+03  d E =-.277161E-02  mag=     0.9677
       N       E                     dE             d eps       ncg     rms          ort
SDA:   1    -0.663176179871E+03    0.75988E-01    0.00000E+00   768   0.206E+00 0.000E+00
CGA:   2    -0.663234893725E+03   -0.58714E-01   -0.58718E-01   768   0.692E-01-0.323E-04
CGA:   3    -0.663247789003E+03   -0.12895E-01   -0.12895E-01   768   0.316E-01 0.112E-04
CGA:   4    -0.663251500569E+03   -0.37116E-02   -0.37137E-02   768   0.887E-02 0.724E-05
CGA:   5    -0.663252908011E+03   -0.14074E-02   -0.14073E-02   768   0.172E-02-0.269E-05
CGA:   6    -0.663253278000E+03   -0.36999E-03   -0.37009E-03   768   0.742E-03-0.288E-05
CGA:   7    -0.663253383335E+03   -0.10533E-03   -0.10527E-03   768   0.288E-03-0.135E-05
CGA:   8    -0.663253435981E+03   -0.52646E-04   -0.52647E-04   768   0.148E-03-0.369E-06
 108 F= -.66982264E+03 E0= -.66981424E+03  d E =-.137221E-02  mag=     0.9677
       N       E                     dE             d eps       ncg     rms          ort
SDA:   1    -0.662959294116E+03    0.29409E+00    0.00000E+00   768   0.789E+00 0.000E+00
CGA:   2    -0.663182380303E+03   -0.22309E+00   -0.22311E+00   768   0.282E+00-0.187E-03
CGA:   3    -0.663229552480E+03   -0.47172E-01   -0.47169E-01   768   0.147E+00-0.553E-04
CGA:   4    -0.663246943846E+03   -0.17391E-01   -0.17410E-01   768   0.317E-01 0.744E-05
CGA:   5    -0.663252502936E+03   -0.55591E-02   -0.55589E-02   768   0.648E-02-0.831E-05
CGA:   6    -0.663253829570E+03   -0.13266E-02   -0.13267E-02   768   0.297E-02-0.463E-05
CGA:   7    -0.663254235489E+03   -0.40592E-03   -0.40576E-03   768   0.102E-02-0.283E-05
CGA:   8    -0.663254420497E+03   -0.18501E-03   -0.18501E-03   768   0.502E-03-0.959E-06
CGA:   9    -0.663254522497E+03   -0.10200E-03   -0.10196E-03   768   0.229E-03 0.180E-05
CGA:  10    -0.663254572393E+03   -0.49896E-04   -0.49903E-04   768   0.163E-03-0.228E-06
 109 F= -.66982415E+03 E0= -.66981570E+03  d E =-.288886E-02  mag=     0.9679
       N       E                     dE             d eps       ncg     rms          ort
SDA:   1    -0.663119404888E+03    0.13512E+00    0.00000E+00   768   0.362E+00 0.000E+00
CGA:   2    -0.663221393365E+03   -0.10199E+00   -0.10195E+00   768   0.147E+00 0.351E-03
CGA:   3    -0.663242724549E+03   -0.21331E-01   -0.21325E-01   768   0.748E-01-0.196E-04
CGA:   4    -0.663252604234E+03   -0.98797E-02   -0.98839E-02   768   0.147E-01 0.231E-04
CGA:   5    -0.663255227933E+03   -0.26237E-02   -0.26237E-02   768   0.322E-02-0.537E-05
CGA:   6    -0.663255868455E+03   -0.64052E-03   -0.64061E-03   768   0.146E-02-0.566E-05
CGA:   7    -0.663256072344E+03   -0.20389E-03   -0.20376E-03   768   0.533E-03-0.274E-05
CGA:   8    -0.663256165261E+03   -0.92917E-04   -0.92908E-04   768   0.238E-03-0.126E-05
 110 F= -.66982595E+03 E0= -.66981751E+03  d E =-.179161E-02  mag=     0.9695
       N       E                     dE             d eps       ncg     rms          ort
SDA:   1    -0.663255947224E+03    0.12512E-03    0.00000E+00   768   0.889E-03 0.000E+00
CGA:   2    -0.663256124929E+03   -0.17771E-03   -0.17771E-03   768   0.654E-03-0.241E-06
CGA:   3    -0.663256206270E+03   -0.81341E-04   -0.81268E-04   768   0.191E-03-0.122E-05
 111 F= -.66982600E+03 E0= -.66981756E+03  d E =-.184130E-02  mag=     0.9697
       N       E                     dE             d eps       ncg     rms          ort
SDA:   1    -0.663154274927E+03    0.10185E+00    0.00000E+00   768   0.272E+00 0.000E+00
CGA:   2    -0.663231771871E+03   -0.77497E-01   -0.77508E-01   768   0.997E-01-0.847E-04
CGA:   3    -0.663248709104E+03   -0.16937E-01   -0.16937E-01   768   0.503E-01 0.321E-05
CGA:   4    -0.663254657453E+03   -0.59483E-02   -0.59524E-02   768   0.115E-01 0.100E-04
CGA:   5    -0.663256632825E+03   -0.19754E-02   -0.19753E-02   768   0.237E-02-0.438E-05
CGA:   6    -0.663257110552E+03   -0.47773E-03   -0.47779E-03   768   0.109E-02-0.316E-05
CGA:   7    -0.663257266176E+03   -0.15562E-03   -0.15555E-03   768   0.390E-03-0.168E-05
CGA:   8    -0.663257335203E+03   -0.69027E-04   -0.69025E-04   768   0.196E-03-0.527E-06
 112 F= -.66982737E+03 E0= -.66981897E+03  d E =-.137224E-02  mag=     0.9699
       N       E                     dE             d eps       ncg     rms          ort
SDA:   1    -0.663208280970E+03    0.48985E-01    0.00000E+00   768   0.131E+00 0.000E+00
CGA:   2    -0.663245112509E+03   -0.36832E-01   -0.36835E-01   768   0.505E-01-0.278E-04
CGA:   3    -0.663252937648E+03   -0.78251E-02   -0.78245E-02   768   0.262E-01-0.658E-05
CGA:   4    -0.663256194145E+03   -0.32565E-02   -0.32580E-02   768   0.529E-02 0.967E-05
CGA:   5    -0.663257167877E+03   -0.97373E-03   -0.97374E-03   768   0.119E-02-0.260E-05
CGA:   6    -0.663257400462E+03   -0.23259E-03   -0.23261E-03   768   0.580E-03-0.192E-05
CGA:   7    -0.663257483092E+03   -0.82630E-04   -0.82578E-04   768   0.201E-03-0.126E-05
 113 F= -.66982768E+03 E0= -.66981930E+03  d E =-.168520E-02  mag=     0.9701
       N       E                     dE             d eps       ncg     rms          ort
SDA:   1    -0.663195914424E+03    0.61486E-01    0.00000E+00   768   0.166E+00 0.000E+00
CGA:   2    -0.663243208670E+03   -0.47294E-01   -0.47307E-01   768   0.581E-01-0.102E-03
CGA:   3    -0.663253879197E+03   -0.10671E-01   -0.10671E-01   768   0.258E-01 0.130E-04
CGA:   4    -0.663256910090E+03   -0.30309E-02   -0.30325E-02   768   0.750E-02 0.850E-05
CGA:   5    -0.663258108254E+03   -0.11982E-02   -0.11981E-02   768   0.141E-02-0.217E-05
CGA:   6    -0.663258424573E+03   -0.31632E-03   -0.31644E-03   768   0.579E-03-0.272E-05
CGA:   7    -0.663258506504E+03   -0.81931E-04   -0.81900E-04   768   0.255E-03-0.648E-06
 114 F= -.66982891E+03 E0= -.66982050E+03  d E =-.122892E-02  mag=     0.9697
       N       E                     dE             d eps       ncg     rms          ort
SDA:   1    -0.663223086213E+03    0.35338E-01    0.00000E+00   768   0.942E-01 0.000E+00
CGA:   2    -0.663249942266E+03   -0.26856E-01   -0.26862E-01   768   0.329E-01-0.462E-04
CGA:   3    -0.663256086399E+03   -0.61441E-02   -0.61441E-02   768   0.139E-01 0.708E-05
CGA:   4    -0.663257752296E+03   -0.16659E-02   -0.16667E-02   768   0.433E-02 0.586E-05
CGA:   5    -0.663258432238E+03   -0.67994E-03   -0.67987E-03   768   0.838E-03-0.158E-05
CGA:   6    -0.663258613644E+03   -0.18141E-03   -0.18147E-03   768   0.383E-03-0.177E-05
CGA:   7    -0.663258668910E+03   -0.55267E-04   -0.55234E-04   768   0.148E-03-0.825E-06
 115 F= -.66982923E+03 E0= -.66982078E+03  d E =-.154466E-02  mag=     0.9693
       N       E                     dE             d eps       ncg     rms          ort
SDA:   1    -0.663229946282E+03    0.28667E-01    0.00000E+00   768   0.783E-01 0.000E+00
CGA:   2    -0.663252142794E+03   -0.22197E-01   -0.22195E-01   768   0.294E-01 0.135E-04
CGA:   3    -0.663256941601E+03   -0.47988E-02   -0.47987E-02   768   0.146E-01-0.130E-05
CGA:   4    -0.663258698638E+03   -0.17570E-02   -0.17579E-02   768   0.343E-02 0.721E-05
CGA:   5    -0.663259296129E+03   -0.59749E-03   -0.59747E-03   768   0.708E-03-0.246E-05
CGA:   6    -0.663259444616E+03   -0.14849E-03   -0.14857E-03   768   0.326E-03-0.301E-05
CGA:   7    -0.663259490057E+03   -0.45441E-04   -0.45391E-04   768   0.131E-03-0.111E-05
 116 F= -.66983015E+03 E0= -.66982166E+03  d E =-.923070E-03  mag=     0.9695
       N       E                     dE             d eps       ncg     rms          ort
SDA:   1    -0.663154647467E+03    0.10480E+00    0.00000E+00   768   0.279E+00 0.000E+00
CGA:   2    -0.663233348324E+03   -0.78701E-01   -0.78689E-01   768   0.110E+00 0.122E-03
CGA:   3    -0.663250161888E+03   -0.16814E-01   -0.16812E-01   768   0.552E-01-0.140E-04
CGA:   4    -0.663257095896E+03   -0.69340E-02   -0.69372E-02   768   0.119E-01 0.159E-04
CGA:   5    -0.663259194495E+03   -0.20986E-02   -0.20986E-02   768   0.253E-02-0.443E-05
CGA:   6    -0.663259696741E+03   -0.50225E-03   -0.50233E-03   768   0.118E-02-0.472E-05
CGA:   7    -0.663259862365E+03   -0.16562E-03   -0.16552E-03   768   0.423E-03-0.247E-05
CGA:   8    -0.663259937037E+03   -0.74672E-04   -0.74669E-04   768   0.201E-03-0.111E-05
 117 F= -.66983079E+03 E0= -.66982223E+03  d E =-.155933E-02  mag=     0.9701
