       N       E                     dE             d eps       ncg     rms          ort
DAV:   1     0.297756553205E+04    0.29776E+04   -0.12164E+05   688   0.132E+03
DAV:   2    -0.303752509971E+02   -0.30079E+04   -0.29101E+04   688   0.352E+02
DAV:   3    -0.476621026661E+03   -0.44625E+03   -0.44256E+03   688   0.155E+02
DAV:   4    -0.491752590434E+03   -0.15132E+02   -0.14770E+02   688   0.399E+01
DAV:   5    -0.492300343556E+03   -0.54775E+00   -0.54090E+00   688   0.586E+00
SDA:   6    -0.348945116311E+03    0.14336E+03   -0.54090E+00   688   0.356E+03 0.000E+00
CGA:   7    -0.404388979441E+03   -0.55444E+02   -0.57562E+02   688   0.278E+02 0.219E+02
CGA:   8    -0.410476243579E+03   -0.60873E+01   -0.60819E+01   688   0.111E+02 0.390E+00
CGA:   9    -0.412426776164E+03   -0.19505E+01   -0.19635E+01   688   0.360E+01 0.140E+00
CGA:  10    -0.413301750948E+03   -0.87497E+00   -0.87823E+00   688   0.151E+01-0.621E-01
CGA:  11    -0.413715064114E+03   -0.41331E+00   -0.42316E+00   688   0.765E+00-0.123E+00
CGA:  12    -0.413882288313E+03   -0.16722E+00   -0.17243E+00   688   0.385E+00-0.100E+00
CGA:  13    -0.413953619830E+03   -0.71332E-01   -0.71303E-01   688   0.209E+00 0.167E-02
CGA:  14    -0.413994458646E+03   -0.40839E-01   -0.41155E-01   688   0.797E-01 0.150E-01
CGA:  15    -0.414012155530E+03   -0.17697E-01   -0.17679E-01   688   0.283E-01 0.650E-02
CGA:  16    -0.414019710097E+03   -0.75546E-02   -0.74743E-02   688   0.107E-01 0.130E-02
CGA:  17    -0.414022814041E+03   -0.31039E-02   -0.30755E-02   688   0.503E-02 0.301E-03
CGA:  18    -0.414024245074E+03   -0.14310E-02   -0.14237E-02   688   0.220E-02 0.818E-04
CGA:  19    -0.414024969554E+03   -0.72448E-03   -0.72351E-03   688   0.870E-03 0.764E-05
CGA:  20    -0.414025246224E+03   -0.27667E-03   -0.27646E-03   688   0.384E-03 0.225E-05
CGA:  21    -0.414025348280E+03   -0.10206E-03   -0.10197E-03   688   0.172E-03 0.200E-05
CGA:  22    -0.414025395961E+03   -0.47681E-04   -0.47616E-04   688   0.676E-04 0.132E-05
   1 F= -.41862658E+03 E0= -.41860335E+03  d E =-.418627E+03  mag=     0.0892
       N       E                     dE             d eps       ncg     rms          ort
SDA:   1     0.805764910817E+03    0.12198E+04    0.00000E+00   688   0.378E+04 0.000E+00
CGA:   2    -0.102754440276E+03   -0.90852E+03   -0.90994E+03   688   0.952E+03-0.145E+03
CGA:   3    -0.336261178384E+03   -0.23351E+03   -0.23217E+03   688   0.270E+03 0.421E+02
CGA:   4    -0.395774168704E+03   -0.59513E+02   -0.60191E+02   688   0.741E+02 0.137E+02
CGA:   5    -0.413267779693E+03   -0.17494E+02   -0.16068E+02   688   0.579E+02-0.122E+02
CGA:   6    -0.418491242867E+03   -0.52235E+01   -0.58901E+01   688   0.163E+02-0.588E+00
CGA:   7    -0.421987394144E+03   -0.34962E+01   -0.34960E+01   688   0.574E+01 0.707E-01
CGA:   8    -0.423285760694E+03   -0.12984E+01   -0.12998E+01   688   0.680E+01 0.320E+00
CGA:   9    -0.423730219454E+03   -0.44446E+00   -0.34010E+00   688   0.170E+01 0.208E+01
CGA:  10    -0.424025214346E+03   -0.29499E+00   -0.28190E+00   688   0.484E+01 0.334E-01
CGA:  11    -0.424302443490E+03   -0.27723E+00   -0.29657E+00   688   0.351E+01-0.220E+00
CGA:  12    -0.424390757107E+03   -0.88314E-01   -0.17722E+00   688   0.126E+01-0.121E+01
CGA:  13    -0.424501805515E+03   -0.11105E+00   -0.11108E+00   688   0.129E+01 0.498E-02
CGA:  14    -0.424605407594E+03   -0.10360E+00   -0.10152E+00   688   0.479E+00 0.145E-01
CGA:  15    -0.424689749391E+03   -0.84342E-01   -0.84278E-01   688   0.376E+00-0.294E-02
CGA:  16    -0.424718521866E+03   -0.28772E-01   -0.29939E-01   688   0.206E+00-0.101E-01
CGA:  17    -0.424757804683E+03   -0.39283E-01   -0.39309E-01   688   0.126E+00-0.117E-02
CGA:  18    -0.424774273936E+03   -0.16469E-01   -0.16495E-01   688   0.132E+00 0.425E-04
CGA:  19    -0.424788520668E+03   -0.14247E-01   -0.14292E-01   688   0.626E-01-0.798E-04
CGA:  20    -0.424803658562E+03   -0.15138E-01   -0.15176E-01   688   0.623E-01-0.448E-03
CGA:  21    -0.424809279043E+03   -0.56205E-02   -0.56149E-02   688   0.392E-01-0.514E-04
CGA:  22    -0.424817656089E+03   -0.83770E-02   -0.84250E-02   688   0.284E-01-0.904E-03
CGA:  23    -0.424821914240E+03   -0.42582E-02   -0.42455E-02   688   0.318E-01-0.193E-03
CGA:  24    -0.424825605128E+03   -0.36909E-02   -0.37516E-02   688   0.166E-01-0.111E-04
CGA:  25    -0.424829753536E+03   -0.41484E-02   -0.41583E-02   688   0.167E-01-0.135E-03
CGA:  26    -0.424831543768E+03   -0.17902E-02   -0.17783E-02   688   0.142E-01 0.150E-04
CGA:  27    -0.424834710993E+03   -0.31672E-02   -0.31751E-02   688   0.129E-01-0.129E-03
CGA:  28    -0.424836479574E+03   -0.17686E-02   -0.17539E-02   688   0.144E-01-0.590E-04
CGA:  29    -0.424838444317E+03   -0.19647E-02   -0.19327E-02   688   0.107E-01-0.119E-03
CGA:  30    -0.424840054848E+03   -0.16105E-02   -0.16081E-02   688   0.136E-01-0.210E-04
CGA:  31    -0.424841484042E+03   -0.14292E-02   -0.13859E-02   688   0.940E-02 0.143E-03
SDA:  32    -0.424842920629E+03   -0.14366E-02   -0.14323E-02   688   0.147E-01-0.877E-04
CGA:  33    -0.424844717068E+03   -0.17964E-02   -0.18116E-02   688   0.133E-01 0.541E-04
CGA:  34    -0.424847682559E+03   -0.29655E-02   -0.29668E-02   688   0.732E-02-0.203E-04
CGA:  35    -0.424849421047E+03   -0.17385E-02   -0.17101E-02   688   0.283E-02 0.323E-03
CGA:  36    -0.424850491866E+03   -0.10708E-02   -0.10813E-02   688   0.792E-02-0.554E-04
CGA:  37    -0.424851517350E+03   -0.10255E-02   -0.10366E-02   688   0.215E-02 0.409E-04
CGA:  38    -0.424852763139E+03   -0.12458E-02   -0.12767E-02   688   0.353E-02-0.914E-04
CGA:  39    -0.424854104579E+03   -0.13414E-02   -0.13297E-02   688   0.384E-02 0.583E-04
CGA:  40    -0.424854699308E+03   -0.59473E-03   -0.60043E-03   688   0.427E-02 0.198E-04
CGA:  41    -0.424855841049E+03   -0.11417E-02   -0.11533E-02   688   0.228E-02-0.132E-03
CGA:  42    -0.424856581904E+03   -0.74085E-03   -0.73335E-03   688   0.134E-02 0.510E-04
CGA:  43    -0.424856839435E+03   -0.25753E-03   -0.25696E-03   688   0.182E-02-0.916E-05
CGA:  44    -0.424857176287E+03   -0.33685E-03   -0.33725E-03   688   0.405E-03 0.371E-05
CGA:  45    -0.424857398839E+03   -0.22255E-03   -0.22104E-03   688   0.287E-03 0.465E-05
CGA:  46    -0.424857456358E+03   -0.57519E-04   -0.57414E-04   688   0.443E-03-0.265E-05
   2 F= -.42950483E+03 E0= -.42948578E+03  d E =-.108782E+02  mag=    -0.3067
       N       E                     dE             d eps       ncg     rms          ort
SDA:   1    -0.139819206269E+03    0.28504E+03    0.00000E+00   688   0.793E+03 0.000E+00
CGA:   2    -0.342285259357E+03   -0.20247E+03   -0.20287E+03   688   0.466E+03 0.265E+02
CGA:   3    -0.392823911892E+03   -0.50539E+02   -0.61956E+02   688   0.228E+03-0.761E+02
CGA:   4    -0.415002957403E+03   -0.22179E+02   -0.24476E+02   688   0.162E+03-0.855E+02
CGA:   5    -0.427501771486E+03   -0.12499E+02   -0.10462E+02   688   0.378E+02-0.229E+02
CGA:   6    -0.431188220965E+03   -0.36864E+01   -0.36686E+01   688   0.220E+02 0.255E+01
CGA:   7    -0.434230049874E+03   -0.30418E+01   -0.33007E+01   688   0.105E+02-0.231E+00
CGA:   8    -0.435209831454E+03   -0.97978E+00   -0.12444E+01   688   0.435E+01 0.365E-02
CGA:   9    -0.436040308411E+03   -0.83048E+00   -0.83562E+00   688   0.126E+01 0.316E+00
CGA:  10    -0.436415349266E+03   -0.37504E+00   -0.36923E+00   688   0.650E+00 0.546E-01
CGA:  11    -0.436550142556E+03   -0.13479E+00   -0.13496E+00   688   0.279E+00 0.209E-01
CGA:  12    -0.436623407180E+03   -0.73265E-01   -0.73268E-01   688   0.102E+00-0.437E-03
CGA:  13    -0.436654686886E+03   -0.31280E-01   -0.30964E-01   688   0.458E-01 0.268E-02
CGA:  14    -0.436667341126E+03   -0.12654E-01   -0.12654E-01   688   0.287E-01-0.364E-04
CGA:  15    -0.436675046207E+03   -0.77051E-02   -0.76831E-02   688   0.128E-01 0.288E-03
CGA:  16    -0.436679927600E+03   -0.48814E-02   -0.48955E-02   688   0.711E-02-0.897E-04
CGA:  17    -0.436682026800E+03   -0.20992E-02   -0.20953E-02   688   0.477E-02 0.404E-04
CGA:  18    -0.436683347890E+03   -0.13211E-02   -0.13228E-02   688   0.217E-02-0.271E-04
CGA:  19    -0.436684133114E+03   -0.78522E-03   -0.78471E-03   688   0.116E-02 0.345E-05
CGA:  20    -0.436684481826E+03   -0.34871E-03   -0.34888E-03   688   0.772E-03-0.171E-05
CGA:  21    -0.436684697858E+03   -0.21603E-03   -0.21611E-03   688   0.343E-03-0.150E-05
CGA:  22    -0.436684829670E+03   -0.13181E-03   -0.13171E-03   688   0.218E-03 0.613E-06
CGA:  23    -0.436684893874E+03   -0.64204E-04   -0.64352E-04   688   0.153E-03-0.296E-05
   3 F= -.44131080E+03 E0= -.44129345E+03  d E =-.226842E+02  mag=     0.1621
       N       E                     dE             d eps       ncg     rms          ort
SDA:   1    -0.171407121298E+03    0.26528E+03    0.00000E+00   688   0.776E+03 0.000E+00
CGA:   2    -0.361610824520E+03   -0.19020E+03   -0.19038E+03   688   0.265E+03 0.902E+01
CGA:   3    -0.422409724106E+03   -0.60799E+02   -0.59839E+02   688   0.116E+03-0.189E+02
CGA:   4    -0.440780189509E+03   -0.18370E+02   -0.16259E+02   688   0.243E+02 0.794E+01
CGA:   5    -0.446237254202E+03   -0.54571E+01   -0.54678E+01   688   0.712E+01 0.107E+00
CGA:   6    -0.447819605071E+03   -0.15824E+01   -0.15899E+01   688   0.385E+01 0.124E+00
CGA:   7    -0.448347882303E+03   -0.52828E+00   -0.56050E+00   688   0.170E+01-0.703E-01
CGA:   8    -0.448747601735E+03   -0.39972E+00   -0.39975E+00   688   0.565E+00 0.211E-01
CGA:   9    -0.448933240327E+03   -0.18564E+00   -0.18554E+00   688   0.276E+00 0.692E-03
CGA:  10    -0.448991957699E+03   -0.58717E-01   -0.58925E-01   688   0.144E+00 0.264E-02
CGA:  11    -0.449020791510E+03   -0.28834E-01   -0.28886E-01   688   0.477E-01 0.421E-03
CGA:  12    -0.449034580970E+03   -0.13789E-01   -0.13785E-01   688   0.151E-01 0.457E-04
CGA:  13    -0.449039703759E+03   -0.51228E-02   -0.51224E-02   688   0.640E-02 0.307E-05
CGA:  14    -0.449041702726E+03   -0.19990E-02   -0.20003E-02   688   0.394E-02-0.191E-04
CGA:  15    -0.449042523824E+03   -0.82110E-03   -0.82010E-03   688   0.199E-02-0.186E-04
CGA:  16    -0.449043087746E+03   -0.56392E-03   -0.56456E-03   688   0.761E-03-0.155E-04
CGA:  17    -0.449043360096E+03   -0.27235E-03   -0.27312E-03   688   0.355E-03-0.706E-05
CGA:  18    -0.449043480903E+03   -0.12081E-03   -0.12106E-03   688   0.184E-03-0.272E-05
CGA:  19    -0.449043537518E+03   -0.56614E-04   -0.56650E-04   688   0.138E-03-0.891E-06
   4 F= -.45366961E+03 E0= -.45364894E+03  d E =-.123588E+02  mag=     0.1664
       N       E                     dE             d eps       ncg     rms          ort
SDA:   1    -0.447969790323E+03    0.10737E+01    0.00000E+00   688   0.291E+01 0.000E+00
CGA:   2    -0.448740534735E+03   -0.77074E+00   -0.77069E+00   688   0.125E+01 0.883E-02
CGA:   3    -0.448974526701E+03   -0.23399E+00   -0.23319E+00   688   0.469E+00-0.168E-02
CGA:   4    -0.449061678478E+03   -0.87152E-01   -0.86958E-01   688   0.790E-01-0.273E-03
CGA:   5    -0.449080362233E+03   -0.18684E-01   -0.18685E-01   688   0.186E-01 0.366E-05
CGA:   6    -0.449085294574E+03   -0.49323E-02   -0.49325E-02   688   0.662E-02-0.960E-05
CGA:   7    -0.449086907905E+03   -0.16133E-02   -0.16132E-02   688   0.403E-02-0.105E-04
CGA:   8    -0.449087819046E+03   -0.91114E-03   -0.91104E-03   688   0.157E-02-0.467E-05
CGA:   9    -0.449088310240E+03   -0.49119E-03   -0.49179E-03   688   0.562E-03-0.951E-05
CGA:  10    -0.449088471231E+03   -0.16099E-03   -0.16105E-03   688   0.269E-03-0.192E-05
CGA:  11    -0.449088526765E+03   -0.55534E-04   -0.55495E-04   688   0.117E-03-0.947E-06
   5 F= -.45371523E+03 E0= -.45369484E+03  d E =-.124044E+02  mag=     0.1628
       N       E                     dE             d eps       ncg     rms          ort
SDA:   1    -0.289595564299E+03    0.15949E+03    0.00000E+00   688   0.439E+03 0.000E+00
CGA:   2    -0.405552021419E+03   -0.11596E+03   -0.11593E+03   688   0.178E+03 0.197E+01
CGA:   3    -0.441301975269E+03   -0.35750E+02   -0.36739E+02   688   0.468E+02 0.537E+01
CGA:   4    -0.450698308043E+03   -0.93963E+01   -0.94739E+01   688   0.999E+01 0.461E+00
CGA:   5    -0.453042981726E+03   -0.23447E+01   -0.23453E+01   688   0.273E+01 0.187E-01
CGA:   6    -0.453744758538E+03   -0.70178E+00   -0.70182E+00   688   0.883E+00-0.309E-02
CGA:   7    -0.453987220600E+03   -0.24246E+00   -0.24213E+00   688   0.374E+00 0.813E-02
CGA:   8    -0.454096011891E+03   -0.10879E+00   -0.10867E+00   688   0.156E+00 0.201E-02
CGA:   9    -0.454144220628E+03   -0.48209E-01   -0.48159E-01   688   0.534E-01 0.676E-03
CGA:  10    -0.454161205892E+03   -0.16985E-01   -0.16979E-01   688   0.184E-01 0.777E-04
CGA:  11    -0.454166910693E+03   -0.57048E-02   -0.57051E-02   688   0.636E-02-0.863E-05
CGA:  12    -0.454168970917E+03   -0.20602E-02   -0.20605E-02   688   0.278E-02-0.484E-05
CGA:  13    -0.454169923565E+03   -0.95265E-03   -0.95283E-03   688   0.119E-02-0.218E-05
CGA:  14    -0.454170382205E+03   -0.45864E-03   -0.45942E-03   688   0.508E-03-0.651E-05
CGA:  15    -0.454170583187E+03   -0.20098E-03   -0.20143E-03   688   0.237E-03-0.355E-05
CGA:  16    -0.454170667753E+03   -0.84566E-04   -0.84628E-04   688   0.127E-03-0.449E-06
   6 F= -.45879494E+03 E0= -.45877398E+03  d E =-.507971E+01  mag=     0.0394
       N       E                     dE             d eps       ncg     rms          ort
SDA:   1    -0.448136772637E+03    0.60338E+01    0.00000E+00   688   0.164E+02 0.000E+00
CGA:   2    -0.452805236690E+03   -0.46685E+01   -0.46684E+01   688   0.618E+01-0.116E-01
CGA:   3    -0.454171727369E+03   -0.13665E+01   -0.13548E+01   688   0.145E+01-0.302E-01
CGA:   4    -0.454485098651E+03   -0.31337E+00   -0.31299E+00   688   0.287E+00-0.360E-03
CGA:   5    -0.454551699127E+03   -0.66600E-01   -0.66593E-01   688   0.799E-01 0.889E-05
CGA:   6    -0.454570760138E+03   -0.19061E-01   -0.19062E-01   688   0.249E-01 0.190E-04
CGA:   7    -0.454578054152E+03   -0.72940E-02   -0.72953E-02   688   0.111E-01-0.348E-04
CGA:   8    -0.454581358242E+03   -0.33041E-02   -0.33043E-02   688   0.490E-02-0.513E-05
CGA:   9    -0.454582801432E+03   -0.14432E-02   -0.14434E-02   688   0.166E-02-0.780E-05
CGA:  10    -0.454583306774E+03   -0.50534E-03   -0.50537E-03   688   0.516E-03-0.104E-05
CGA:  11    -0.454583469723E+03   -0.16295E-03   -0.16289E-03   688   0.183E-03 0.179E-05
CGA:  12    -0.454583529512E+03   -0.59789E-04   -0.59852E-04   688   0.830E-04-0.144E-05
   7 F= -.45920795E+03 E0= -.45918714E+03  d E =-.549272E+01  mag=     0.0176
       N       E                     dE             d eps       ncg     rms          ort
SDA:   1    -0.351483531534E+03    0.10310E+03    0.00000E+00   688   0.297E+03 0.000E+00
CGA:   2    -0.432462357885E+03   -0.80979E+02   -0.80952E+02   688   0.896E+02-0.877E+00
CGA:   3    -0.453604491171E+03   -0.21142E+02   -0.21170E+02   688   0.220E+02 0.330E+00
CGA:   4    -0.458112858599E+03   -0.45084E+01   -0.45294E+01   688   0.494E+01 0.729E-01
CGA:   5    -0.459224817804E+03   -0.11120E+01   -0.11091E+01   688   0.128E+01-0.106E-01
CGA:   6    -0.459537791880E+03   -0.31297E+00   -0.31298E+00   688   0.441E+00 0.494E-03
CGA:   7    -0.459658739833E+03   -0.12095E+00   -0.12094E+00   688   0.197E+00-0.208E-02
CGA:   8    -0.459715862775E+03   -0.57123E-01   -0.57132E-01   688   0.919E-01-0.249E-03
CGA:   9    -0.459739736338E+03   -0.23874E-01   -0.23870E-01   688   0.335E-01-0.610E-04
CGA:  10    -0.459748878179E+03   -0.91418E-02   -0.91418E-02   688   0.118E-01 0.252E-05
CGA:  11    -0.459751984536E+03   -0.31064E-02   -0.31062E-02   688   0.446E-02-0.338E-05
CGA:  12    -0.459753175840E+03   -0.11913E-02   -0.11913E-02   688   0.186E-02 0.144E-05
CGA:  13    -0.459753721788E+03   -0.54595E-03   -0.54594E-03   688   0.822E-03 0.153E-05
CGA:  14    -0.459753967541E+03   -0.24575E-03   -0.24584E-03   688   0.396E-03-0.340E-05
CGA:  15    -0.459754081555E+03   -0.11401E-03   -0.11402E-03   688   0.177E-03-0.367E-06
CGA:  16    -0.459754131924E+03   -0.50369E-04   -0.50382E-04   688   0.767E-04-0.148E-05
   8 F= -.46438358E+03 E0= -.46436381E+03  d E =-.517563E+01  mag=     0.0053
       N       E                     dE             d eps       ncg     rms          ort
SDA:   1    -0.361553811024E+03    0.98200E+02    0.00000E+00   688   0.274E+03 0.000E+00
CGA:   2    -0.436204150977E+03   -0.74650E+02   -0.74639E+02   688   0.823E+02-0.104E+01
CGA:   3    -0.455672003676E+03   -0.19468E+02   -0.19462E+02   688   0.204E+02 0.106E+00
CGA:   4    -0.459786264167E+03   -0.41143E+01   -0.41473E+01   688   0.452E+01 0.959E-01
CGA:   5    -0.460828011242E+03   -0.10417E+01   -0.10405E+01   688   0.107E+01-0.692E-02
CGA:   6    -0.461109336681E+03   -0.28133E+00   -0.28133E+00   688   0.358E+00 0.809E-03
CGA:   7    -0.461212825914E+03   -0.10349E+00   -0.10348E+00   688   0.162E+00 0.248E-03
CGA:   8    -0.461259825174E+03   -0.46999E-01   -0.47005E-01   688   0.854E-01-0.107E-03
CGA:   9    -0.461277681062E+03   -0.17856E-01   -0.17824E-01   688   0.352E-01-0.713E-04
CGA:  10    -0.461286516260E+03   -0.88352E-02   -0.88347E-02   688   0.104E-01-0.147E-05
CGA:  11    -0.461289589663E+03   -0.30734E-02   -0.30738E-02   688   0.361E-02-0.121E-04
CGA:  12    -0.461290541580E+03   -0.95192E-03   -0.95192E-03   688   0.202E-02 0.218E-05
CGA:  13    -0.461290983540E+03   -0.44196E-03   -0.44179E-03   688   0.797E-03-0.185E-05
CGA:  14    -0.461291239370E+03   -0.25583E-03   -0.25591E-03   688   0.318E-03-0.105E-05
CGA:  15    -0.461291340739E+03   -0.10137E-03   -0.10155E-03   688   0.189E-03-0.334E-05
CGA:  16    -0.461291380455E+03   -0.39716E-04   -0.39729E-04   688   0.780E-04 0.299E-06
   9 F= -.46591729E+03 E0= -.46589839E+03  d E =-.670934E+01  mag=     0.0051
       N       E                     dE             d eps       ncg     rms          ort
SDA:   1    -0.442918083224E+03    0.18373E+02    0.00000E+00   688   0.561E+02 0.000E+00
CGA:   2    -0.458678345068E+03   -0.15760E+02   -0.15764E+02   688   0.166E+02-0.165E+00
CGA:   3    -0.462370373662E+03   -0.36920E+01   -0.36770E+01   688   0.568E+01-0.100E+00
CGA:   4    -0.463280261158E+03   -0.90989E+00   -0.92502E+00   688   0.132E+01-0.401E-01
CGA:   5    -0.463550171658E+03   -0.26991E+00   -0.26837E+00   688   0.314E+00-0.563E-02
CGA:   6    -0.463620591823E+03   -0.70420E-01   -0.70482E-01   688   0.101E+00 0.744E-03
CGA:   7    -0.463645283479E+03   -0.24692E-01   -0.24684E-01   688   0.493E-01-0.247E-03
CGA:   8    -0.463656598288E+03   -0.11315E-01   -0.11320E-01   688   0.249E-01 0.842E-04
CGA:   9    -0.463663217307E+03   -0.66190E-02   -0.66199E-02   688   0.994E-02-0.360E-04
CGA:  10    -0.463665803247E+03   -0.25859E-02   -0.25858E-02   688   0.446E-02 0.291E-04
CGA:  11    -0.463666748800E+03   -0.94555E-03   -0.94486E-03   688   0.174E-02-0.680E-05
CGA:  12    -0.463667186884E+03   -0.43808E-03   -0.43808E-03   688   0.630E-03 0.913E-07
CGA:  13    -0.463667353550E+03   -0.16667E-03   -0.16669E-03   688   0.350E-03-0.215E-05
CGA:  14    -0.463667433425E+03   -0.79875E-04   -0.79923E-04   688   0.150E-03 0.191E-05
  10 F= -.46828957E+03 E0= -.46827135E+03  d E =-.237228E+01  mag=     0.0068
       N       E                     dE             d eps       ncg     rms          ort
SDA:   1    -0.280384714941E+03    0.18328E+03    0.00000E+00   688   0.524E+03 0.000E+00
CGA:   2    -0.420051291832E+03   -0.13967E+03   -0.13976E+03   688   0.155E+03-0.409E+01
CGA:   3    -0.456685855850E+03   -0.36635E+02   -0.36580E+02   688   0.399E+02-0.833E+00
CGA:   4    -0.464016270028E+03   -0.73304E+01   -0.75669E+01   688   0.111E+02 0.750E+00
CGA:   5    -0.465918367834E+03   -0.19021E+01   -0.15117E+01   688   0.368E+01 0.114E+01
CGA:   6    -0.466743332615E+03   -0.82496E+00   -0.82735E+00   688   0.115E+01 0.198E-01
CGA:   7    -0.467065015653E+03   -0.32168E+00   -0.32150E+00   688   0.429E+00 0.340E-02
CGA:   8    -0.467199573340E+03   -0.13456E+00   -0.13445E+00   688   0.207E+00 0.124E-02
CGA:   9    -0.467247080557E+03   -0.47507E-01   -0.47371E-01   688   0.202E+00-0.245E-02
CGA:  10    -0.467271674294E+03   -0.24594E-01   -0.25177E-01   688   0.509E-01-0.199E-02
CGA:  11    -0.467287217121E+03   -0.15543E-01   -0.15546E-01   688   0.158E-01-0.350E-04
CGA:  12    -0.467291898460E+03   -0.46813E-02   -0.46802E-02   688   0.951E-02 0.123E-04
CGA:  13    -0.467293098602E+03   -0.12001E-02   -0.11872E-02   688   0.497E-02 0.391E-04
CGA:  14    -0.467294452807E+03   -0.13542E-02   -0.13538E-02   688   0.173E-02 0.791E-05
CGA:  15    -0.467295209273E+03   -0.75647E-03   -0.76093E-03   688   0.158E-02-0.222E-04
CGA:  16    -0.467295515259E+03   -0.30599E-03   -0.30776E-03   688   0.214E-02 0.511E-05
CGA:  17    -0.467296237623E+03   -0.72236E-03   -0.74577E-03   688   0.265E-02-0.193E-03
CGA:  18    -0.467297778130E+03   -0.15405E-02   -0.17828E-02   688   0.835E-02-0.814E-03
CGA:  19    -0.467298490929E+03   -0.71280E-03   -0.57893E-03   688   0.108E-01 0.970E-03
CGA:  20    -0.467300061082E+03   -0.15702E-02   -0.14432E-02   688   0.116E-01 0.700E-03
CGA:  21    -0.467301283467E+03   -0.12224E-02   -0.12465E-02   688   0.103E-01-0.413E-04
CGA:  22    -0.467302310608E+03   -0.10271E-02   -0.10809E-02   688   0.101E-01-0.242E-03
CGA:  23    -0.467303436633E+03   -0.11260E-02   -0.11324E-02   688   0.105E-01-0.925E-05
CGA:  24    -0.467304528788E+03   -0.10922E-02   -0.10892E-02   688   0.965E-02 0.191E-04
CGA:  25    -0.467305515323E+03   -0.98653E-03   -0.99535E-03   688   0.912E-02-0.411E-04
CGA:  26    -0.467306410384E+03   -0.89506E-03   -0.90828E-03   688   0.789E-02-0.538E-04
CGA:  27    -0.467307160074E+03   -0.74969E-03   -0.76086E-03   688   0.666E-02-0.376E-04
CGA:  28    -0.467307830766E+03   -0.67069E-03   -0.67870E-03   688   0.602E-02-0.164E-04
CGA:  29    -0.467308440786E+03   -0.61002E-03   -0.61699E-03   688   0.508E-02-0.175E-04
CGA:  30    -0.467308964184E+03   -0.52340E-03   -0.52777E-03   688   0.441E-02-0.112E-04
CGA:  31    -0.467309461193E+03   -0.49701E-03   -0.49977E-03   688   0.417E-02-0.351E-05
SDA:  32    -0.467309932921E+03   -0.47173E-03   -0.47355E-03   688   0.372E-02-0.115E-05
CGA:  33    -0.467312229179E+03   -0.22963E-02   -0.23116E-02   688   0.450E-02-0.425E-04
CGA:  34    -0.467313342209E+03   -0.11130E-02   -0.11151E-02   688   0.342E-02-0.399E-04
CGA:  35    -0.467314247075E+03   -0.90487E-03   -0.90823E-03   688   0.132E-02-0.442E-04
CGA:  36    -0.467314645578E+03   -0.39850E-03   -0.40134E-03   688   0.555E-03-0.254E-04
CGA:  37    -0.467314833386E+03   -0.18781E-03   -0.18786E-03   688   0.375E-03-0.632E-07
CGA:  38    -0.467314917177E+03   -0.83791E-04   -0.83781E-04   688   0.231E-03-0.167E-05
  11 F= -.47191741E+03 E0= -.47190935E+03  d E =-.600012E+01  mag=     0.0149
       N       E                     dE             d eps       ncg     rms          ort
SDA:   1    -0.452286140831E+03    0.15029E+02    0.00000E+00   688   0.414E+02 0.000E+00
CGA:   2    -0.463924088857E+03   -0.11638E+02   -0.11654E+02   688   0.117E+02-0.217E+00
CGA:   3    -0.466775493761E+03   -0.28514E+01   -0.28506E+01   688   0.296E+01 0.490E-01
CGA:   4    -0.467315849536E+03   -0.54036E+00   -0.53876E+00   688   0.917E+00-0.796E-02
CGA:   5    -0.467467463389E+03   -0.15161E+00   -0.15227E+00   688   0.247E+00-0.108E-03
CGA:   6    -0.467518650249E+03   -0.51187E-01   -0.51165E-01   688   0.720E-01-0.265E-03
CGA:   7    -0.467538179562E+03   -0.19529E-01   -0.19523E-01   688   0.306E-01 0.103E-03
CGA:   8    -0.467546147191E+03   -0.79676E-02   -0.79668E-02   688   0.200E-01 0.253E-04
CGA:   9    -0.467550322745E+03   -0.41756E-02   -0.41797E-02   688   0.815E-02 0.714E-04
CGA:  10    -0.467552581220E+03   -0.22585E-02   -0.22573E-02   688   0.278E-02 0.245E-04
CGA:  11    -0.467553329563E+03   -0.74834E-03   -0.74835E-03   688   0.143E-02-0.182E-05
CGA:  12    -0.467553602119E+03   -0.27256E-03   -0.27265E-03   688   0.529E-03 0.130E-05
CGA:  13    -0.467553761532E+03   -0.15941E-03   -0.15948E-03   688   0.213E-03-0.109E-05
CGA:  14    -0.467553823281E+03   -0.61749E-04   -0.61681E-04   688   0.151E-03 0.122E-05
  12 F= -.47215157E+03 E0= -.47214389E+03  d E =-.623429E+01  mag=     0.0092
       N       E                     dE             d eps       ncg     rms          ort
SDA:   1    -0.457506754138E+03    0.10047E+02    0.00000E+00   688   0.317E+02 0.000E+00
CGA:   2    -0.466660039157E+03   -0.91533E+01   -0.91592E+01   688   0.917E+01-0.739E-01
CGA:   3    -0.468748430874E+03   -0.20884E+01   -0.20883E+01   688   0.347E+01-0.933E-02
CGA:   4    -0.469252598572E+03   -0.50417E+00   -0.51419E+00   688   0.867E+00-0.439E-01
CGA:   5    -0.469422833655E+03   -0.17024E+00   -0.17014E+00   688   0.189E+00-0.781E-03
CGA:   6    -0.469470173272E+03   -0.47340E-01   -0.47331E-01   688   0.584E-01 0.309E-03
CGA:   7    -0.469485465810E+03   -0.15293E-01   -0.15290E-01   688   0.347E-01 0.556E-04
CGA:   8    -0.469492667667E+03   -0.72019E-02   -0.72105E-02   688   0.161E-01 0.102E-03
CGA:   9    -0.469497339601E+03   -0.46719E-02   -0.46693E-02   688   0.594E-02 0.386E-04
CGA:  10    -0.469499066544E+03   -0.17269E-02   -0.17259E-02   688   0.285E-02 0.175E-04
CGA:  11    -0.469499639379E+03   -0.57283E-03   -0.57298E-03   688   0.116E-02 0.488E-05
CGA:  12    -0.469499937887E+03   -0.29851E-03   -0.29857E-03   688   0.388E-03-0.377E-05
CGA:  13    -0.469500055384E+03   -0.11750E-03   -0.11735E-03   688   0.212E-03 0.230E-05
CGA:  14    -0.469500102426E+03   -0.47042E-04   -0.47036E-04   688   0.110E-03-0.314E-06
  13 F= -.47409945E+03 E0= -.47409136E+03  d E =-.194787E+01  mag=     0.0074
       N       E                     dE             d eps       ncg     rms          ort
SDA:   1    -0.406770239051E+03    0.62730E+02    0.00000E+00   688   0.171E+03 0.000E+00
CGA:   2    -0.455907889676E+03   -0.49138E+02   -0.49200E+02   688   0.502E+02-0.840E+00
CGA:   3    -0.467331168022E+03   -0.11423E+02   -0.11472E+02   688   0.156E+02 0.123E+01
CGA:   4    -0.470029583515E+03   -0.26984E+01   -0.25977E+01   688   0.433E+01-0.416E+00
CGA:   5    -0.470889953950E+03   -0.86037E+00   -0.86180E+00   688   0.943E+00 0.120E-01
CGA:   6    -0.471132855471E+03   -0.24290E+00   -0.24288E+00   688   0.292E+00 0.913E-03
CGA:   7    -0.471220412700E+03   -0.87557E-01   -0.87405E-01   688   0.142E+00 0.180E-02
CGA:   8    -0.471255840295E+03   -0.35428E-01   -0.35425E-01   688   0.860E-01 0.314E-03
CGA:   9    -0.471276252993E+03   -0.20413E-01   -0.20419E-01   688   0.284E-01 0.521E-03
CGA:  10    -0.471285221790E+03   -0.89688E-02   -0.89687E-02   688   0.970E-02 0.671E-05
CGA:  11    -0.471287897343E+03   -0.26756E-02   -0.26754E-02   688   0.461E-02 0.625E-05
CGA:  12    -0.471288892329E+03   -0.99499E-03   -0.99453E-03   688   0.179E-02-0.904E-05
CGA:  13    -0.471289437689E+03   -0.54536E-03   -0.54513E-03   688   0.703E-03 0.387E-05
CGA:  14    -0.471289667312E+03   -0.22962E-03   -0.22998E-03   688   0.398E-03-0.452E-05
CGA:  15    -0.471289767391E+03   -0.10008E-03   -0.10008E-03   688   0.200E-03-0.383E-06
CGA:  16    -0.471289820693E+03   -0.53301E-04   -0.53340E-04   688   0.853E-04-0.269E-05
  14 F= -.47590614E+03 E0= -.47589578E+03  d E =-.375456E+01  mag=    -0.0066
       N       E                     dE             d eps       ncg     rms          ort
SDA:   1    -0.461816217865E+03    0.94735E+01    0.00000E+00   688   0.267E+02 0.000E+00
CGA:   2    -0.469885630168E+03   -0.80694E+01   -0.80719E+01   688   0.816E+01-0.303E-01
CGA:   3    -0.471877576104E+03   -0.19919E+01   -0.19922E+01   688   0.197E+01 0.977E-02
CGA:   4    -0.472282777945E+03   -0.40520E+00   -0.40541E+00   688   0.449E+00 0.125E-02
CGA:   5    -0.472377811329E+03   -0.95033E-01   -0.94969E-01   688   0.150E+00-0.415E-03
CGA:   6    -0.472409614208E+03   -0.31803E-01   -0.31882E-01   688   0.547E-01 0.655E-03
CGA:   7    -0.472424796694E+03   -0.15182E-01   -0.15184E-01   688   0.243E-01-0.412E-04
CGA:   8    -0.472432280323E+03   -0.74836E-02   -0.74796E-02   688   0.112E-01 0.504E-04
CGA:   9    -0.472435258767E+03   -0.29784E-02   -0.29783E-02   688   0.496E-02 0.806E-05
CGA:  10    -0.472436417822E+03   -0.11591E-02   -0.11595E-02   688   0.169E-02 0.137E-04
CGA:  11    -0.472436872919E+03   -0.45510E-03   -0.45520E-03   688   0.605E-03-0.648E-05
CGA:  12    -0.472437042995E+03   -0.17008E-03   -0.16999E-03   688   0.269E-03 0.284E-05
CGA:  13    -0.472437118710E+03   -0.75715E-04   -0.75718E-04   688   0.140E-03-0.117E-06
  15 F= -.47705543E+03 E0= -.47704479E+03  d E =-.114929E+01  mag=    -0.0333
       N       E                     dE             d eps       ncg     rms          ort
SDA:   1    -0.455891456990E+03    0.16546E+02    0.00000E+00   688   0.429E+02 0.000E+00
CGA:   2    -0.468842610049E+03   -0.12951E+02   -0.12956E+02   688   0.133E+02-0.675E-01
CGA:   3    -0.472040798152E+03   -0.31982E+01   -0.31991E+01   688   0.332E+01 0.233E-01
CGA:   4    -0.472704849042E+03   -0.66405E+00   -0.66452E+00   688   0.760E+00 0.232E-02
CGA:   5    -0.472868959307E+03   -0.16411E+00   -0.16392E+00   688   0.225E+00-0.133E-02
CGA:   6    -0.472922842405E+03   -0.53883E-01   -0.53926E-01   688   0.788E-01 0.136E-02
CGA:   7    -0.472946332796E+03   -0.23490E-01   -0.23498E-01   688   0.371E-01-0.119E-03
CGA:   8    -0.472957343668E+03   -0.11011E-01   -0.11004E-01   688   0.176E-01 0.119E-03
CGA:   9    -0.472961958243E+03   -0.46146E-02   -0.46145E-02   688   0.681E-02 0.102E-04
CGA:  10    -0.472963754152E+03   -0.17959E-02   -0.17958E-02   688   0.222E-02 0.160E-04
CGA:  11    -0.472964386647E+03   -0.63250E-03   -0.63266E-03   688   0.853E-03-0.600E-05
CGA:  12    -0.472964626470E+03   -0.23982E-03   -0.23972E-03   688   0.396E-03 0.411E-05
CGA:  13    -0.472964746230E+03   -0.11976E-03   -0.11977E-03   688   0.187E-03-0.181E-06
CGA:  14    -0.472964806741E+03   -0.60511E-04   -0.60452E-04   688   0.934E-04 0.917E-06
  16 F= -.47758384E+03 E0= -.47757291E+03  d E =-.167771E+01  mag=    -0.0463
       N       E                     dE             d eps       ncg     rms          ort
SDA:   1    -0.467784942289E+03    0.51798E+01    0.00000E+00   688   0.150E+02 0.000E+00
CGA:   2    -0.472263083017E+03   -0.44781E+01   -0.44799E+01   688   0.568E+01-0.329E-01
CGA:   3    -0.473413936569E+03   -0.11509E+01   -0.11335E+01   688   0.172E+01-0.306E-01
CGA:   4    -0.473731916096E+03   -0.31798E+00   -0.31911E+00   688   0.328E+00 0.112E-02
CGA:   5    -0.473808759555E+03   -0.76843E-01   -0.76820E-01   688   0.858E-01-0.286E-03
CGA:   6    -0.473830874747E+03   -0.22115E-01   -0.22116E-01   688   0.310E-01 0.188E-03
CGA:   7    -0.473839595142E+03   -0.87204E-02   -0.87206E-02   688   0.156E-01-0.171E-04
CGA:   8    -0.473843762468E+03   -0.41673E-02   -0.41667E-02   688   0.765E-02 0.633E-04
CGA:   9    -0.473845867959E+03   -0.21055E-02   -0.21050E-02   688   0.278E-02 0.224E-04
CGA:  10    -0.473846692938E+03   -0.82498E-03   -0.82460E-03   688   0.103E-02 0.825E-05
CGA:  11    -0.473846978813E+03   -0.28587E-03   -0.28594E-03   688   0.500E-03-0.555E-05
CGA:  12    -0.473847116937E+03   -0.13812E-03   -0.13809E-03   688   0.232E-03 0.220E-05
CGA:  13    -0.473847203504E+03   -0.86566E-04   -0.86619E-04   688   0.137E-03-0.563E-06
  17 F= -.47846739E+03 E0= -.47845799E+03  d E =-.883543E+00  mag=    -0.0310
       N       E                     dE             d eps       ncg     rms          ort
SDA:   1    -0.447833392635E+03    0.26014E+02    0.00000E+00   688   0.659E+02 0.000E+00
CGA:   2    -0.467586144443E+03   -0.19753E+02   -0.19768E+02   688   0.243E+02-0.322E+00
CGA:   3    -0.472521319336E+03   -0.49352E+01   -0.47887E+01   688   0.761E+01 0.813E-02
CGA:   4    -0.473880068601E+03   -0.13587E+01   -0.13664E+01   688   0.161E+01-0.274E-01
CGA:   5    -0.474234121406E+03   -0.35405E+00   -0.35369E+00   688   0.430E+00-0.262E-02
CGA:   6    -0.474338367027E+03   -0.10425E+00   -0.10431E+00   688   0.157E+00 0.139E-02
CGA:   7    -0.474378682240E+03   -0.40315E-01   -0.40324E-01   688   0.802E-01 0.571E-03
CGA:   8    -0.474399338267E+03   -0.20656E-01   -0.20663E-01   688   0.370E-01 0.483E-03
CGA:   9    -0.474410180121E+03   -0.10842E-01   -0.10831E-01   688   0.143E-01 0.247E-03
CGA:  10    -0.474414113640E+03   -0.39335E-02   -0.39331E-02   688   0.617E-02 0.319E-04
CGA:  11    -0.474415609228E+03   -0.14956E-02   -0.14955E-02   688   0.236E-02-0.801E-05
CGA:  12    -0.474416305650E+03   -0.69642E-03   -0.69626E-03   688   0.103E-02 0.306E-05
CGA:  13    -0.474416633939E+03   -0.32829E-03   -0.32816E-03   688   0.595E-03 0.513E-06
CGA:  14    -0.474416806093E+03   -0.17215E-03   -0.17213E-03   688   0.322E-03 0.125E-05
CGA:  15    -0.474416907387E+03   -0.10129E-03   -0.10139E-03   688   0.155E-03-0.227E-05
CGA:  16    -0.474416955782E+03   -0.48395E-04   -0.48379E-04   688   0.789E-04 0.466E-06
  18 F= -.47904338E+03 E0= -.47903655E+03  d E =-.145954E+01  mag=    -0.0134
       N       E                     dE             d eps       ncg     rms          ort
SDA:   1    -0.468141490223E+03    0.62754E+01    0.00000E+00   688   0.172E+02 0.000E+00
CGA:   2    -0.473562974840E+03   -0.54215E+01   -0.54263E+01   688   0.565E+01-0.729E-01
CGA:   3    -0.474867220193E+03   -0.13042E+01   -0.13090E+01   688   0.125E+01 0.373E-01
CGA:   4    -0.475127050721E+03   -0.25983E+00   -0.26028E+00   688   0.320E+00 0.126E-02
CGA:   5    -0.475191269699E+03   -0.64219E-01   -0.64328E-01   688   0.103E+00 0.189E-03
CGA:   6    -0.475216458308E+03   -0.25189E-01   -0.25195E-01   688   0.350E-01 0.142E-03
CGA:   7    -0.475227739667E+03   -0.11281E-01   -0.11279E-01   688   0.154E-01 0.239E-04
CGA:   8    -0.475232856981E+03   -0.51173E-02   -0.51155E-02   688   0.685E-02 0.242E-04
CGA:   9    -0.475234683957E+03   -0.18270E-02   -0.18271E-02   688   0.279E-02 0.150E-04
CGA:  10    -0.475235361296E+03   -0.67734E-03   -0.67755E-03   688   0.940E-03 0.505E-05
CGA:  11    -0.475235629949E+03   -0.26865E-03   -0.26871E-03   688   0.327E-03-0.366E-05
CGA:  12    -0.475235737944E+03   -0.10799E-03   -0.10790E-03   688   0.144E-03 0.154E-05
CGA:  13    -0.475235783175E+03   -0.45230E-04   -0.45247E-04   688   0.824E-04-0.455E-06
  19 F= -.47986546E+03 E0= -.47985949E+03  d E =-.822073E+00  mag=    -0.0265
       N       E                     dE             d eps       ncg     rms          ort
SDA:   1    -0.438762481983E+03    0.36473E+02    0.00000E+00   688   0.903E+02 0.000E+00
CGA:   2    -0.467134312472E+03   -0.28372E+02   -0.28434E+02   688   0.306E+02-0.979E+00
CGA:   3    -0.473973755638E+03   -0.68394E+01   -0.69152E+01   688   0.653E+01 0.542E+00
CGA:   4    -0.475358011763E+03   -0.13843E+01   -0.13890E+01   688   0.167E+01 0.141E-01
CGA:   5    -0.475710203881E+03   -0.35219E+00   -0.35316E+00   688   0.516E+00 0.318E-02
CGA:   6    -0.475841642527E+03   -0.13144E+00   -0.13149E+00   688   0.179E+00 0.171E-02
CGA:   7    -0.475900285224E+03   -0.58643E-01   -0.58610E-01   688   0.767E-01 0.378E-03
CGA:   8    -0.475927206900E+03   -0.26922E-01   -0.26917E-01   688   0.307E-01 0.610E-04
CGA:   9    -0.475936616933E+03   -0.94100E-02   -0.94078E-02   688   0.103E-01 0.456E-04
CGA:  10    -0.475939636574E+03   -0.30196E-02   -0.30195E-02   688   0.345E-02 0.649E-05
CGA:  11    -0.475940628695E+03   -0.99212E-03   -0.99217E-03   688   0.148E-02-0.513E-05
CGA:  12    -0.475941063158E+03   -0.43446E-03   -0.43443E-03   688   0.617E-03 0.214E-05
CGA:  13    -0.475941279158E+03   -0.21600E-03   -0.21618E-03   688   0.247E-03-0.240E-05
CGA:  14    -0.475941369614E+03   -0.90456E-04   -0.90525E-04   688   0.945E-04-0.816E-06
  20 F= -.48057702E+03 E0= -.48057141E+03  d E =-.153364E+01  mag=    -0.0612
       N       E                     dE             d eps       ncg     rms          ort
SDA:   1    -0.467724903470E+03    0.82164E+01    0.00000E+00   688   0.222E+02 0.000E+00
CGA:   2    -0.474530509670E+03   -0.68056E+01   -0.68050E+01   688   0.770E+01 0.202E-01
CGA:   3    -0.476274665719E+03   -0.17442E+01   -0.17461E+01   688   0.178E+01 0.708E-02
CGA:   4    -0.476648701182E+03   -0.37404E+00   -0.37475E+00   688   0.385E+00 0.147E-02
CGA:   5    -0.476734718799E+03   -0.86018E-01   -0.86022E-01   688   0.105E+00 0.816E-04
CGA:   6    -0.476763417089E+03   -0.28698E-01   -0.28699E-01   688   0.368E-01 0.551E-04
CGA:   7    -0.476774986509E+03   -0.11569E-01   -0.11567E-01   688   0.167E-01 0.503E-04
CGA:   8    -0.476780410147E+03   -0.54236E-02   -0.54235E-02   688   0.701E-02 0.377E-05
CGA:   9    -0.476782508938E+03   -0.20988E-02   -0.20985E-02   688   0.226E-02 0.157E-04
CGA:  10    -0.476783204341E+03   -0.69540E-03   -0.69540E-03   688   0.664E-03 0.202E-06
CGA:  11    -0.476783429681E+03   -0.22534E-03   -0.22529E-03   688   0.223E-03 0.895E-06
CGA:  12    -0.476783512871E+03   -0.83190E-04   -0.83024E-04   688   0.915E-04 0.196E-05
  21 F= -.48142262E+03 E0= -.48141544E+03  d E =-.845598E+00  mag=    -0.0955
       N       E                     dE             d eps       ncg     rms          ort
SDA:   1    -0.468477807345E+03    0.83056E+01    0.00000E+00   688   0.211E+02 0.000E+00
CGA:   2    -0.474913069896E+03   -0.64353E+01   -0.64353E+01   688   0.732E+01 0.217E-02
CGA:   3    -0.476585724035E+03   -0.16727E+01   -0.16734E+01   688   0.167E+01 0.398E-02
CGA:   4    -0.476939088903E+03   -0.35336E+00   -0.35393E+00   688   0.359E+00 0.102E-02
CGA:   5    -0.477019233784E+03   -0.80145E-01   -0.80141E-01   688   0.100E+00 0.377E-04
CGA:   6    -0.477046176333E+03   -0.26943E-01   -0.26943E-01   688   0.342E-01 0.258E-05
CGA:   7    -0.477057123229E+03   -0.10947E-01   -0.10945E-01   688   0.150E-01 0.281E-04
CGA:   8    -0.477062174570E+03   -0.50513E-02   -0.50509E-02   688   0.608E-02 0.105E-04
CGA:   9    -0.477064023599E+03   -0.18490E-02   -0.18489E-02   688   0.200E-02 0.107E-04
CGA:  10    -0.477064622219E+03   -0.59862E-03   -0.59862E-03   688   0.589E-03-0.163E-06
CGA:  11    -0.477064821472E+03   -0.19925E-03   -0.19917E-03   688   0.193E-03 0.164E-05
CGA:  12    -0.477064895571E+03   -0.74099E-04   -0.73952E-04   688   0.767E-04 0.165E-05
  22 F= -.48170692E+03 E0= -.48169815E+03  d E =-.112990E+01  mag=    -0.1340
       N       E                     dE             d eps       ncg     rms          ort
SDA:   1    -0.467182177541E+03    0.98826E+01    0.00000E+00   688   0.270E+02 0.000E+00
CGA:   2    -0.475120828506E+03   -0.79387E+01   -0.79371E+01   688   0.893E+01-0.921E-01
CGA:   3    -0.477198373487E+03   -0.20775E+01   -0.20897E+01   688   0.198E+01 0.502E-01
CGA:   4    -0.477632355955E+03   -0.43398E+00   -0.43443E+00   688   0.393E+00 0.134E-02
CGA:   5    -0.477729013785E+03   -0.96658E-01   -0.96649E-01   688   0.106E+00 0.151E-04
CGA:   6    -0.477758904581E+03   -0.29891E-01   -0.29891E-01   688   0.394E-01 0.296E-04
CGA:   7    -0.477771470269E+03   -0.12566E-01   -0.12565E-01   688   0.180E-01 0.169E-04
CGA:   8    -0.477777266342E+03   -0.57961E-02   -0.57949E-02   688   0.762E-02 0.325E-04
CGA:   9    -0.477779454138E+03   -0.21878E-02   -0.21879E-02   688   0.252E-02 0.120E-04
CGA:  10    -0.477780215337E+03   -0.76120E-03   -0.76123E-03   688   0.739E-03-0.420E-05
CGA:  11    -0.477780470426E+03   -0.25509E-03   -0.25498E-03   688   0.278E-03 0.220E-05
CGA:  12    -0.477780572089E+03   -0.10166E-03   -0.10169E-03   688   0.131E-03-0.446E-06
CGA:  13    -0.477780619246E+03   -0.47157E-04   -0.47163E-04   688   0.596E-04-0.117E-06
  23 F= -.48242555E+03 E0= -.48241714E+03  d E =-.718631E+00  mag=    -0.1308
       N       E                     dE             d eps       ncg     rms          ort
SDA:   1    -0.459583612247E+03    0.18197E+02    0.00000E+00   688   0.472E+02 0.000E+00
CGA:   2    -0.473461119925E+03   -0.13878E+02   -0.13871E+02   688   0.157E+02-0.233E+00
CGA:   3    -0.477098699095E+03   -0.36376E+01   -0.36696E+01   688   0.339E+01 0.126E+00
CGA:   4    -0.477851550384E+03   -0.75285E+00   -0.75385E+00   688   0.682E+00 0.303E-02
CGA:   5    -0.478018983002E+03   -0.16743E+00   -0.16740E+00   688   0.186E+00-0.368E-04
CGA:   6    -0.478071258217E+03   -0.52275E-01   -0.52276E-01   688   0.686E-01 0.448E-04
CGA:   7    -0.478093355478E+03   -0.22097E-01   -0.22096E-01   688   0.317E-01 0.362E-04
CGA:   8    -0.478103454361E+03   -0.10099E-01   -0.10097E-01   688   0.138E-01 0.608E-04
CGA:   9    -0.478107359014E+03   -0.39047E-02   -0.39049E-02   688   0.450E-02 0.173E-04
CGA:  10    -0.478108747035E+03   -0.13880E-02   -0.13881E-02   688   0.132E-02-0.459E-05
CGA:  11    -0.478109211797E+03   -0.46476E-03   -0.46471E-03   688   0.510E-03 0.135E-05
CGA:  12    -0.478109403398E+03   -0.19160E-03   -0.19162E-03   688   0.236E-03-0.336E-06
CGA:  13    -0.478109493994E+03   -0.90595E-04   -0.90630E-04   688   0.108E-03-0.410E-06
  24 F= -.48275815E+03 E0= -.48275041E+03  d E =-.105123E+01  mag=    -0.1186
       N       E                     dE             d eps       ncg     rms          ort
SDA:   1    -0.466267457492E+03    0.11842E+02    0.00000E+00   688   0.320E+02 0.000E+00
CGA:   2    -0.475681254704E+03   -0.94138E+01   -0.94112E+01   688   0.103E+02-0.673E-01
CGA:   3    -0.478153830440E+03   -0.24726E+01   -0.24778E+01   688   0.211E+01 0.226E-01
CGA:   4    -0.478626626734E+03   -0.47280E+00   -0.47329E+00   688   0.462E+00 0.117E-02
CGA:   5    -0.478730684705E+03   -0.10406E+00   -0.10400E+00   688   0.135E+00 0.251E-04
CGA:   6    -0.478765387032E+03   -0.34702E-01   -0.34710E-01   688   0.487E-01 0.630E-04
CGA:   7    -0.478780492968E+03   -0.15106E-01   -0.15106E-01   688   0.219E-01 0.148E-04
CGA:   8    -0.478787606626E+03   -0.71137E-02   -0.71129E-02   688   0.924E-02 0.229E-04
CGA:   9    -0.478790335180E+03   -0.27286E-02   -0.27286E-02   688   0.286E-02 0.969E-05
CGA:  10    -0.478791218812E+03   -0.88363E-03   -0.88364E-03   688   0.807E-03-0.526E-06
CGA:  11    -0.478791493370E+03   -0.27456E-03   -0.27459E-03   688   0.300E-03-0.788E-06
CGA:  12    -0.478791596474E+03   -0.10310E-03   -0.10304E-03   688   0.137E-03 0.140E-05
CGA:  13    -0.478791643044E+03   -0.46570E-04   -0.46589E-04   688   0.584E-04-0.513E-06
  25 F= -.48344004E+03 E0= -.48343218E+03  d E =-.681891E+00  mag=    -0.1490
       N       E                     dE             d eps       ncg     rms          ort
SDA:   1    -0.446683770784E+03    0.32108E+02    0.00000E+00   688   0.837E+02 0.000E+00
CGA:   2    -0.471108318625E+03   -0.24425E+02   -0.24414E+02   688   0.271E+02-0.291E+00
CGA:   3    -0.477543844179E+03   -0.64355E+01   -0.64579E+01   688   0.561E+01 0.111E+00
CGA:   4    -0.478770896137E+03   -0.12271E+01   -0.12299E+01   688   0.132E+01 0.636E-02
CGA:   5    -0.479059795640E+03   -0.28890E+00   -0.28843E+00   688   0.362E+00-0.265E-03
CGA:   6    -0.479155627249E+03   -0.95832E-01   -0.95848E-01   688   0.129E+00 0.249E-03
CGA:   7    -0.479195904862E+03   -0.40278E-01   -0.40276E-01   688   0.589E-01 0.606E-04
CGA:   8    -0.479214935498E+03   -0.19031E-01   -0.19030E-01   688   0.250E-01 0.331E-04
CGA:   9    -0.479222417900E+03   -0.74824E-02   -0.74823E-02   688   0.770E-02 0.200E-04
CGA:  10    -0.479224812165E+03   -0.23943E-02   -0.23943E-02   688   0.224E-02-0.266E-06
CGA:  11    -0.479225542300E+03   -0.73013E-03   -0.73018E-03   688   0.869E-03-0.134E-05
CGA:  12    -0.479225831950E+03   -0.28965E-03   -0.28960E-03   688   0.369E-03 0.137E-05
CGA:  13    -0.479225969693E+03   -0.13774E-03   -0.13785E-03   688   0.148E-03-0.138E-05
CGA:  14    -0.479226026014E+03   -0.56321E-04   -0.56300E-04   688   0.503E-04 0.262E-06
  26 F= -.48387325E+03 E0= -.48386439E+03  d E =-.111510E+01  mag=    -0.1986
       N       E                     dE             d eps       ncg     rms          ort
SDA:   1    -0.462299251433E+03    0.16927E+02    0.00000E+00   688   0.444E+02 0.000E+00
CGA:   2    -0.475496501119E+03   -0.13197E+02   -0.13197E+02   688   0.143E+02-0.132E-01
CGA:   3    -0.478840526262E+03   -0.33440E+01   -0.33519E+01   688   0.322E+01 0.249E-01
CGA:   4    -0.479514475464E+03   -0.67395E+00   -0.67549E+00   688   0.734E+00 0.146E-02
CGA:   5    -0.479672118840E+03   -0.15764E+00   -0.15752E+00   688   0.184E+00 0.592E-04
CGA:   6    -0.479721355558E+03   -0.49237E-01   -0.49238E-01   688   0.628E-01 0.178E-04
CGA:   7    -0.479740604237E+03   -0.19249E-01   -0.19248E-01   688   0.286E-01 0.136E-04
CGA:   8    -0.479749832881E+03   -0.92286E-02   -0.92281E-02   688   0.124E-01 0.225E-04
CGA:   9    -0.479753530295E+03   -0.36974E-02   -0.36974E-02   688   0.398E-02 0.103E-04
CGA:  10    -0.479754760632E+03   -0.12303E-02   -0.12303E-02   688   0.111E-02 0.331E-06
CGA:  11    -0.479755132117E+03   -0.37148E-03   -0.37144E-03   688   0.386E-03 0.129E-05
CGA:  12    -0.479755268340E+03   -0.13622E-03   -0.13613E-03   688   0.160E-03 0.179E-05
CGA:  13    -0.479755329307E+03   -0.60967E-04   -0.60984E-04   688   0.676E-04-0.226E-06
  27 F= -.48440123E+03 E0= -.48439134E+03  d E =-.527986E+00  mag=    -0.2666
       N       E                     dE             d eps       ncg     rms          ort
SDA:   1    -0.478834975680E+03    0.92029E+00    0.00000E+00   688   0.239E+01 0.000E+00
CGA:   2    -0.479548832681E+03   -0.71386E+00   -0.71385E+00   688   0.756E+00-0.124E-03
CGA:   3    -0.479728459522E+03   -0.17963E+00   -0.17964E+00   688   0.167E+00 0.794E-04
CGA:   4    -0.479764240194E+03   -0.35781E-01   -0.35793E-01   688   0.354E-01 0.526E-06
CGA:   5    -0.479772064007E+03   -0.78238E-02   -0.78242E-02   688   0.934E-02 0.111E-04
CGA:   6    -0.479774527852E+03   -0.24638E-02   -0.24637E-02   688   0.318E-02-0.533E-05
CGA:   7    -0.479775515287E+03   -0.98743E-03   -0.98745E-03   688   0.147E-02-0.148E-05
CGA:   8    -0.479775984411E+03   -0.46912E-03   -0.46907E-03   688   0.648E-03 0.212E-05
CGA:   9    -0.479776172504E+03   -0.18809E-03   -0.18811E-03   688   0.215E-03 0.180E-05
CGA:  10    -0.479776237285E+03   -0.64781E-04   -0.64782E-04   688   0.626E-04-0.324E-06
  28 F= -.48442180E+03 E0= -.48441174E+03  d E =-.548551E+00  mag=    -0.2824
       N       E                     dE             d eps       ncg     rms          ort
SDA:   1    -0.464976002650E+03    0.14800E+02    0.00000E+00   688   0.388E+02 0.000E+00
CGA:   2    -0.476637875616E+03   -0.11662E+02   -0.11662E+02   688   0.119E+02-0.524E-01
CGA:   3    -0.479464255235E+03   -0.28264E+01   -0.28316E+01   688   0.261E+01 0.253E-01
CGA:   4    -0.480026609400E+03   -0.56235E+00   -0.56287E+00   688   0.565E+00 0.127E-02
CGA:   5    -0.480151279358E+03   -0.12467E+00   -0.12458E+00   688   0.155E+00-0.612E-04
CGA:   6    -0.480191278374E+03   -0.39999E-01   -0.40006E-01   688   0.541E-01 0.780E-04
CGA:   7    -0.480208001105E+03   -0.16723E-01   -0.16723E-01   688   0.250E-01 0.762E-05
CGA:   8    -0.480216046276E+03   -0.80452E-02   -0.80444E-02   688   0.105E-01 0.215E-04
CGA:   9    -0.480219252847E+03   -0.32066E-02   -0.32064E-02   688   0.334E-02 0.834E-05
CGA:  10    -0.480220276025E+03   -0.10232E-02   -0.10232E-02   688   0.995E-03 0.522E-07
CGA:  11    -0.480220593160E+03   -0.31714E-03   -0.31715E-03   688   0.366E-03-0.651E-06
CGA:  12    -0.480220719677E+03   -0.12652E-03   -0.12648E-03   688   0.149E-03 0.700E-06
CGA:  13    -0.480220778429E+03   -0.58752E-04   -0.58789E-04   688   0.617E-04-0.387E-06
  29 F= -.48486516E+03 E0= -.48485434E+03  d E =-.443362E+00  mag=    -0.3258
       N       E                     dE             d eps       ncg     rms          ort
SDA:   1    -0.475177414164E+03    0.50433E+01    0.00000E+00   688   0.130E+02 0.000E+00
CGA:   2    -0.479094056804E+03   -0.39166E+01   -0.39166E+01   688   0.393E+01-0.911E-02
CGA:   3    -0.480040050759E+03   -0.94599E+00   -0.94685E+00   688   0.849E+00 0.362E-02
CGA:   4    -0.480225874436E+03   -0.18582E+00   -0.18589E+00   688   0.174E+00 0.154E-03
CGA:   5    -0.480265380681E+03   -0.39506E-01   -0.39499E-01   688   0.490E-01 0.336E-04
CGA:   6    -0.480277920332E+03   -0.12540E-01   -0.12541E-01   688   0.176E-01 0.221E-05
CGA:   7    -0.480283269666E+03   -0.53493E-02   -0.53493E-02   688   0.827E-02 0.116E-05
CGA:   8    -0.480285873421E+03   -0.26038E-02   -0.26036E-02   688   0.351E-02 0.800E-05
CGA:   9    -0.480286927797E+03   -0.10544E-02   -0.10544E-02   688   0.111E-02 0.312E-05
CGA:  10    -0.480287266951E+03   -0.33915E-03   -0.33915E-03   688   0.332E-03-0.146E-06
CGA:  11    -0.480287373512E+03   -0.10656E-03   -0.10658E-03   688   0.122E-03-0.754E-06
CGA:  12    -0.480287415607E+03   -0.42096E-04   -0.42065E-04   688   0.514E-04 0.627E-06
  30 F= -.48493089E+03 E0= -.48491956E+03  d E =-.509094E+00  mag=    -0.3535
       N       E                     dE             d eps       ncg     rms          ort
SDA:   1    -0.470098146160E+03    0.10189E+02    0.00000E+00   688   0.269E+02 0.000E+00
CGA:   2    -0.478200397534E+03   -0.81023E+01   -0.81023E+01   688   0.819E+01-0.635E-03
CGA:   3    -0.480150091748E+03   -0.19497E+01   -0.19521E+01   688   0.176E+01 0.110E-01
CGA:   4    -0.480543702479E+03   -0.39361E+00   -0.39387E+00   688   0.365E+00 0.753E-03
CGA:   5    -0.480626347285E+03   -0.82645E-01   -0.82607E-01   688   0.106E+00-0.190E-04
CGA:   6    -0.480653269976E+03   -0.26923E-01   -0.26928E-01   688   0.373E-01 0.458E-04
CGA:   7    -0.480664843604E+03   -0.11574E-01   -0.11573E-01   688   0.171E-01 0.135E-04
CGA:   8    -0.480670337715E+03   -0.54941E-02   -0.54936E-02   688   0.699E-02 0.153E-04
CGA:   9    -0.480672478086E+03   -0.21404E-02   -0.21403E-02   688   0.220E-02 0.450E-05
CGA:  10    -0.480673150870E+03   -0.67278E-03   -0.67276E-03   688   0.648E-03 0.216E-05
CGA:  11    -0.480673362351E+03   -0.21148E-03   -0.21149E-03   688   0.241E-03-0.189E-06
CGA:  12    -0.480673447353E+03   -0.85002E-04   -0.85002E-04   688   0.104E-03-0.269E-08
  31 F= -.48531429E+03 E0= -.48530223E+03  d E =-.383397E+00  mag=    -0.4105
       N       E                     dE             d eps       ncg     rms          ort
SDA:   1    -0.462395194417E+03    0.18278E+02    0.00000E+00   688   0.471E+02 0.000E+00
CGA:   2    -0.476535493098E+03   -0.14140E+02   -0.14140E+02   688   0.144E+02 0.138E-01
CGA:   3    -0.479938848649E+03   -0.34034E+01   -0.34084E+01   688   0.313E+01 0.229E-01
CGA:   4    -0.480627485699E+03   -0.68864E+00   -0.68942E+00   688   0.675E+00 0.207E-02
CGA:   5    -0.480777159334E+03   -0.14967E+00   -0.14953E+00   688   0.191E+00-0.130E-03
CGA:   6    -0.480826384897E+03   -0.49226E-01   -0.49238E-01   688   0.657E-01 0.130E-03
CGA:   7    -0.480847152781E+03   -0.20768E-01   -0.20767E-01   688   0.301E-01 0.269E-04
CGA:   8    -0.480856871903E+03   -0.97191E-02   -0.97184E-02   688   0.125E-01 0.251E-04
CGA:   9    -0.480860663844E+03   -0.37919E-02   -0.37918E-02   688   0.397E-02 0.855E-05
CGA:  10    -0.480861881337E+03   -0.12175E-02   -0.12175E-02   688   0.118E-02 0.270E-05
CGA:  11    -0.480862270174E+03   -0.38884E-03   -0.38883E-03   688   0.443E-03 0.270E-06
CGA:  12    -0.480862432748E+03   -0.16257E-03   -0.16260E-03   688   0.198E-03-0.420E-06
CGA:  13    -0.480862514440E+03   -0.81692E-04   -0.81826E-04   688   0.940E-04-0.117E-05
  32 F= -.48549952E+03 E0= -.48548642E+03  d E =-.568631E+00  mag=    -0.5054
       N       E                     dE             d eps       ncg     rms          ort
SDA:   1    -0.471014127982E+03    0.98483E+01    0.00000E+00   688   0.257E+02 0.000E+00
CGA:   2    -0.478751176956E+03   -0.77370E+01   -0.77375E+01   688   0.786E+01 0.190E-01
CGA:   3    -0.480636324826E+03   -0.18851E+01   -0.18855E+01   688   0.171E+01 0.205E-02
CGA:   4    -0.481014751947E+03   -0.37843E+00   -0.37871E+00   688   0.377E+00 0.507E-03
CGA:   5    -0.481098575769E+03   -0.83824E-01   -0.83791E-01   688   0.103E+00 0.968E-05
CGA:   6    -0.481125888241E+03   -0.27312E-01   -0.27314E-01   688   0.370E-01 0.108E-04
CGA:   7    -0.481137342925E+03   -0.11455E-01   -0.11455E-01   688   0.172E-01 0.831E-05
CGA:   8    -0.481142797747E+03   -0.54548E-02   -0.54546E-02   688   0.720E-02 0.123E-04
CGA:   9    -0.481144942186E+03   -0.21444E-02   -0.21444E-02   688   0.232E-02 0.307E-05
CGA:  10    -0.481145638685E+03   -0.69650E-03   -0.69650E-03   688   0.668E-03 0.954E-06
CGA:  11    -0.481145859837E+03   -0.22115E-03   -0.22115E-03   688   0.249E-03 0.137E-06
CGA:  12    -0.481145947022E+03   -0.87185E-04   -0.87197E-04   688   0.117E-03-0.223E-06
  33 F= -.48577620E+03 E0= -.48576306E+03  d E =-.276674E+00  mag=    -0.5606
       N       E                     dE             d eps       ncg     rms          ort
SDA:   1    -0.479543984408E+03    0.16019E+01    0.00000E+00   688   0.412E+01 0.000E+00
CGA:   2    -0.480787455018E+03   -0.12435E+01   -0.12435E+01   688   0.126E+01 0.131E-02
CGA:   3    -0.481091288532E+03   -0.30383E+00   -0.30381E+00   688   0.271E+00-0.842E-04
CGA:   4    -0.481152103452E+03   -0.60815E-01   -0.60825E-01   688   0.565E-01-0.894E-06
CGA:   5    -0.481165111080E+03   -0.13008E-01   -0.13007E-01   688   0.156E-01 0.640E-05
CGA:   6    -0.481169274065E+03   -0.41630E-02   -0.41629E-02   688   0.573E-02-0.366E-05
CGA:   7    -0.481171053947E+03   -0.17799E-02   -0.17799E-02   688   0.270E-02 0.173E-05
CGA:   8    -0.481171912999E+03   -0.85905E-03   -0.85900E-03   688   0.110E-02 0.205E-05
CGA:   9    -0.481172247501E+03   -0.33450E-03   -0.33450E-03   688   0.350E-03 0.603E-06
CGA:  10    -0.481172353466E+03   -0.10597E-03   -0.10597E-03   688   0.104E-03-0.804E-08
CGA:  11    -0.481172388075E+03   -0.34609E-04   -0.34609E-04   688   0.390E-04-0.130E-07
  34 F= -.48579981E+03 E0= -.48578663E+03  d E =-.300288E+00  mag=    -0.5819
       N       E                     dE             d eps       ncg     rms          ort
SDA:   1    -0.473005200713E+03    0.81672E+01    0.00000E+00   688   0.211E+02 0.000E+00
CGA:   2    -0.479344511409E+03   -0.63393E+01   -0.63393E+01   688   0.665E+01-0.693E-02
CGA:   3    -0.480926561105E+03   -0.15820E+01   -0.15827E+01   688   0.145E+01 0.359E-02
CGA:   4    -0.481245924848E+03   -0.31936E+00   -0.31942E+00   688   0.304E+00 0.231E-03
CGA:   5    -0.481315288880E+03   -0.69364E-01   -0.69357E-01   688   0.829E-01 0.382E-04
CGA:   6    -0.481337022178E+03   -0.21733E-01   -0.21734E-01   688   0.296E-01 0.603E-05
CGA:   7    -0.481346158097E+03   -0.91359E-02   -0.91359E-02   688   0.136E-01 0.383E-05
CGA:   8    -0.481350488699E+03   -0.43306E-02   -0.43304E-02   688   0.561E-02 0.686E-05
CGA:   9    -0.481352199353E+03   -0.17107E-02   -0.17106E-02   688   0.178E-02 0.224E-05
CGA:  10    -0.481352737578E+03   -0.53822E-03   -0.53823E-03   688   0.531E-03-0.594E-06
CGA:  11    -0.481352909386E+03   -0.17181E-03   -0.17186E-03   688   0.188E-03-0.165E-05
CGA:  12    -0.481352976446E+03   -0.67060E-04   -0.67085E-04   688   0.783E-04-0.381E-06
  35 F= -.48597166E+03 E0= -.48595817E+03  d E =-.171848E+00  mag=    -0.5941
       N       E                     dE             d eps       ncg     rms          ort
SDA:   1    -0.481306286328E+03    0.46623E-01    0.00000E+00   688   0.122E+00 0.000E+00
CGA:   2    -0.481342828344E+03   -0.36542E-01   -0.36542E-01   688   0.385E-01 0.302E-05
CGA:   3    -0.481351994638E+03   -0.91663E-02   -0.91660E-02   688   0.833E-02-0.127E-05
CGA:   4    -0.481353849089E+03   -0.18545E-02   -0.18543E-02   688   0.169E-02-0.180E-05
CGA:   5    -0.481354235478E+03   -0.38639E-03   -0.38647E-03   688   0.500E-03 0.123E-05
CGA:   6    -0.481354356495E+03   -0.12102E-03   -0.12102E-03   688   0.186E-03 0.162E-06
CGA:   7    -0.481354410563E+03   -0.54068E-04   -0.54069E-04   688   0.866E-04-0.361E-06
  36 F= -.48597244E+03 E0= -.48595892E+03  d E =-.172625E+00  mag=    -0.5948
       N       E                     dE             d eps       ncg     rms          ort
SDA:   1    -0.477227627987E+03    0.41267E+01    0.00000E+00   688   0.107E+02 0.000E+00
CGA:   2    -0.480524729319E+03   -0.32971E+01   -0.32968E+01   688   0.339E+01 0.921E-02
CGA:   3    -0.481319741367E+03   -0.79501E+00   -0.79440E+00   688   0.719E+00-0.232E-02
CGA:   4    -0.481482848962E+03   -0.16311E+00   -0.16315E+00   688   0.146E+00 0.172E-03
CGA:   5    -0.481517658592E+03   -0.34810E-01   -0.34807E-01   688   0.431E-01 0.131E-04
CGA:   6    -0.481529160435E+03   -0.11502E-01   -0.11502E-01   688   0.166E-01-0.901E-05
CGA:   7    -0.481534251555E+03   -0.50911E-02   -0.50910E-02   688   0.788E-02 0.473E-05
CGA:   8    -0.481536669408E+03   -0.24179E-02   -0.24177E-02   688   0.313E-02 0.577E-05
CGA:   9    -0.481537593439E+03   -0.92403E-03   -0.92403E-03   688   0.979E-03 0.262E-06
CGA:  10    -0.481537884969E+03   -0.29153E-03   -0.29154E-03   688   0.294E-03-0.358E-06
CGA:  11    -0.481537981428E+03   -0.96459E-04   -0.96479E-04   688   0.109E-03-0.457E-06
  37 F= -.48614917E+03 E0= -.48613566E+03  d E =-.176729E+00  mag=    -0.6087
       N       E                     dE             d eps       ncg     rms          ort
SDA:   1    -0.474679615764E+03    0.68583E+01    0.00000E+00   688   0.172E+02 0.000E+00
CGA:   2    -0.479989644184E+03   -0.53100E+01   -0.53094E+01   688   0.547E+01 0.199E-01
CGA:   3    -0.481273217839E+03   -0.12836E+01   -0.12823E+01   688   0.116E+01-0.433E-02
CGA:   4    -0.481536415398E+03   -0.26320E+00   -0.26329E+00   688   0.237E+00 0.396E-03
CGA:   5    -0.481592532925E+03   -0.56118E-01   -0.56110E-01   688   0.701E-01 0.589E-05
CGA:   6    -0.481611010769E+03   -0.18478E-01   -0.18478E-01   688   0.271E-01-0.328E-05
CGA:   7    -0.481619219761E+03   -0.82090E-02   -0.82089E-02   688   0.128E-01 0.547E-05
CGA:   8    -0.481623173161E+03   -0.39534E-02   -0.39532E-02   688   0.510E-02 0.934E-05
CGA:   9    -0.481624692189E+03   -0.15190E-02   -0.15190E-02   688   0.160E-02 0.455E-06
CGA:  10    -0.481625172114E+03   -0.47993E-03   -0.47993E-03   688   0.481E-03-0.227E-06
CGA:  11    -0.481625330384E+03   -0.15827E-03   -0.15829E-03   688   0.180E-03-0.464E-06
CGA:  12    -0.481625396454E+03   -0.66069E-04   -0.66077E-04   688   0.805E-04-0.943E-07
  38 F= -.48622836E+03 E0= -.48621478E+03  d E =-.255927E+00  mag=    -0.6286
       N       E                     dE             d eps       ncg     rms          ort
SDA:   1    -0.476003690646E+03    0.56216E+01    0.00000E+00   688   0.141E+02 0.000E+00
CGA:   2    -0.480472658050E+03   -0.44690E+01   -0.44684E+01   688   0.460E+01 0.166E-01
CGA:   3    -0.481528196315E+03   -0.10555E+01   -0.10556E+01   688   0.949E+00 0.992E-03
CGA:   4    -0.481742165302E+03   -0.21397E+00   -0.21404E+00   688   0.210E+00 0.239E-03
CGA:   5    -0.481791290646E+03   -0.49125E-01   -0.49118E-01   688   0.618E-01 0.652E-06
CGA:   6    -0.481808240532E+03   -0.16950E-01   -0.16950E-01   688   0.233E-01-0.783E-05
CGA:   7    -0.481815687424E+03   -0.74469E-02   -0.74466E-02   688   0.109E-01 0.109E-04
CGA:   8    -0.481819056413E+03   -0.33690E-02   -0.33688E-02   688   0.415E-02 0.851E-05
CGA:   9    -0.481820281258E+03   -0.12248E-02   -0.12248E-02   688   0.123E-02 0.159E-05
CGA:  10    -0.481820658123E+03   -0.37686E-03   -0.37686E-03   688   0.357E-03-0.260E-08
CGA:  11    -0.481820783754E+03   -0.12563E-03   -0.12564E-03   688   0.136E-03-0.196E-06
CGA:  12    -0.481820835467E+03   -0.51713E-04   -0.51695E-04   688   0.618E-04 0.208E-06
  39 F= -.48641919E+03 E0= -.48640574E+03  d E =-.190826E+00  mag=    -0.6405
       N       E                     dE             d eps       ncg     rms          ort
SDA:   1    -0.470811609262E+03    0.11009E+02    0.00000E+00   688   0.269E+02 0.000E+00
CGA:   2    -0.479338103045E+03   -0.85265E+01   -0.85254E+01   688   0.881E+01 0.387E-01
CGA:   3    -0.481359965365E+03   -0.20219E+01   -0.20226E+01   688   0.182E+01 0.457E-02
CGA:   4    -0.481768312197E+03   -0.40835E+00   -0.40857E+00   688   0.412E+00 0.733E-03
CGA:   5    -0.481863416262E+03   -0.95104E-01   -0.95074E-01   688   0.120E+00-0.317E-04
CGA:   6    -0.481896388553E+03   -0.32972E-01   -0.32973E-01   688   0.450E-01 0.637E-05
CGA:   7    -0.481910794443E+03   -0.14406E-01   -0.14405E-01   688   0.210E-01 0.175E-04
CGA:   8    -0.481917283011E+03   -0.64886E-02   -0.64884E-02   688   0.810E-02 0.133E-04
CGA:   9    -0.481919645817E+03   -0.23628E-02   -0.23628E-02   688   0.242E-02 0.331E-05
CGA:  10    -0.481920382771E+03   -0.73695E-03   -0.73696E-03   688   0.698E-03-0.107E-06
CGA:  11    -0.481920625596E+03   -0.24282E-03   -0.24283E-03   688   0.264E-03-0.754E-07
CGA:  12    -0.481920723453E+03   -0.97858E-04   -0.97857E-04   688   0.120E-03 0.147E-07
  40 F= -.48651364E+03 E0= -.48650034E+03  d E =-.285280E+00  mag=    -0.6442
       N       E                     dE             d eps       ncg     rms          ort
SDA:   1    -0.479623535531E+03    0.22971E+01    0.00000E+00   688   0.584E+01 0.000E+00
CGA:   2    -0.481483473058E+03   -0.18599E+01   -0.18599E+01   688   0.191E+01 0.243E-02
CGA:   3    -0.481923380492E+03   -0.43991E+00   -0.44003E+00   688   0.395E+00 0.467E-03
CGA:   4    -0.482011529471E+03   -0.88149E-01   -0.88158E-01   688   0.868E-01 0.392E-04
CGA:   5    -0.482031873211E+03   -0.20344E-01   -0.20344E-01   688   0.253E-01 0.196E-04
CGA:   6    -0.482038830773E+03   -0.69576E-02   -0.69575E-02   688   0.916E-02-0.599E-05
CGA:   7    -0.482041899897E+03   -0.30691E-02   -0.30689E-02   688   0.417E-02 0.477E-05
CGA:   8    -0.482043218505E+03   -0.13186E-02   -0.13185E-02   688   0.160E-02 0.391E-05
CGA:   9    -0.482043686321E+03   -0.46782E-03   -0.46782E-03   688   0.473E-03 0.116E-05
CGA:  10    -0.482043829793E+03   -0.14347E-03   -0.14348E-03   688   0.143E-03-0.632E-06
CGA:  11    -0.482043878257E+03   -0.48464E-04   -0.48489E-04   688   0.555E-04-0.565E-06
  41 F= -.48663505E+03 E0= -.48662160E+03  d E =-.121410E+00  mag=    -0.6434
       N       E                     dE             d eps       ncg     rms          ort
SDA:   1    -0.468022991448E+03    0.14021E+02    0.00000E+00   688   0.342E+02 0.000E+00
CGA:   2    -0.478851265878E+03   -0.10828E+02   -0.10827E+02   688   0.112E+02 0.327E-01
CGA:   3    -0.481428613573E+03   -0.25773E+01   -0.25803E+01   688   0.230E+01 0.122E-01
CGA:   4    -0.481943868838E+03   -0.51526E+00   -0.51543E+00   688   0.514E+00 0.838E-03
CGA:   5    -0.482063886595E+03   -0.12002E+00   -0.11999E+00   688   0.150E+00-0.374E-04
CGA:   6    -0.482104744125E+03   -0.40858E-01   -0.40859E-01   688   0.552E-01 0.297E-04
CGA:   7    -0.482122629801E+03   -0.17886E-01   -0.17885E-01   688   0.258E-01 0.128E-04
CGA:   8    -0.482130532665E+03   -0.79029E-02   -0.79026E-02   688   0.101E-01 0.172E-04
CGA:   9    -0.482133469309E+03   -0.29366E-02   -0.29367E-02   688   0.293E-02 0.490E-05
CGA:  10    -0.482134368962E+03   -0.89965E-03   -0.89965E-03   688   0.842E-03-0.431E-07
CGA:  11    -0.482134661929E+03   -0.29297E-03   -0.29306E-03   688   0.314E-03-0.167E-05
CGA:  12    -0.482134776873E+03   -0.11494E-03   -0.11496E-03   688   0.143E-03-0.149E-06
CGA:  13    -0.482134825924E+03   -0.49051E-04   -0.49072E-04   688   0.608E-04-0.488E-06
  42 F= -.48672199E+03 E0= -.48670820E+03  d E =-.208348E+00  mag=    -0.6347
       N       E                     dE             d eps       ncg     rms          ort
SDA:   1    -0.477083853152E+03    0.50509E+01    0.00000E+00   688   0.125E+02 0.000E+00
CGA:   2    -0.481100414576E+03   -0.40166E+01   -0.40160E+01   688   0.404E+01 0.156E-01
CGA:   3    -0.482028706610E+03   -0.92829E+00   -0.92867E+00   688   0.817E+00 0.185E-02
CGA:   4    -0.482215842432E+03   -0.18714E+00   -0.18716E+00   688   0.176E+00 0.134E-03
CGA:   5    -0.482258029103E+03   -0.42187E-01   -0.42183E-01   688   0.528E-01 0.990E-05
CGA:   6    -0.482272699121E+03   -0.14670E-01   -0.14670E-01   688   0.199E-01-0.796E-05
CGA:   7    -0.482279273704E+03   -0.65746E-02   -0.65742E-02   688   0.917E-02 0.110E-04
CGA:   8    -0.482282113756E+03   -0.28401E-02   -0.28399E-02   688   0.351E-02 0.744E-05
CGA:   9    -0.482283119495E+03   -0.10057E-02   -0.10058E-02   688   0.104E-02 0.148E-05
CGA:  10    -0.482283431244E+03   -0.31175E-03   -0.31175E-03   688   0.311E-03 0.161E-07
CGA:  11    -0.482283538812E+03   -0.10757E-03   -0.10759E-03   688   0.117E-03-0.495E-06
CGA:  12    -0.482283582796E+03   -0.43984E-04   -0.43972E-04   688   0.537E-04 0.157E-06
  43 F= -.48686825E+03 E0= -.48685420E+03  d E =-.146256E+00  mag=    -0.6267
       N       E                     dE             d eps       ncg     rms          ort
SDA:   1    -0.435609386668E+03    0.46674E+02    0.00000E+00   688   0.113E+03 0.000E+00
CGA:   2    -0.471528084458E+03   -0.35919E+02   -0.35910E+02   688   0.373E+02 0.339E+00
CGA:   3    -0.480022572242E+03   -0.84945E+01   -0.85268E+01   688   0.754E+01 0.131E+00
CGA:   4    -0.481743225108E+03   -0.17207E+01   -0.17225E+01   688   0.178E+01 0.880E-02
CGA:   5    -0.482152683352E+03   -0.40946E+00   -0.40910E+00   688   0.518E+00-0.839E-03
CGA:   6    -0.482296408707E+03   -0.14373E+00   -0.14374E+00   688   0.193E+00 0.417E-03
CGA:   7    -0.482359148946E+03   -0.62740E-01   -0.62739E-01   688   0.896E-01 0.481E-04
CGA:   8    -0.482387002187E+03   -0.27853E-01   -0.27852E-01   688   0.344E-01 0.647E-04
CGA:   9    -0.482397095372E+03   -0.10093E-01   -0.10093E-01   688   0.102E-01 0.172E-04
CGA:  10    -0.482400219753E+03   -0.31244E-02   -0.31244E-02   688   0.299E-02 0.206E-05
CGA:  11    -0.482401249105E+03   -0.10294E-02   -0.10294E-02   688   0.117E-02-0.484E-06
CGA:  12    -0.482401660921E+03   -0.41182E-03   -0.41191E-03   688   0.561E-03-0.162E-05
CGA:  13    -0.482401847787E+03   -0.18687E-03   -0.18693E-03   688   0.238E-03-0.204E-05
CGA:  14    -0.482401924563E+03   -0.76776E-04   -0.76796E-04   688   0.883E-04-0.893E-06
  44 F= -.48697674E+03 E0= -.48696192E+03  d E =-.254749E+00  mag=    -0.5879
       N       E                     dE             d eps       ncg     rms          ort
SDA:   1    -0.478522875665E+03    0.38790E+01    0.00000E+00   688   0.936E+01 0.000E+00
CGA:   2    -0.481531735256E+03   -0.30089E+01   -0.30092E+01   688   0.302E+01-0.124E-01
CGA:   3    -0.482228682694E+03   -0.69695E+00   -0.69773E+00   688   0.618E+00 0.207E-02
CGA:   4    -0.482368916434E+03   -0.14023E+00   -0.14025E+00   688   0.128E+00 0.660E-04
CGA:   5    -0.482400826866E+03   -0.31910E-01   -0.31912E-01   688   0.375E-01 0.164E-04
CGA:   6    -0.482411644305E+03   -0.10817E-01   -0.10817E-01   688   0.140E-01 0.828E-05
CGA:   7    -0.482416520201E+03   -0.48759E-02   -0.48759E-02   688   0.622E-02 0.412E-06
CGA:   8    -0.482418524017E+03   -0.20038E-02   -0.20038E-02   688   0.235E-02-0.213E-06
CGA:   9    -0.482419198651E+03   -0.67463E-03   -0.67465E-03   688   0.695E-03 0.127E-05
CGA:  10    -0.482419411339E+03   -0.21269E-03   -0.21268E-03   688   0.210E-03 0.118E-05
CGA:  11    -0.482419485840E+03   -0.74501E-04   -0.74501E-04   688   0.849E-04-0.118E-07
  45 F= -.48699770E+03 E0= -.48698308E+03  d E =-.275703E+00  mag=    -0.5989
       N       E                     dE             d eps       ncg     rms          ort
SDA:   1    -0.481249701133E+03    0.11697E+01    0.00000E+00   688   0.308E+01 0.000E+00
CGA:   2    -0.482242944749E+03   -0.99324E+00   -0.99310E+00   688   0.108E+01 0.432E-02
CGA:   3    -0.482483560531E+03   -0.24062E+00   -0.24049E+00   688   0.236E+00-0.117E-03
CGA:   4    -0.482533520956E+03   -0.49960E-01   -0.49977E-01   688   0.521E-01 0.617E-05
CGA:   5    -0.482545418407E+03   -0.11897E-01   -0.11898E-01   688   0.133E-01-0.162E-05
CGA:   6    -0.482549030295E+03   -0.36119E-02   -0.36117E-02   688   0.458E-02-0.663E-05
CGA:   7    -0.482550511537E+03   -0.14812E-02   -0.14812E-02   688   0.208E-02 0.200E-05
CGA:   8    -0.482551192563E+03   -0.68103E-03   -0.68096E-03   688   0.869E-03 0.187E-05
CGA:   9    -0.482551454933E+03   -0.26237E-03   -0.26237E-03   688   0.285E-03 0.207E-06
CGA:  10    -0.482551540816E+03   -0.85883E-04   -0.85883E-04   688   0.853E-04-0.224E-07
  46 F= -.48712903E+03 E0= -.48711450E+03  d E =-.131331E+00  mag=    -0.5812
       N       E                     dE             d eps       ncg     rms          ort
SDA:   1    -0.482143574103E+03    0.40788E+00    0.00000E+00   688   0.102E+01 0.000E+00
CGA:   2    -0.482470764144E+03   -0.32719E+00   -0.32715E+00   688   0.359E+00 0.843E-03
CGA:   3    -0.482550323403E+03   -0.79559E-01   -0.79530E-01   688   0.787E-01-0.401E-04
CGA:   4    -0.482566845790E+03   -0.16522E-01   -0.16525E-01   688   0.175E-01-0.533E-05
CGA:   5    -0.482570823454E+03   -0.39777E-02   -0.39776E-02   688   0.444E-02-0.334E-05
CGA:   6    -0.482572025752E+03   -0.12023E-02   -0.12022E-02   688   0.153E-02-0.357E-05
CGA:   7    -0.482572523693E+03   -0.49794E-03   -0.49793E-03   688   0.711E-03 0.311E-06
CGA:   8    -0.482572755381E+03   -0.23169E-03   -0.23165E-03   688   0.306E-03 0.899E-06
CGA:   9    -0.482572847335E+03   -0.91954E-04   -0.91955E-04   688   0.103E-03-0.711E-07
  47 F= -.48714988E+03 E0= -.48713541E+03  d E =-.152185E+00  mag=    -0.5687
       N       E                     dE             d eps       ncg     rms          ort
SDA:   1    -0.481670183074E+03    0.90257E+00    0.00000E+00   688   0.239E+01 0.000E+00
CGA:   2    -0.482457375836E+03   -0.78719E+00   -0.78717E+00   688   0.779E+00 0.177E-03
CGA:   3    -0.482638585322E+03   -0.18121E+00   -0.18124E+00   688   0.156E+00 0.129E-03
CGA:   4    -0.482673012115E+03   -0.34427E-01   -0.34424E-01   688   0.351E-01-0.527E-05
CGA:   5    -0.482681091736E+03   -0.80796E-02   -0.80801E-02   688   0.951E-02 0.109E-04
CGA:   6    -0.482683682073E+03   -0.25903E-02   -0.25903E-02   688   0.360E-02-0.255E-05
CGA:   7    -0.482684804041E+03   -0.11220E-02   -0.11219E-02   688   0.179E-02 0.283E-05
CGA:   8    -0.482685339645E+03   -0.53560E-03   -0.53560E-03   688   0.745E-03 0.245E-06
CGA:   9    -0.482685557348E+03   -0.21770E-03   -0.21771E-03   688   0.228E-03-0.964E-06
CGA:  10    -0.482685626911E+03   -0.69563E-04   -0.69555E-04   688   0.664E-04 0.398E-06
  48 F= -.48726227E+03 E0= -.48724788E+03  d E =-.112393E+00  mag=    -0.5489
       N       E                     dE             d eps       ncg     rms          ort
SDA:   1    -0.479369132622E+03    0.33164E+01    0.00000E+00   688   0.802E+01 0.000E+00
CGA:   2    -0.482001715574E+03   -0.26326E+01   -0.26325E+01   688   0.262E+01 0.891E-03
CGA:   3    -0.482608517374E+03   -0.60680E+00   -0.60703E+00   688   0.528E+00 0.108E-02
CGA:   4    -0.482724364605E+03   -0.11585E+00   -0.11584E+00   688   0.121E+00-0.975E-05
CGA:   5    -0.482751926266E+03   -0.27562E-01   -0.27561E-01   688   0.326E-01 0.205E-04
CGA:   6    -0.482760777839E+03   -0.88516E-02   -0.88516E-02   688   0.120E-01-0.278E-05
CGA:   7    -0.482764624272E+03   -0.38464E-02   -0.38462E-02   688   0.570E-02 0.642E-05
CGA:   8    -0.482766417917E+03   -0.17936E-02   -0.17936E-02   688   0.234E-02 0.653E-06
CGA:   9    -0.482767100874E+03   -0.68296E-03   -0.68296E-03   688   0.743E-03-0.817E-06
CGA:  10    -0.482767320954E+03   -0.22008E-03   -0.22007E-03   688   0.219E-03 0.819E-06
CGA:  11    -0.482767395001E+03   -0.74047E-04   -0.74103E-04   688   0.797E-04-0.107E-05
  49 F= -.48734309E+03 E0= -.48732887E+03  d E =-.193209E+00  mag=    -0.5145
       N       E                     dE             d eps       ncg     rms          ort
SDA:   1    -0.481752989987E+03    0.10143E+01    0.00000E+00   688   0.261E+01 0.000E+00
CGA:   2    -0.482630799563E+03   -0.87781E+00   -0.87769E+00   688   0.828E+00 0.140E-02
CGA:   3    -0.482820653833E+03   -0.18985E+00   -0.18986E+00   688   0.167E+00 0.439E-04
CGA:   4    -0.482857180923E+03   -0.36527E-01   -0.36528E-01   688   0.380E-01-0.483E-05
CGA:   5    -0.482865898947E+03   -0.87180E-02   -0.87182E-02   688   0.109E-01 0.109E-04
CGA:   6    -0.482868763004E+03   -0.28641E-02   -0.28640E-02   688   0.426E-02-0.389E-05
CGA:   7    -0.482870037553E+03   -0.12745E-02   -0.12745E-02   688   0.207E-02 0.354E-05
CGA:   8    -0.482870652767E+03   -0.61521E-03   -0.61520E-03   688   0.814E-03 0.135E-05
CGA:   9    -0.482870893520E+03   -0.24075E-03   -0.24078E-03   688   0.249E-03-0.222E-05
CGA:  10    -0.482870965847E+03   -0.72327E-04   -0.72321E-04   688   0.753E-04 0.885E-06
  50 F= -.48744569E+03 E0= -.48743139E+03  d E =-.102598E+00  mag=    -0.5100
       N       E                     dE             d eps       ncg     rms          ort
SDA:   1    -0.475336082747E+03    0.75348E+01    0.00000E+00   688   0.179E+02 0.000E+00
CGA:   2    -0.481316243149E+03   -0.59802E+01   -0.59779E+01   688   0.585E+01 0.251E-01
CGA:   3    -0.482616706087E+03   -0.13005E+01   -0.13006E+01   688   0.128E+01 0.129E-02
CGA:   4    -0.482878386905E+03   -0.26168E+00   -0.26195E+00   688   0.311E+00 0.502E-03
CGA:   5    -0.482947440814E+03   -0.69054E-01   -0.69025E-01   688   0.808E-01-0.567E-04
CGA:   6    -0.482969848406E+03   -0.22408E-01   -0.22408E-01   688   0.293E-01 0.231E-04
CGA:   7    -0.482979098749E+03   -0.92503E-02   -0.92500E-02   688   0.144E-01 0.951E-05
CGA:   8    -0.482983397037E+03   -0.42983E-02   -0.42982E-02   688   0.572E-02 0.794E-05
CGA:   9    -0.482985107867E+03   -0.17108E-02   -0.17109E-02   688   0.172E-02-0.240E-05
CGA:  10    -0.482985628816E+03   -0.52095E-03   -0.52093E-03   688   0.514E-03 0.101E-05
CGA:  11    -0.482985794656E+03   -0.16584E-03   -0.16583E-03   688   0.194E-03 0.295E-06
CGA:  12    -0.482985861532E+03   -0.66875E-04   -0.66961E-04   688   0.916E-04-0.142E-05
  51 F= -.48755803E+03 E0= -.48754338E+03  d E =-.214939E+00  mag=    -0.5043
       N       E                     dE             d eps       ncg     rms          ort
SDA:   1    -0.480977906493E+03    0.20079E+01    0.00000E+00   688   0.496E+01 0.000E+00
CGA:   2    -0.482636767764E+03   -0.16589E+01   -0.16586E+01   688   0.163E+01 0.373E-02
CGA:   3    -0.482995583283E+03   -0.35882E+00   -0.35874E+00   688   0.346E+00-0.109E-03
CGA:   4    -0.483067854024E+03   -0.72271E-01   -0.72269E-01   688   0.794E-01-0.102E-04
CGA:   5    -0.483085901371E+03   -0.18047E-01   -0.18046E-01   688   0.216E-01 0.121E-04
CGA:   6    -0.483091645765E+03   -0.57444E-02   -0.57444E-02   688   0.802E-02-0.495E-05
CGA:   7    -0.483094119274E+03   -0.24735E-02   -0.24734E-02   688   0.396E-02 0.425E-05
CGA:   8    -0.483095325272E+03   -0.12060E-02   -0.12059E-02   688   0.165E-02 0.377E-05
CGA:   9    -0.483095820311E+03   -0.49504E-03   -0.49506E-03   688   0.535E-03-0.143E-05
CGA:  10    -0.483095982030E+03   -0.16172E-03   -0.16170E-03   688   0.169E-03 0.113E-05
CGA:  11    -0.483096038383E+03   -0.56353E-04   -0.56349E-04   688   0.672E-04 0.544E-07
  52 F= -.48766620E+03 E0= -.48765166E+03  d E =-.108174E+00  mag=    -0.4752
       N       E                     dE             d eps       ncg     rms          ort
SDA:   1    -0.478654642090E+03    0.44413E+01    0.00000E+00   688   0.106E+02 0.000E+00
CGA:   2    -0.482170967506E+03   -0.35163E+01   -0.35154E+01   688   0.353E+01 0.112E-01
CGA:   3    -0.482935296438E+03   -0.76433E+00   -0.76413E+00   688   0.777E+00-0.172E-03
CGA:   4    -0.483093559442E+03   -0.15826E+00   -0.15830E+00   688   0.180E+00 0.650E-04
CGA:   5    -0.483134306123E+03   -0.40747E-01   -0.40738E-01   688   0.475E-01-0.393E-05
CGA:   6    -0.483147014103E+03   -0.12708E-01   -0.12708E-01   688   0.176E-01 0.461E-05
CGA:   7    -0.483152344550E+03   -0.53304E-02   -0.53304E-02   688   0.883E-02 0.327E-05
CGA:   8    -0.483155011944E+03   -0.26674E-02   -0.26672E-02   688   0.364E-02 0.845E-05
CGA:   9    -0.483156135971E+03   -0.11240E-02   -0.11241E-02   688   0.117E-02-0.109E-05
CGA:  10    -0.483156501899E+03   -0.36593E-03   -0.36589E-03   688   0.372E-03 0.131E-05
CGA:  11    -0.483156629589E+03   -0.12769E-03   -0.12767E-03   688   0.152E-03 0.251E-06
CGA:  12    -0.483156685913E+03   -0.56324E-04   -0.56378E-04   688   0.809E-04-0.641E-06
  53 F= -.48772383E+03 E0= -.48770953E+03  d E =-.165802E+00  mag=    -0.4278
       N       E                     dE             d eps       ncg     rms          ort
SDA:   1    -0.482094228041E+03    0.10624E+01    0.00000E+00   688   0.266E+01 0.000E+00
CGA:   2    -0.482984917368E+03   -0.89069E+00   -0.89065E+00   688   0.885E+00 0.371E-03
CGA:   3    -0.483178401549E+03   -0.19348E+00   -0.19349E+00   688   0.186E+00 0.447E-04
CGA:   4    -0.483217560130E+03   -0.39159E-01   -0.39154E-01   688   0.411E-01-0.267E-05
CGA:   5    -0.483227130782E+03   -0.95707E-02   -0.95712E-02   688   0.113E-01 0.199E-04
CGA:   6    -0.483230141114E+03   -0.30103E-02   -0.30103E-02   688   0.423E-02-0.442E-05
CGA:   7    -0.483231421264E+03   -0.12801E-02   -0.12801E-02   688   0.213E-02 0.364E-05
CGA:   8    -0.483232063165E+03   -0.64190E-03   -0.64187E-03   688   0.893E-03 0.213E-05
CGA:   9    -0.483232334579E+03   -0.27141E-03   -0.27143E-03   688   0.303E-03-0.877E-06
CGA:  10    -0.483232426866E+03   -0.92287E-04   -0.92274E-04   688   0.103E-03 0.805E-06
  54 F= -.48779836E+03 E0= -.48778428E+03  d E =-.745256E-01  mag=    -0.3997
       N       E                     dE             d eps       ncg     rms          ort
SDA:   1    -0.478930515035E+03    0.43018E+01    0.00000E+00   688   0.102E+02 0.000E+00
CGA:   2    -0.482336096319E+03   -0.34056E+01   -0.34053E+01   688   0.347E+01 0.264E-02
CGA:   3    -0.483080524190E+03   -0.74443E+00   -0.74467E+00   688   0.758E+00 0.549E-03
CGA:   4    -0.483235523001E+03   -0.15500E+00   -0.15502E+00   688   0.171E+00 0.856E-04
CGA:   5    -0.483274644643E+03   -0.39122E-01   -0.39114E-01   688   0.454E-01 0.125E-04
CGA:   6    -0.483286848505E+03   -0.12204E-01   -0.12204E-01   688   0.166E-01 0.687E-05
CGA:   7    -0.483291893761E+03   -0.50453E-02   -0.50451E-02   688   0.839E-02 0.628E-05
CGA:   8    -0.483294431096E+03   -0.25373E-02   -0.25371E-02   688   0.349E-02 0.968E-05
CGA:   9    -0.483295517354E+03   -0.10863E-02   -0.10863E-02   688   0.115E-02-0.850E-06
CGA:  10    -0.483295885115E+03   -0.36776E-03   -0.36771E-03   688   0.375E-03 0.156E-05
CGA:  11    -0.483296022079E+03   -0.13696E-03   -0.13707E-03   688   0.163E-03-0.137E-05
CGA:  12    -0.483296088016E+03   -0.65937E-04   -0.66052E-04   688   0.954E-04-0.987E-06
  55 F= -.48785956E+03 E0= -.48784607E+03  d E =-.135731E+00  mag=    -0.3410
       N       E                     dE             d eps       ncg     rms          ort
SDA:   1    -0.482677113102E+03    0.61891E+00    0.00000E+00   688   0.160E+01 0.000E+00
CGA:   2    -0.483208285521E+03   -0.53117E+00   -0.53113E+00   688   0.566E+00 0.602E-03
CGA:   3    -0.483328458095E+03   -0.12017E+00   -0.12015E+00   688   0.117E+00-0.179E-04
CGA:   4    -0.483353741666E+03   -0.25284E-01   -0.25273E-01   688   0.244E-01-0.203E-04
CGA:   5    -0.483359737430E+03   -0.59958E-02   -0.59961E-02   688   0.697E-02 0.117E-04
CGA:   6    -0.483361591275E+03   -0.18538E-02   -0.18537E-02   688   0.276E-02-0.752E-05
CGA:   7    -0.483362409571E+03   -0.81830E-03   -0.81827E-03   688   0.133E-02 0.331E-05
CGA:   8    -0.483362818989E+03   -0.40942E-03   -0.40938E-03   688   0.546E-03 0.192E-05
CGA:   9    -0.483362982566E+03   -0.16358E-03   -0.16358E-03   688   0.192E-03-0.801E-06
CGA:  10    -0.483363039165E+03   -0.56599E-04   -0.56597E-04   688   0.633E-04 0.612E-06
  56 F= -.48792592E+03 E0= -.48791258E+03  d E =-.663580E-01  mag=    -0.3255
       N       E                     dE             d eps       ncg     rms          ort
SDA:   1    -0.477280247086E+03    0.60827E+01    0.00000E+00   688   0.145E+02 0.000E+00
CGA:   2    -0.482032646958E+03   -0.47524E+01   -0.47512E+01   688   0.530E+01 0.178E-01
CGA:   3    -0.483132791192E+03   -0.11001E+01   -0.10994E+01   688   0.113E+01-0.149E-02
CGA:   4    -0.483369731785E+03   -0.23694E+00   -0.23685E+00   688   0.251E+00-0.876E-05
CGA:   5    -0.483428267572E+03   -0.58536E-01   -0.58515E-01   688   0.705E-01-0.495E-04
CGA:   6    -0.483446656880E+03   -0.18389E-01   -0.18391E-01   688   0.267E-01 0.145E-04
CGA:   7    -0.483454503184E+03   -0.78463E-02   -0.78464E-02   688   0.128E-01-0.298E-05
[...]
CGA:   8    -0.484965265838E+03   -0.10283E-03   -0.10285E-03   688   0.184E-03-0.115E-05
CGA:   9    -0.484965315799E+03   -0.49961E-04   -0.49961E-04   688   0.683E-04-0.441E-07
 187 F= -.48948216E+03 E0= -.48947315E+03  d E =-.273738E-02  mag=    -0.0425
       N       E                     dE             d eps       ncg     rms          ort
SDA:   1    -0.484898487972E+03    0.66778E-01    0.00000E+00   688   0.165E+00 0.000E+00
CGA:   2    -0.484950301768E+03   -0.51814E-01   -0.51817E-01   688   0.545E-01-0.416E-04
CGA:   3    -0.484961989122E+03   -0.11687E-01   -0.11693E-01   688   0.148E-01 0.380E-04
CGA:   4    -0.484964712309E+03   -0.27232E-02   -0.27214E-02   688   0.314E-02-0.422E-05
CGA:   5    -0.484965415061E+03   -0.70275E-03   -0.70289E-03   688   0.816E-03 0.322E-05
CGA:   6    -0.484965630477E+03   -0.21542E-03   -0.21541E-03   688   0.292E-03 0.375E-06
CGA:   7    -0.484965715067E+03   -0.84590E-04   -0.84597E-04   688   0.144E-03-0.244E-06
 188 F= -.48948255E+03 E0= -.48947356E+03  d E =-.312855E-02  mag=    -0.0426
       N       E                     dE             d eps       ncg     rms          ort
SDA:   1    -0.484791549921E+03    0.17408E+00    0.00000E+00   688   0.432E+00 0.000E+00
CGA:   2    -0.484927522787E+03   -0.13597E+00   -0.13599E+00   688   0.145E+00-0.181E-03
CGA:   3    -0.484957981474E+03   -0.30459E-01   -0.30498E-01   688   0.397E-01 0.208E-03
CGA:   4    -0.484965317870E+03   -0.73364E-02   -0.73271E-02   688   0.862E-02-0.174E-04
CGA:   5    -0.484967295868E+03   -0.19780E-02   -0.19782E-02   688   0.214E-02 0.445E-05
CGA:   6    -0.484967890634E+03   -0.59477E-03   -0.59477E-03   688   0.791E-03 0.655E-07
CGA:   7    -0.484968119860E+03   -0.22923E-03   -0.22921E-03   688   0.414E-03 0.182E-06
CGA:   8    -0.484968234529E+03   -0.11467E-03   -0.11470E-03   688   0.204E-03-0.132E-05
CGA:   9    -0.484968289174E+03   -0.54645E-04   -0.54643E-04   688   0.714E-04 0.119E-06
 189 F= -.48948516E+03 E0= -.48947616E+03  d E =-.261609E-02  mag=    -0.0434
       N       E                     dE             d eps       ncg     rms          ort
SDA:   1    -0.484579718477E+03    0.38852E+00    0.00000E+00   688   0.954E+00 0.000E+00
CGA:   2    -0.484879073959E+03   -0.29936E+00   -0.29941E+00   688   0.327E+00-0.660E-03
CGA:   3    -0.484946279197E+03   -0.67205E-01   -0.67362E-01   688   0.905E-01 0.661E-03
CGA:   4    -0.484963109352E+03   -0.16830E-01   -0.16800E-01   688   0.188E-01-0.509E-04
CGA:   5    -0.484967403080E+03   -0.42937E-02   -0.42945E-02   688   0.461E-02 0.126E-04
CGA:   6    -0.484968672142E+03   -0.12691E-02   -0.12691E-02   688   0.166E-02-0.598E-06
CGA:   7    -0.484969150322E+03   -0.47818E-03   -0.47814E-03   688   0.853E-03 0.813E-06
CGA:   8    -0.484969387998E+03   -0.23768E-03   -0.23772E-03   688   0.423E-03-0.189E-05
CGA:   9    -0.484969502226E+03   -0.11423E-03   -0.11422E-03   688   0.152E-03 0.215E-06
CGA:  10    -0.484969545290E+03   -0.43064E-04   -0.43053E-04   688   0.535E-04 0.493E-06
 190 F= -.48948649E+03 E0= -.48947746E+03  d E =-.394629E-02  mag=    -0.0445
       N       E                     dE             d eps       ncg     rms          ort
SDA:   1    -0.484830952245E+03    0.13855E+00    0.00000E+00   688   0.342E+00 0.000E+00
CGA:   2    -0.484939313213E+03   -0.10836E+00   -0.10837E+00   688   0.118E+00-0.151E-03
CGA:   3    -0.484963710218E+03   -0.24397E-01   -0.24433E-01   688   0.316E-01 0.152E-03
CGA:   4    -0.484969643300E+03   -0.59331E-02   -0.59272E-02   688   0.672E-02-0.142E-04
CGA:   5    -0.484971145695E+03   -0.15024E-02   -0.15026E-02   688   0.166E-02 0.159E-05
CGA:   6    -0.484971602103E+03   -0.45641E-03   -0.45641E-03   688   0.588E-03 0.171E-06
CGA:   7    -0.484971772168E+03   -0.17006E-03   -0.17006E-03   688   0.302E-03 0.279E-07
CGA:   8    -0.484971856590E+03   -0.84423E-04   -0.84450E-04   688   0.151E-03-0.110E-05
 191 F= -.48948878E+03 E0= -.48947976E+03  d E =-.228391E-02  mag=    -0.0447
       N       E                     dE             d eps       ncg     rms          ort
SDA:   1    -0.484906701607E+03    0.65071E-01    0.00000E+00   688   0.160E+00 0.000E+00
CGA:   2    -0.484957149921E+03   -0.50448E-01   -0.50453E-01   688   0.555E-01-0.542E-04
CGA:   3    -0.484968521354E+03   -0.11371E-01   -0.11384E-01   688   0.150E-01 0.515E-04
CGA:   4    -0.484971333828E+03   -0.28125E-02   -0.28105E-02   688   0.309E-02-0.615E-05
CGA:   5    -0.484972046550E+03   -0.71272E-03   -0.71274E-03   688   0.815E-03-0.157E-06
CGA:   6    -0.484972267464E+03   -0.22091E-03   -0.22091E-03   688   0.299E-03 0.238E-06
CGA:   7    -0.484972353268E+03   -0.85804E-04   -0.85803E-04   688   0.155E-03-0.170E-07
 192 F= -.48948926E+03 E0= -.48948023E+03  d E =-.276400E-02  mag=    -0.0451
       N       E                     dE             d eps       ncg     rms          ort
SDA:   1    -0.484888084938E+03    0.84183E-01    0.00000E+00   688   0.210E+00 0.000E+00
CGA:   2    -0.484955009292E+03   -0.66924E-01   -0.66931E-01   688   0.693E-01-0.702E-04
CGA:   3    -0.484970023197E+03   -0.15014E-01   -0.15025E-01   688   0.179E-01 0.752E-04
CGA:   4    -0.484973335217E+03   -0.33120E-02   -0.33094E-02   688   0.409E-02-0.503E-05
CGA:   5    -0.484974256892E+03   -0.92168E-03   -0.92182E-03   688   0.106E-02 0.305E-05
CGA:   6    -0.484974544739E+03   -0.28785E-03   -0.28783E-03   688   0.388E-03 0.834E-06
CGA:   7    -0.484974659224E+03   -0.11449E-03   -0.11449E-03   688   0.198E-03-0.258E-06
CGA:   8    -0.484974716015E+03   -0.56791E-04   -0.56815E-04   688   0.985E-04-0.747E-06
 193 F= -.48949147E+03 E0= -.48948246E+03  d E =-.221458E-02  mag=    -0.0452
       N       E                     dE             d eps       ncg     rms          ort
SDA:   1    -0.484763425383E+03    0.21123E+00    0.00000E+00   688   0.516E+00 0.000E+00
CGA:   2    -0.484927155792E+03   -0.16373E+00   -0.16376E+00   688   0.177E+00-0.401E-03
CGA:   3    -0.484963983306E+03   -0.36828E-01   -0.36900E-01   688   0.482E-01 0.337E-03
CGA:   4    -0.484972866876E+03   -0.88836E-02   -0.88724E-02   688   0.990E-02-0.174E-04
CGA:   5    -0.484975155637E+03   -0.22888E-02   -0.22890E-02   688   0.252E-02 0.695E-05
CGA:   6    -0.484975835648E+03   -0.68001E-03   -0.68000E-03   688   0.906E-03 0.876E-06
CGA:   7    -0.484976095713E+03   -0.26006E-03   -0.26005E-03   688   0.456E-03 0.237E-06
CGA:   8    -0.484976224799E+03   -0.12909E-03   -0.12913E-03   688   0.226E-03-0.143E-05
CGA:   9    -0.484976285801E+03   -0.61002E-04   -0.61001E-04   688   0.834E-04 0.541E-07
 194 F= -.48949281E+03 E0= -.48948381E+03  d E =-.355577E-02  mag=    -0.0453
       N       E                     dE             d eps       ncg     rms          ort
SDA:   1    -0.484913952406E+03    0.62272E-01    0.00000E+00   688   0.156E+00 0.000E+00
CGA:   2    -0.484963769906E+03   -0.49818E-01   -0.49822E-01   688   0.515E-01-0.570E-04
CGA:   3    -0.484974777994E+03   -0.11008E-01   -0.11016E-01   688   0.136E-01 0.477E-04
CGA:   4    -0.484977324561E+03   -0.25466E-02   -0.25446E-02   688   0.301E-02-0.532E-05
CGA:   5    -0.484977983966E+03   -0.65941E-03   -0.65950E-03   688   0.786E-03 0.150E-05
CGA:   6    -0.484978196324E+03   -0.21236E-03   -0.21235E-03   688   0.278E-03 0.508E-06
CGA:   7    -0.484978280042E+03   -0.83718E-04   -0.83731E-04   688   0.140E-03-0.284E-06
 195 F= -.48949443E+03 E0= -.48948539E+03  d E =-.161879E-02  mag=    -0.0459
       N       E                     dE             d eps       ncg     rms          ort
SDA:   1    -0.484765390620E+03    0.21281E+00    0.00000E+00   688   0.520E+00 0.000E+00
CGA:   2    -0.484931533121E+03   -0.16614E+00   -0.16617E+00   688   0.172E+00-0.350E-03
CGA:   3    -0.484968316831E+03   -0.36784E-01   -0.36835E-01   688   0.452E-01 0.297E-03
CGA:   4    -0.484976743581E+03   -0.84267E-02   -0.84146E-02   688   0.103E-01-0.203E-04
CGA:   5    -0.484979043891E+03   -0.23003E-02   -0.23007E-02   688   0.262E-02 0.578E-05
CGA:   6    -0.484979764282E+03   -0.72039E-03   -0.72038E-03   688   0.945E-03 0.761E-06
CGA:   7    -0.484980046458E+03   -0.28218E-03   -0.28218E-03   688   0.484E-03-0.191E-06
CGA:   8    -0.484980184015E+03   -0.13756E-03   -0.13759E-03   688   0.246E-03-0.107E-05
CGA:   9    -0.484980247535E+03   -0.63520E-04   -0.63520E-04   688   0.871E-04 0.192E-06
 196 F= -.48949572E+03 E0= -.48948661E+03  d E =-.290237E-02  mag=    -0.0465
       N       E                     dE             d eps       ncg     rms          ort
SDA:   1    -0.484904867543E+03    0.75316E-01    0.00000E+00   688   0.189E+00 0.000E+00
CGA:   2    -0.484964009296E+03   -0.59142E-01   -0.59148E-01   688   0.638E-01-0.881E-04
CGA:   3    -0.484977595288E+03   -0.13586E-01   -0.13598E-01   688   0.167E-01 0.681E-04
CGA:   4    -0.484980778306E+03   -0.31830E-02   -0.31807E-02   688   0.375E-02-0.755E-05
CGA:   5    -0.484981586132E+03   -0.80783E-03   -0.80791E-03   688   0.968E-03 0.322E-06
CGA:   6    -0.484981848100E+03   -0.26197E-03   -0.26197E-03   688   0.338E-03 0.174E-06
CGA:   7    -0.484981949547E+03   -0.10145E-03   -0.10146E-03   688   0.168E-03-0.272E-06
CGA:   8    -0.484981998779E+03   -0.49232E-04   -0.49248E-04   688   0.878E-04-0.425E-06
 197 F= -.48949723E+03 E0= -.48948812E+03  d E =-.151851E-02  mag=    -0.0468
       N       E                     dE             d eps       ncg     rms          ort
SDA:   1    -0.484948152956E+03    0.33797E-01    0.00000E+00   688   0.841E-01 0.000E+00
CGA:   2    -0.484974341543E+03   -0.26189E-01   -0.26191E-01   688   0.293E-01-0.375E-04
CGA:   3    -0.484980404343E+03   -0.60628E-02   -0.60681E-02   688   0.796E-02 0.259E-04
CGA:   4    -0.484981903150E+03   -0.14988E-02   -0.14980E-02   688   0.168E-02-0.323E-05
CGA:   5    -0.484982285578E+03   -0.38243E-03   -0.38243E-03   688   0.442E-03-0.391E-06
CGA:   6    -0.484982406047E+03   -0.12047E-03   -0.12047E-03   688   0.160E-03 0.118E-06
CGA:   7    -0.484982453190E+03   -0.47143E-04   -0.47145E-04   688   0.827E-04-0.684E-07
 198 F= -.48949753E+03 E0= -.48948840E+03  d E =-.181865E-02  mag=    -0.0472
       N       E                     dE             d eps       ncg     rms          ort
SDA:   1    -0.484933980301E+03    0.48426E-01    0.00000E+00   688   0.123E+00 0.000E+00
CGA:   2    -0.484972246236E+03   -0.38266E-01   -0.38269E-01   688   0.401E-01-0.437E-04
CGA:   3    -0.484981100173E+03   -0.88539E-02   -0.88591E-02   688   0.104E-01 0.407E-04
CGA:   4    -0.484983052124E+03   -0.19520E-02   -0.19508E-02   688   0.246E-02-0.274E-05
CGA:   5    -0.484983595218E+03   -0.54309E-03   -0.54319E-03   688   0.636E-03 0.177E-05
CGA:   6    -0.484983770050E+03   -0.17483E-03   -0.17482E-03   688   0.233E-03 0.583E-06
CGA:   7    -0.484983840458E+03   -0.70408E-04   -0.70415E-04   688   0.117E-03-0.159E-06
 199 F= -.48949885E+03 E0= -.48948973E+03  d E =-.131713E-02  mag=    -0.0473
       N       E                     dE             d eps       ncg     rms          ort
SDA:   1    -0.484800788953E+03    0.18298E+00    0.00000E+00   688   0.453E+00 0.000E+00
CGA:   2    -0.484941849690E+03   -0.14106E+00   -0.14109E+00   688   0.150E+00-0.354E-03
CGA:   3    -0.484974472040E+03   -0.32622E-01   -0.32667E-01   688   0.397E-01 0.304E-03
CGA:   4    -0.484981885171E+03   -0.74131E-02   -0.74045E-02   688   0.907E-02-0.149E-04
CGA:   5    -0.484983902847E+03   -0.20177E-02   -0.20181E-02   688   0.230E-02 0.587E-05
CGA:   6    -0.484984534535E+03   -0.63169E-03   -0.63168E-03   688   0.833E-03 0.842E-06
CGA:   7    -0.484984783357E+03   -0.24882E-03   -0.24882E-03   688   0.415E-03-0.543E-07
CGA:   8    -0.484984904755E+03   -0.12140E-03   -0.12143E-03   688   0.207E-03-0.806E-06
CGA:   9    -0.484984958616E+03   -0.53862E-04   -0.53862E-04   688   0.778E-04 0.118E-06
 200 F= -.48949984E+03 E0= -.48949075E+03  d E =-.230326E-02  mag=    -0.0476
       N       E                     dE             d eps       ncg     rms          ort
SDA:   1    -0.484936725115E+03    0.48180E-01    0.00000E+00   688   0.122E+00 0.000E+00
CGA:   2    -0.484974800802E+03   -0.38076E-01   -0.38079E-01   688   0.404E-01-0.402E-04
CGA:   3    -0.484983512207E+03   -0.87114E-02   -0.87173E-02   688   0.108E-01 0.376E-04
CGA:   4    -0.484985535570E+03   -0.20234E-02   -0.20221E-02   688   0.241E-02-0.318E-05
CGA:   5    -0.484986066228E+03   -0.53066E-03   -0.53073E-03   688   0.631E-03 0.121E-05
CGA:   6    -0.484986238620E+03   -0.17239E-03   -0.17238E-03   688   0.229E-03 0.520E-06
CGA:   7    -0.484986307643E+03   -0.69022E-04   -0.69027E-04   688   0.112E-03-0.109E-06
 201 F= -.48950104E+03 E0= -.48949197E+03  d E =-.119687E-02  mag=    -0.0478
       N       E                     dE             d eps       ncg     rms          ort
SDA:   1    -0.484770611108E+03    0.21563E+00    0.00000E+00   688   0.532E+00 0.000E+00
CGA:   2    -0.484936988207E+03   -0.16638E+00   -0.16641E+00   688   0.177E+00-0.384E-03
CGA:   3    -0.484975162761E+03   -0.38175E-01   -0.38235E-01   688   0.474E-01 0.364E-03
CGA:   4    -0.484984026285E+03   -0.88635E-02   -0.88513E-02   688   0.108E-01-0.193E-04
CGA:   5    -0.484986450192E+03   -0.24239E-02   -0.24243E-02   688   0.274E-02 0.620E-05
CGA:   6    -0.484987209406E+03   -0.75921E-03   -0.75921E-03   688   0.101E-02 0.701E-06
CGA:   7    -0.484987508685E+03   -0.29928E-03   -0.29927E-03   688   0.506E-03 0.171E-06
CGA:   8    -0.484987655491E+03   -0.14681E-03   -0.14684E-03   688   0.247E-03-0.889E-06
CGA:   9    -0.484987720135E+03   -0.64644E-04   -0.64644E-04   688   0.911E-04 0.320E-07
 202 F= -.48950213E+03 E0= -.48949313E+03  d E =-.229463E-02  mag=    -0.0480
       N       E                     dE             d eps       ncg     rms          ort
SDA:   1    -0.484916765379E+03    0.70890E-01    0.00000E+00   688   0.177E+00 0.000E+00
CGA:   2    -0.484972215103E+03   -0.55450E-01   -0.55454E-01   688   0.608E-01-0.605E-04
CGA:   3    -0.484984926894E+03   -0.12712E-01   -0.12724E-01   688   0.163E-01 0.584E-04
CGA:   4    -0.484988032487E+03   -0.31056E-02   -0.31034E-02   688   0.356E-02-0.655E-05
CGA:   5    -0.484988820010E+03   -0.78752E-03   -0.78756E-03   688   0.917E-03-0.306E-06
CGA:   6    -0.484989071430E+03   -0.25142E-03   -0.25142E-03   688   0.332E-03 0.618E-07
CGA:   7    -0.484989169307E+03   -0.97877E-04   -0.97878E-04   688   0.166E-03-0.607E-07
 203 F= -.48950345E+03 E0= -.48949444E+03  d E =-.131372E-02  mag=    -0.0485
       N       E                     dE             d eps       ncg     rms          ort
SDA:   1    -0.484966448035E+03    0.22623E-01    0.00000E+00   688   0.561E-01 0.000E+00
CGA:   2    -0.484984149163E+03   -0.17701E-01   -0.17702E-01   688   0.186E-01-0.103E-04
CGA:   3    -0.484988196134E+03   -0.40470E-02   -0.40484E-02   688   0.482E-02 0.116E-04
CGA:   4    -0.484989100531E+03   -0.90440E-03   -0.90395E-03   688   0.119E-02-0.212E-05
CGA:   5    -0.484989366060E+03   -0.26553E-03   -0.26552E-03   688   0.318E-03-0.522E-06
CGA:   6    -0.484989455573E+03   -0.89512E-04   -0.89509E-04   688   0.121E-03 0.156E-06
 204 F= -.48950366E+03 E0= -.48949466E+03  d E =-.152468E-02  mag=    -0.0488
       N       E                     dE             d eps       ncg     rms          ort
SDA:   1    -0.484907309565E+03    0.82056E-01    0.00000E+00   688   0.203E+00 0.000E+00
CGA:   2    -0.484971729787E+03   -0.64420E-01   -0.64425E-01   688   0.676E-01-0.628E-04
CGA:   3    -0.484986074476E+03   -0.14345E-01   -0.14357E-01   688   0.182E-01 0.662E-04
CGA:   4    -0.484989483782E+03   -0.34093E-02   -0.34065E-02   688   0.419E-02-0.529E-05
CGA:   5    -0.484990424691E+03   -0.94091E-03   -0.94103E-03   688   0.107E-02 0.225E-05
CGA:   6    -0.484990723118E+03   -0.29843E-03   -0.29841E-03   688   0.402E-03 0.786E-06
CGA:   7    -0.484990843915E+03   -0.12080E-03   -0.12080E-03   688   0.200E-03-0.141E-06
CGA:   8    -0.484990906346E+03   -0.62431E-04   -0.62444E-04   688   0.870E-04-0.245E-06
 205 F= -.48950505E+03 E0= -.48949603E+03  d E =-.138804E-02  mag=    -0.0493
       N       E                     dE             d eps       ncg     rms          ort
SDA:   1    -0.484900525891E+03    0.90318E-01    0.00000E+00   688   0.221E+00 0.000E+00
CGA:   2    -0.484970664915E+03   -0.70139E-01   -0.70145E-01   688   0.737E-01-0.788E-04
CGA:   3    -0.484986244433E+03   -0.15580E-01   -0.15595E-01   688   0.202E-01 0.765E-04
CGA:   4    -0.484989999482E+03   -0.37550E-02   -0.37516E-02   688   0.426E-02-0.539E-05
CGA:   5    -0.484990980433E+03   -0.98095E-03   -0.98107E-03   688   0.110E-02 0.261E-05
CGA:   6    -0.484991283674E+03   -0.30324E-03   -0.30324E-03   688   0.407E-03 0.418E-06
CGA:   7    -0.484991401570E+03   -0.11790E-03   -0.11788E-03   688   0.212E-03 0.341E-06
CGA:   8    -0.484991461719E+03   -0.60149E-04   -0.60165E-04   688   0.103E-03-0.602E-06
 206 F= -.48950554E+03 E0= -.48949651E+03  d E =-.188024E-02  mag=    -0.0498
       N       E                     dE             d eps       ncg     rms          ort
SDA:   1    -0.484956395204E+03    0.35006E-01    0.00000E+00   688   0.880E-01 0.000E+00
CGA:   2    -0.484984490432E+03   -0.28095E-01   -0.28096E-01   688   0.281E-01-0.995E-05
CGA:   3    -0.484990743812E+03   -0.62534E-02   -0.62545E-02   688   0.715E-02 0.797E-05
CGA:   4    -0.484992089967E+03   -0.13462E-02   -0.13456E-02   688   0.161E-02-0.725E-06
CGA:   5    -0.484992450905E+03   -0.36094E-03   -0.36102E-03   688   0.440E-03 0.198E-05
CGA:   6    -0.484992565496E+03   -0.11459E-03   -0.11459E-03   688   0.163E-03 0.481E-06
CGA:   7    -0.484992612658E+03   -0.47162E-04   -0.47162E-04   688   0.803E-04-0.253E-07
 207 F= -.48950647E+03 E0= -.48949741E+03  d E =-.932433E-03  mag=    -0.0500
       N       E                     dE             d eps       ncg     rms          ort
SDA:   1    -0.484981388177E+03    0.11177E-01    0.00000E+00   688   0.279E-01 0.000E+00
CGA:   2    -0.484990349282E+03   -0.89611E-02   -0.89611E-02   688   0.850E-02 0.117E-05
CGA:   3    -0.484992360982E+03   -0.20117E-02   -0.20117E-02   688   0.183E-02-0.219E-06
CGA:   4    -0.484992739079E+03   -0.37810E-03   -0.37809E-03   688   0.482E-03 0.132E-06
CGA:   5    -0.484992842477E+03   -0.10340E-03   -0.10344E-03   688   0.146E-03 0.841E-06
CGA:   6    -0.484992879419E+03   -0.36942E-04   -0.36943E-04   688   0.576E-04 0.339E-06
 208 F= -.48950661E+03 E0= -.48949755E+03  d E =-.107635E-02  mag=    -0.0499
       N       E                     dE             d eps       ncg     rms          ort
SDA:   1    -0.484972036950E+03    0.20806E-01    0.00000E+00   688   0.527E-01 0.000E+00
CGA:   2    -0.484988960009E+03   -0.16923E-01   -0.16923E-01   688   0.170E-01-0.577E-05
CGA:   3    -0.484992668596E+03   -0.37086E-02   -0.37091E-02   688   0.420E-02 0.589E-05
CGA:   4    -0.484993486625E+03   -0.81803E-03   -0.81766E-03   688   0.105E-02-0.267E-05
CGA:   5    -0.484993709339E+03   -0.22271E-03   -0.22273E-03   688   0.280E-03 0.492E-07
CGA:   6    -0.484993784999E+03   -0.75660E-04   -0.75659E-04   688   0.102E-03 0.121E-06
 209 F= -.48950735E+03 E0= -.48949828E+03  d E =-.739113E-03  mag=    -0.0498
       N       E                     dE             d eps       ncg     rms          ort
SDA:   1    -0.484966270286E+03    0.27439E-01    0.00000E+00   688   0.678E-01 0.000E+00
CGA:   2    -0.484988042395E+03   -0.21772E-01   -0.21773E-01   688   0.219E-01-0.736E-05
CGA:   3    -0.484992815408E+03   -0.47730E-02   -0.47738E-02   688   0.550E-02 0.793E-05
CGA:   4    -0.484993877212E+03   -0.10618E-02   -0.10613E-02   688   0.142E-02-0.297E-05
CGA:   5    -0.484994174816E+03   -0.29760E-03   -0.29762E-03   688   0.374E-03-0.714E-07
CGA:   6    -0.484994277665E+03   -0.10285E-03   -0.10284E-03   688   0.134E-03 0.247E-06
CGA:   7    -0.484994321065E+03   -0.43400E-04   -0.43430E-04   688   0.645E-04-0.420E-06
 210 F= -.48950770E+03 E0= -.48949861E+03  d E =-.108675E-02  mag=    -0.0498
