       N       E                     dE             d eps       ncg     rms          rms(c)
DAV:   1     0.253513141454E+04    0.25351E+04   -0.11206E+05  4368   0.106E+03
DAV:   2    -0.241908681736E+03   -0.27770E+04   -0.26516E+04  5456   0.280E+02
DAV:   3    -0.700091411845E+03   -0.45818E+03   -0.45421E+03  4592   0.120E+02
DAV:   4    -0.716636504778E+03   -0.16545E+02   -0.16409E+02  4648   0.281E+01
DAV:   5    -0.717181522768E+03   -0.54502E+00   -0.54251E+00  5280   0.426E+00    0.480E+01
DAV:   6    -0.712234391903E+03    0.49471E+01   -0.69265E+01  4768   0.304E+01    0.722E+01
DAV:   7    -0.675799131456E+03    0.36435E+02   -0.72421E+01  5336   0.591E+01    0.254E+01
DAV:   8    -0.669373070091E+03    0.64261E+01   -0.33076E+01  4880   0.134E+01    0.230E+01
DAV:   9    -0.664719893776E+03    0.46532E+01   -0.21861E+01  4616   0.138E+01    0.143E+01
DAV:  10    -0.663789339807E+03    0.93055E+00   -0.83771E+00  5240   0.103E+01    0.739E+00
DAV:  11    -0.663697254894E+03    0.92085E-01   -0.99724E-01  4696   0.297E+00    0.553E+00
DAV:  12    -0.663518599241E+03    0.17866E+00   -0.52219E-01  4600   0.265E+00    0.293E+00
DAV:  13    -0.663534922312E+03   -0.16323E-01   -0.17944E-01  4784   0.115E+00    0.214E+00
DAV:  14    -0.663538350746E+03   -0.34284E-02   -0.32385E-02  4408   0.459E-01    0.174E+00
DAV:  15    -0.663537391594E+03    0.95915E-03   -0.52014E-03  4840   0.202E-01    0.128E+00
DAV:  16    -0.663536636503E+03    0.75509E-03   -0.42742E-03  4864   0.141E-01    0.878E-01
DAV:  17    -0.663536726740E+03   -0.90238E-04   -0.11697E-03  4368   0.780E-02    0.681E-01
DAV:  18    -0.663536681356E+03    0.45384E-04   -0.13982E-04  2976   0.398E-02
   1 F= -.67010770E+03 E0= -.67010770E+03  d E =0.000000E+00  mag=     1.0020
