 vasp.5.4.4.18Apr17-6-g9f103f2a35 (build Sep 02 2021 13:24:58) complex          
  
 executed on             LinuxIFC date 2023.01.15  13:02:11
 running on   48 total cores
 distrk:  each k-point on   48 cores,    1 groups
 distr:  one band on NCORES_PER_BAND=  12 cores,    4 groups


--------------------------------------------------------------------------------------------------------


 INCAR:
 POTCAR:    PAW_PBE C 08Apr2002                   
 POTCAR:    PAW_PBE N 08Apr2002                   
 POTCAR:    PAW_PBE C 08Apr2002                   
 POTCAR:    PAW_PBE Cr_pv 02Aug2007               
 POTCAR:    PAW_PBE C 08Apr2002                   
   SHA256 =  253f7b50bb8d59471dbedb8285d89021f4a42ed1a2c5d38a03a736e69125dd95 C/
   COPYR  = (c) Copyright 08Apr2002 Georg Kresse                                
   COPYR  = This file is part of the software VASP. Any use, copying, and all ot
   COPYR  = If you do not have a valid VASP license, you may not use, copy or di
   VRHFIN =C: s2p2                                                              
   LEXCH  = PE                                                                  
   EATOM  =   147.1560 eV,   10.8157 Ry                                         
                                                                                
   TITEL  = PAW_PBE C 08Apr2002                                                 
   LULTRA =        F    use ultrasoft PP ?                                      
   IUNSCR =        1    unscreen: 0-lin 1-nonlin 2-no                           
   RPACOR =    1.200    partial core radius                                     
   POMASS =   12.011; ZVAL   =    4.000    mass and valenz                      
   RCORE  =    1.500    outmost cutoff radius                                   
   RWIGS  =    1.630; RWIGS  =    0.863    wigner-seitz radius (au A)           
   ENMAX  =  400.000; ENMIN  =  300.000 eV                                      
   ICORE  =        2    local potential                                         
   LCOR   =        T    correct aug charges                                     
   LPAW   =        T    paw PP                                                  
   EAUG   =  644.873                                                            
   DEXC   =    0.000                                                            
   RMAX   =    1.529    core radius for proj-oper                               
   RAUG   =    1.300    factor for augmentation sphere                          
   RDEP   =    1.501    radius for radial grids                                 
   RDEPT  =    1.300    core radius for aug-charge                              
                                                                                
   Atomic configuration                                                         
    4 entries                                                                   
     n  l   j            E        occ.                                          
     1  0  0.50      -273.3789   2.0000                                         
     2  0  0.50       -13.7508   2.0000                                         
     2  1  0.50        -5.2854   2.0000                                         
     3  2  1.50        -5.4423   0.0000                                         
   Description                                                                  
     l       E           TYP  RCUT    TYP  RCUT                                 
     0    -13.7508458     23  1.200                                             
     0     -8.2022199     23  1.200                                             
     1     -5.2854383     23  1.500                                             
     1     34.0145650     23  1.500                                             
     2     -5.4423304      7  1.500                                             
  local pseudopotential read in
  partial core-charges read in
  partial kinetic energy density read in
  atomic valenz-charges read in
  non local Contribution for L=           0  read in
    real space projection operators read in
  non local Contribution for L=           0  read in
    real space projection operators read in
  non local Contribution for L=           1  read in
    real space projection operators read in
  non local Contribution for L=           1  read in
    real space projection operators read in
    PAW grid and wavefunctions read in
 
   number of l-projection  operators is LMAX  =           4
   number of lm-projection operators is LMMAX =           8
 
 POTCAR:    PAW_PBE N 08Apr2002                   
   SHA256 =  e053789ff3a61a86a1b75d8a110fcc91f86041011e7b0817c7c99e4e8a6349d7 N/
   COPYR  = (c) Copyright 08Apr2002 Georg Kresse                                
   COPYR  = This file is part of the software VASP. Any use, copying, and all ot
   COPYR  = If you do not have a valid VASP license, you may not use, copy or di
   VRHFIN =N: s2p3                                                              
   LEXCH  = PE                                                                  
   EATOM  =   264.5486 eV,   19.4438 Ry                                         
                                                                                
   TITEL  = PAW_PBE N 08Apr2002                                                 
   LULTRA =        F    use ultrasoft PP ?                                      
   IUNSCR =        1    unscreen: 0-lin 1-nonlin 2-no                           
   RPACOR =    1.200    partial core radius                                     
   POMASS =   14.001; ZVAL   =    5.000    mass and valenz                      
   RCORE  =    1.500    outmost cutoff radius                                   
   RWIGS  =    1.400; RWIGS  =    0.741    wigner-seitz radius (au A)           
   ENMAX  =  400.000; ENMIN  =  300.000 eV                                      
   ICORE  =        2    local potential                                         
   LCOR   =        T    correct aug charges                                     
   LPAW   =        T    paw PP                                                  
   EAUG   =  627.112                                                            
   DEXC   =    0.000                                                            
   RMAX   =    1.529    core radius for proj-oper                               
   RAUG   =    1.300    factor for augmentation sphere                          
   RDEP   =    1.514    radius for radial grids                                 
   RDEPT  =    1.338    core radius for aug-charge                              
                                                                                
   Atomic configuration                                                         
    4 entries                                                                   
     n  l   j            E        occ.                                          
     1  0  0.50      -384.7179   2.0000                                         
     2  0  0.50       -18.5828   2.0000                                         
     2  1  0.50        -7.0898   3.0000                                         
     3  2  1.50        -6.8029   0.0000                                         
   Description                                                                  
     l       E           TYP  RCUT    TYP  RCUT                                 
     0    -18.5828119     23  1.200                                             
     0    -13.5018863     23  1.200                                             
     1     -7.0897853     23  1.500                                             
     1      9.5240782     23  1.500                                             
     2     -6.8029130      7  1.500                                             
  local pseudopotential read in
  partial core-charges read in
  partial kinetic energy density read in
  atomic valenz-charges read in
  non local Contribution for L=           0  read in
    real space projection operators read in
  non local Contribution for L=           0  read in
    real space projection operators read in
  non local Contribution for L=           1  read in
    real space projection operators read in
  non local Contribution for L=           1  read in
    real space projection operators read in
    PAW grid and wavefunctions read in
 
   number of l-projection  operators is LMAX  =           4
   number of lm-projection operators is LMMAX =           8
 
 POTCAR:    PAW_PBE C 08Apr2002                   
   SHA256 =  253f7b50bb8d59471dbedb8285d89021f4a42ed1a2c5d38a03a736e69125dd95 C/
   COPYR  = (c) Copyright 08Apr2002 Georg Kresse                                
   COPYR  = This file is part of the software VASP. Any use, copying, and all ot
   COPYR  = If you do not have a valid VASP license, you may not use, copy or di
   VRHFIN =C: s2p2                                                              
   LEXCH  = PE                                                                  
   EATOM  =   147.1560 eV,   10.8157 Ry                                         
                                                                                
   TITEL  = PAW_PBE C 08Apr2002                                                 
   LULTRA =        F    use ultrasoft PP ?                                      
   IUNSCR =        1    unscreen: 0-lin 1-nonlin 2-no                           
   RPACOR =    1.200    partial core radius                                     
   POMASS =   12.011; ZVAL   =    4.000    mass and valenz                      
   RCORE  =    1.500    outmost cutoff radius                                   
   RWIGS  =    1.630; RWIGS  =    0.863    wigner-seitz radius (au A)           
   ENMAX  =  400.000; ENMIN  =  300.000 eV                                      
   ICORE  =        2    local potential                                         
   LCOR   =        T    correct aug charges                                     
   LPAW   =        T    paw PP                                                  
   EAUG   =  644.873                                                            
   DEXC   =    0.000                                                            
   RMAX   =    1.529    core radius for proj-oper                               
   RAUG   =    1.300    factor for augmentation sphere                          
   RDEP   =    1.501    radius for radial grids                                 
   RDEPT  =    1.300    core radius for aug-charge                              
                                                                                
   Atomic configuration                                                         
    4 entries                                                                   
     n  l   j            E        occ.                                          
     1  0  0.50      -273.3789   2.0000                                         
     2  0  0.50       -13.7508   2.0000                                         
     2  1  0.50        -5.2854   2.0000                                         
     3  2  1.50        -5.4423   0.0000                                         
   Description                                                                  
     l       E           TYP  RCUT    TYP  RCUT                                 
     0    -13.7508458     23  1.200                                             
     0     -8.2022199     23  1.200                                             
     1     -5.2854383     23  1.500                                             
     1     34.0145650     23  1.500                                             
     2     -5.4423304      7  1.500                                             
  local pseudopotential read in
  partial core-charges read in
  partial kinetic energy density read in
  atomic valenz-charges read in
  non local Contribution for L=           0  read in
    real space projection operators read in
  non local Contribution for L=           0  read in
    real space projection operators read in
  non local Contribution for L=           1  read in
    real space projection operators read in
  non local Contribution for L=           1  read in
    real space projection operators read in
    PAW grid and wavefunctions read in
 
   number of l-projection  operators is LMAX  =           4
   number of lm-projection operators is LMMAX =           8
 
 POTCAR:    PAW_PBE Cr_pv 02Aug2007               
   SHA256 =  c9a7df34d3cdbacf1090e328ef39c0b420964e11c23f63548d1ac9dd218cdba0 Cr
   COPYR  = (c) Copyright 02Aug2007 Georg Kresse                                
   COPYR  = This file is part of the software VASP. Any use, copying, and all ot
   COPYR  = If you do not have a valid VASP license, you may not use, copy or di
   VRHFIN =Cr : p6d5s1                                                          
   LEXCH  = PE                                                                  
   EATOM  =  1647.9177 eV,  121.1185 Ry                                         
                                                                                
   TITEL  = PAW_PBE Cr_pv 02Aug2007                                             
   LULTRA =        F    use ultrasoft PP ?                                      
   IUNSCR =        1    unscreen: 0-lin 1-nonlin 2-no                           
   RPACOR =    2.080    partial core radius                                     
   POMASS =   51.996; ZVAL   =   12.000    mass and valenz                      
   RCORE  =    2.300    outmost cutoff radius                                   
   RWIGS  =    2.500; RWIGS  =    1.323    wigner-seitz radius (au A)           
   ENMAX  =  265.681; ENMIN  =  199.261 eV                                      
   ICORE  =        3    local potential                                         
   LCOR   =        T    correct aug charges                                     
   LPAW   =        T    paw PP                                                  
   EAUG   =  519.424                                                            
   DEXC   =    0.000                                                            
   RMAX   =    2.356    core radius for proj-oper                               
   RAUG   =    1.300    factor for augmentation sphere                          
   RDEP   =    2.447    radius for radial grids                                 
   RDEPT  =    1.882    core radius for aug-charge                              
                                                                                
   Atomic configuration                                                         
    8 entries                                                                   
     n  l   j            E        occ.                                          
     1  0  0.50     -5880.4963   2.0000                                         
     2  0  0.50      -667.0865   2.0000                                         
     2  1  1.50      -560.6250   6.0000                                         
     3  0  0.50       -73.9860   2.0000                                         
     3  1  1.50       -45.4378   6.0000                                         
     3  2  2.50        -2.9137   5.0000                                         
     4  0  0.50        -4.0071   1.0000                                         
     4  3  2.50        -1.3606   0.0000                                         
   Description                                                                  
     l       E           TYP  RCUT    TYP  RCUT                                 
     1    -45.4377911     23  2.000                                             
     1      1.3605826     23  2.000                                             
     2     -2.9136672     23  2.300                                             
     2     -4.2742498     23  2.300                                             
     0     -4.0071320     23  2.300                                             
     0      9.4498803     23  2.300                                             
     3      2.7211652     23  2.300                                             
  local pseudopotential read in
  partial core-charges read in
  partial kinetic energy density read in
  atomic valenz-charges read in
  non local Contribution for L=           1  read in
    real space projection operators read in
  non local Contribution for L=           1  read in
    real space projection operators read in
  non local Contribution for L=           2  read in
    real space projection operators read in
  non local Contribution for L=           2  read in
    real space projection operators read in
  non local Contribution for L=           0  read in
    real space projection operators read in
  non local Contribution for L=           0  read in
    real space projection operators read in
    PAW grid and wavefunctions read in
 
   number of l-projection  operators is LMAX  =           6
   number of lm-projection operators is LMMAX =          18
 
 Optimization of the real space projectors (new method)

 maximal supplied QI-value         = 25.13
 optimisation between [QCUT,QGAM] = [ 11.81, 23.88] = [ 39.08,159.64] Ry 
 Optimized for a Real-space Cutoff    1.18 Angstroem

   l    n(q)    QCUT    max X(q) W(low)/X(q) W(high)/X(q)  e(spline) 
   0      8    11.813   115.676    0.10E-03    0.16E-03    0.35E-06
   0      8    11.813    87.132    0.10E-03    0.16E-03    0.35E-06
   1      8    11.813     4.429    0.16E-03    0.13E-04    0.22E-06
   1      8    11.813     2.733    0.13E-03    0.10E-04    0.18E-06
 Optimization of the real space projectors (new method)

 maximal supplied QI-value         = 25.13
 optimisation between [QCUT,QGAM] = [ 11.81, 23.88] = [ 39.08,159.64] Ry 
 Optimized for a Real-space Cutoff    1.41 Angstroem

   l    n(q)    QCUT    max X(q) W(low)/X(q) W(high)/X(q)  e(spline) 
   0     10    11.813    79.467    0.48E-04    0.30E-04    0.67E-06
   0     10    11.813    66.151    0.47E-04    0.30E-04    0.67E-06
   1     10    11.813    20.169    0.11E-03    0.17E-03    0.11E-05
   1     10    11.813    14.454    0.11E-03    0.17E-03    0.11E-05
 Optimization of the real space projectors (new method)

 maximal supplied QI-value         = 25.13
 optimisation between [QCUT,QGAM] = [ 11.81, 23.88] = [ 39.08,159.64] Ry 
 Optimized for a Real-space Cutoff    1.18 Angstroem

   l    n(q)    QCUT    max X(q) W(low)/X(q) W(high)/X(q)  e(spline) 
   0      8    11.813   115.676    0.10E-03    0.16E-03    0.35E-06
   0      8    11.813    87.132    0.10E-03    0.16E-03    0.35E-06
   1      8    11.813     4.429    0.16E-03    0.13E-04    0.22E-06
   1      8    11.813     2.733    0.13E-03    0.10E-04    0.18E-06
 Optimization of the real space projectors (new method)

 maximal supplied QI-value         = 16.25
 optimisation between [QCUT,QGAM] = [ 11.86, 23.89] = [ 39.41,159.82] Ry 
 Optimized for a Real-space Cutoff    1.33 Angstroem

   l    n(q)    QCUT    max X(q) W(low)/X(q) W(high)/X(q)  e(spline) 
   1      9    11.864     3.262    0.48E-04    0.16E-03    0.14E-06
   1      9    11.864     5.741    0.74E-04    0.40E-03    0.35E-06
   2      9    11.864    60.438    0.17E-03    0.21E-03    0.26E-06
   2      9    11.864    55.380    0.17E-03    0.21E-03    0.27E-06
   0      9    11.864    80.273    0.40E-04    0.47E-04    0.12E-06
   0      9    11.864    36.654    0.35E-04    0.41E-04    0.11E-06
  PAW_PBE C 08Apr2002                   :
 energy of atom  1       EATOM= -147.1560
 kinetic energy error for atom=    0.0066 (will be added to EATOM!!)
  PAW_PBE N 08Apr2002                   :
 energy of atom  2       EATOM= -264.5486
 kinetic energy error for atom=    0.0116 (will be added to EATOM!!)
  PAW_PBE C 08Apr2002                   :
 energy of atom  3       EATOM= -147.1560
 kinetic energy error for atom=    0.0066 (will be added to EATOM!!)
  PAW_PBE Cr_pv 02Aug2007               :
 energy of atom  4       EATOM=-1647.9177
 kinetic energy error for atom=    0.0054 (will be added to EATOM!!)
 
 
 POSCAR: POSCAR-clean                            
  positions in cartesian coordinates
  No initial velocities read in
 exchange correlation table for  LEXCH =        8
   RHO(1)=    0.500       N(1)  =     2000
   RHO(2)=  100.500       N(2)  =     4000
 


--------------------------------------------------------------------------------------------------------


 ion  position               nearest neighbor table
   1  0.000  1.000  0.498-   2 1.42  60 1.42  70 1.43
   2  0.056  0.111  0.498-   1 1.42  13 1.42  15 1.43
   3  0.168  0.002  0.498-   4 1.42  62 1.43  60 1.43
   4  0.224  0.113  0.498-   3 1.42  15 1.42  17 1.44
   5  0.334  0.002  0.498-   6 1.42  62 1.43  64 1.43
   6  0.390  0.113  0.498-   5 1.42  19 1.42  17 1.44
   7  0.500  1.000  0.498-   8 1.42  64 1.42  66 1.43
   8  0.556  0.111  0.498-   7 1.42  21 1.42  19 1.43
   9  0.666  0.998  0.498-  10 1.42  66 1.42  68 1.44
  10  0.722  0.109  0.498-   9 1.42  23 1.43  21 1.43
  11  0.832  0.998  0.498-  12 1.42  70 1.42  68 1.44
  12  0.888  0.109  0.498-  11 1.42  23 1.43  13 1.43
  13  0.999  0.165  0.498-  14 1.42   2 1.42  12 1.43
  14  0.054  0.277  0.499-  13 1.42  25 1.42  27 1.43
  15  0.167  0.168  0.498-  16 1.42   4 1.42   2 1.43
  16  0.223  0.280  0.500-  15 1.42  27 1.43  29 1.44
  17  0.335  0.170  0.499-  18 1.42   4 1.44   6 1.44
  18  0.391  0.281  0.503-  17 1.42  31 1.44  29 1.44
  19  0.501  0.168  0.498-  20 1.42   6 1.42   8 1.43
  20  0.557  0.280  0.500-  19 1.42  33 1.43  31 1.44
  21  0.667  0.165  0.498-  22 1.42   8 1.42  10 1.43
  22  0.723  0.277  0.498-  21 1.42  35 1.42  33 1.43
  23  0.833  0.165  0.498-  24 1.42  10 1.43  12 1.43
  24  0.888  0.276  0.498-  23 1.42  25 1.42  35 1.43
  25  0.999  0.332  0.498-  14 1.42  26 1.42  24 1.42
  26  0.054  0.444  0.499-  39 1.42  37 1.42  25 1.42
  27  0.165  0.333  0.500-  28 1.42  16 1.43  14 1.43
  28  0.219  0.444  0.502-  41 1.41  27 1.42  39 1.42
  29  0.335  0.338  0.503-  30 1.41  18 1.44  16 1.44
  30  0.387  0.448  0.510-  41 1.41  29 1.41  71 2.00
  31  0.503  0.338  0.504-  32 1.41  18 1.44  20 1.44
  32  0.562  0.448  0.510-  43 1.41  31 1.41  71 2.00
  33  0.668  0.333  0.500-  34 1.42  20 1.43  22 1.43
  34  0.725  0.444  0.501-  43 1.41  33 1.42  45 1.42
  35  0.833  0.332  0.498-  22 1.42  36 1.42  24 1.43
  36  0.890  0.444  0.498-  45 1.42  37 1.42  35 1.42
  37  0.000  0.500  0.498-  36 1.42  26 1.42  38 1.42
  38  0.056  0.611  0.498-  47 1.42  49 1.42  37 1.42
  39  0.165  0.500  0.500-  26 1.42  28 1.42  40 1.42
  40  0.220  0.611  0.500-  49 1.42  51 1.42  39 1.42
  41  0.329  0.499  0.505-  30 1.41  28 1.41  42 1.44
  42  0.385  0.612  0.505-  53 1.41  51 1.41  41 1.44
  43  0.671  0.499  0.505-  32 1.41  34 1.41  44 1.44
  44  0.727  0.612  0.505-  55 1.41  57 1.41  43 1.44
  45  0.836  0.500  0.499-  36 1.42  34 1.42  46 1.42
  46  0.891  0.611  0.499-  47 1.42  57 1.42  45 1.42
  47  0.001  0.667  0.498-  46 1.42  38 1.42  48 1.42
  48  0.057  0.779  0.498-  59 1.42  47 1.42  61 1.43
  49  0.166  0.667  0.499-  40 1.42  38 1.42  50 1.42
  50  0.222  0.779  0.498-  63 1.42  49 1.42  61 1.42
  51  0.331  0.667  0.502-  42 1.41  52 1.42  40 1.42
  52  0.388  0.778  0.500-  51 1.42  65 1.43  63 1.43
  53  0.494  0.663  0.510-  42 1.41  54 1.41  71 2.00
  54  0.553  0.773  0.503-  53 1.41  67 1.44  65 1.44
  55  0.669  0.663  0.510-  44 1.41  56 1.41  71 2.00
  56  0.721  0.773  0.504-  55 1.41  67 1.44  69 1.44
  57  0.837  0.667  0.501-  44 1.41  58 1.42  46 1.42
  58  0.891  0.778  0.500-  57 1.42  69 1.42  59 1.43
  59  0.002  0.835  0.498-  60 1.42  48 1.42  58 1.43
  60  0.057  0.946  0.498-  59 1.42   1 1.42   3 1.43
  61  0.168  0.835  0.498-  62 1.42  50 1.42  48 1.43
  62  0.223  0.946  0.498-  61 1.42   3 1.43   5 1.43
  63  0.333  0.835  0.499-  64 1.42  50 1.42  52 1.43
  64  0.389  0.946  0.498-  63 1.42   7 1.42   5 1.43
  65  0.499  0.832  0.500-  66 1.42  52 1.43  54 1.44
  66  0.555  0.943  0.498-  65 1.42   9 1.42   7 1.43
  67  0.665  0.830  0.503-  68 1.42  56 1.44  54 1.44
  68  0.721  0.941  0.499-  67 1.42   9 1.44  11 1.44
  69  0.833  0.832  0.500-  70 1.42  58 1.42  56 1.44
  70  0.889  0.943  0.498-  69 1.42  11 1.42   1 1.43
  71  0.528  0.556  0.554-  55 2.00  32 2.00  53 2.00  30 2.00
 

IMPORTANT INFORMATION: All symmetrisations will be switched off!
NOSYMM: (Re-)initialisation of all symmetry stuff for point group C_1.

 
 
 KPOINTS: K-Points                                

Automatic generation of k-mesh.
Space group operators:
 irot       det(A)        alpha          n_x          n_y          n_z        tau_x        tau_y        tau_z
    1     1.000000     0.000000     1.000000     0.000000     0.000000     0.000000     0.000000     0.000000
 
 Subroutine IBZKPT returns following result:
 ===========================================
 
 Found      4 irreducible k-points:
 
 Following reciprocal coordinates:
            Coordinates               Weight
  0.000000  0.000000  0.000000      1.000000
  0.500000  0.000000  0.000000      1.000000
 -0.000000  0.500000  0.000000      1.000000
  0.500000  0.500000  0.000000      1.000000
 
 Following cartesian coordinates:
            Coordinates               Weight
  0.000000  0.000000  0.000000      1.000000
  0.033606  0.019589  0.000000      1.000000
 -0.000000  0.039178  0.000000      1.000000
  0.033606  0.058767  0.000000      1.000000
 


--------------------------------------------------------------------------------------------------------




 Dimension of arrays:
   k-points           NKPTS =      4   k-points in BZ     NKDIM =      4   number of bands    NBANDS=    184
   number of dos      NEDOS =    301   number of ions     NIONS =     71
   non local maximal  LDIM  =      6   non local SUM 2l+1 LMDIM =     18
   total plane-waves  NPLWV = ******
   max r-space proj   IRMAX =   7110   max aug-charges    IRDMAX=  21308
   dimension x,y,z NGX =   120 NGY =  120 NGZ =  120
   dimension x,y,z NGXF=   240 NGYF=  240 NGZF=  240
   support grid    NGXF=   240 NGYF=  240 NGZF=  240
   ions per type =              48   1  21   1
   NGX,Y,Z   is equivalent  to a cutoff of  13.41, 13.50, 13.30 a.u.
   NGXF,Y,Z  is equivalent  to a cutoff of  26.82, 27.01, 26.60 a.u.

 SYSTEM =  unknown system                          
 POSCAR =  POSCAR-clean                            

 Startparameter for this run:
   NWRITE =      2    write-flag & timer
   PREC   = accura    normal or accurate (medium, high low for compatibility)
   ISTART =      0    job   : 0-new  1-cont  2-samecut
   ICHARG =      2    charge: 1-file 2-atom 10-const
   ISPIN  =      2    spin polarized calculation?
   LNONCOLLINEAR =      F non collinear calculations
   LSORBIT =      F    spin-orbit coupling
   INIWAV =      1    electr: 0-lowe 1-rand  2-diag
   LASPH  =      F    aspherical Exc in radial PAW
   METAGGA=      F    non-selfconsistent MetaGGA calc.

 Electronic Relaxation 1
   ENCUT  =  550.0 eV  40.42 Ry    6.36 a.u.  28.45 28.25 28.68*2*pi/ulx,y,z
   ENINI  =  550.0     initial cutoff
   ENAUG  =  644.9 eV  augmentation charge cutoff
   NELM   =     50;   NELMIN=  2; NELMDL= -5     # of ELM steps 
   EDIFF  = 0.1E-04   stopping-criterion for ELM
   LREAL  =      T    real-space projection
   NLSPLINE    = F    spline interpolate recip. space projectors
   LCOMPAT=      F    compatible to vasp.4.4
   GGA_COMPAT  = T    GGA compatible to vasp.4.4-vasp.4.6
   LMAXPAW     = -100 max onsite density
   LMAXMIX     =    2 max onsite mixed and CHGCAR
   VOSKOWN=      0    Vosko Wilk Nusair interpolation
   ROPT   =   -0.00025  -0.00025  -0.00025  -0.00025
 Ionic relaxation
   EDIFFG = -.5E-01   stopping-criterion for IOM
   NSW    =    400    number of steps for IOM
   NBLOCK =      1;   KBLOCK =    400    inner block; outer block 
   IBRION =      2    ionic relax: 0-MD 1-quasi-New 2-CG
   NFREE  =      1    steps in history (QN), initial steepest desc. (CG)
   ISIF   =      3    stress and relaxation
   IWAVPR =     11    prediction:  0-non 1-charg 2-wave 3-comb
   ISYM   =      0    0-nonsym 1-usesym 2-fastsym
   LCORR  =      T    Harris-Foulkes like correction to forces

   POTIM  = 0.3000    time-step for ionic-motion
   TEIN   =    0.0    initial temperature
   TEBEG  =    0.0;   TEEND  =   0.0 temperature during run
   SMASS  =  -3.00    Nose mass-parameter (am)
   estimated Nose-frequenzy (Omega)   =  0.10E-29 period in steps =****** mass=  -0.506E-26a.u.
   SCALEE = 1.0000    scale energy and forces
   NPACO  =    256;   APACO  = 16.0  distance and # of slots for P.C.
   PSTRESS=    0.0 pullay stress

  Mass of Ions in am
   POMASS =  12.01 14.00 12.01 52.00
  Ionic Valenz
   ZVAL   =   4.00  5.00  4.00 12.00
  Atomic Wigner-Seitz radii
   RWIGS  =  -1.00 -1.00 -1.00 -1.00
  virtual crystal weights 
   VCA    =   1.00  1.00  1.00  1.00
   NELECT =     293.0000    total number of electrons
   NUPDOWN=      -1.0000    fix difference up-down

 DOS related values:
   EMIN   =  10.00;   EMAX   =-10.00  energy-range for DOS
   EFERMI =   0.00
   ISMEAR =     0;   SIGMA  =   0.10  broadening in eV -4-tet -1-fermi 0-gaus

 Electronic relaxation 2 (details)
   IALGO  =     68    algorithm
   LDIAG  =      T    sub-space diagonalisation (order eigenvalues)
   LSUBROT=      F    optimize rotation matrix (better conditioning)
   TURBO    =      0    0=normal 1=particle mesh
   IRESTART =      0    0=no restart 2=restart with 2 vectors
   NREBOOT  =      0    no. of reboots
   NMIN     =      0    reboot dimension
   EREF     =   0.00    reference energy to select bands
   IMIX   =      4    mixing-type and parameters
     AMIX     =   0.40;   BMIX     =  1.00
     AMIX_MAG =   1.60;   BMIX_MAG =  1.00
     AMIN     =   0.10
     WC   =   100.;   INIMIX=   1;  MIXPRE=   1;  MAXMIX= -45

 Intra band minimization:
   WEIMIN = 0.0010     energy-eigenvalue tresh-hold
   EBREAK =  0.14E-07  absolut break condition
   DEPER  =   0.30     relativ break condition  

   TIME   =   0.40     timestep for ELM

  volume/ion in A,a.u.               =      40.12       270.71
  Fermi-wavevector in a.u.,A,eV,Ry     =   0.767079  1.449569  8.005805  0.588410
  Thomas-Fermi vector in A             =   1.867557
 
 Write flags
   LWAVE        =      F    write WAVECAR
   LDOWNSAMPLE  =      F    k-point downsampling of WAVECAR
   LCHARG       =      F    write CHGCAR
   LVTOT        =      F    write LOCPOT, total local potential
   LVHAR        =      F    write LOCPOT, Hartree potential only
   LELF         =      F    write electronic localiz. function (ELF)
   LORBIT       =      0    0 simple, 1 ext, 2 COOP (PROOUT), +10 PAW based schemes


 Dipole corrections
   LMONO  =      F    monopole corrections only (constant potential shift)
   LDIPOL =      F    correct potential (dipole corrections)
   IDIPOL =      0    1-x, 2-y, 3-z, 4-all directions 
   EPSILON=  1.0000000 bulk dielectric constant

 Exchange correlation treatment:
   GGA     =    --    GGA type
   LEXCH   =     8    internal setting for exchange type
   VOSKOWN=      0    Vosko Wilk Nusair interpolation
   LHFCALC =     F    Hartree Fock is set to
   LHFONE  =     F    Hartree Fock one center treatment
   AEXX    =    0.0000 exact exchange contribution

 Linear response parameters
   LEPSILON=     F    determine dielectric tensor
   LRPA    =     F    only Hartree local field effects (RPA)
   LNABLA  =     F    use nabla operator in PAW spheres
   LVEL    =     F    velocity operator in full k-point grid
   LINTERFAST=   F  fast interpolation
   KINTER  =     0    interpolate to denser k-point grid
   CSHIFT  =0.1000    complex shift for real part using Kramers Kronig
   OMEGAMAX=  -1.0    maximum frequency
   DEG_THRESHOLD= 0.2000000E-02 threshold for treating states as degnerate
   RTIME   =   -0.100 relaxation time in fs
  (WPLASMAI=    0.000 imaginary part of plasma frequency in eV, 0.658/RTIME)
   DFIELD  = 0.0000000 0.0000000 0.0000000 field for delta impulse in time
 
 Orbital magnetization related:
   ORBITALMAG=     F  switch on orbital magnetization
   LCHIMAG   =     F  perturbation theory with respect to B field
   DQ        =  0.001000  dq finite difference perturbation B field
   LLRAUG    =     F  two centre corrections for induced B field



--------------------------------------------------------------------------------------------------------


 conjugate gradient relaxation of ions
 charge density and potential will be updated during run
 spin polarized calculation
 RMM-DIIS sequential band-by-band and
  variant of blocked Davidson during initial phase
 perform sub-space diagonalisation
    before iterative eigenvector-optimisation
 modified Broyden-mixing scheme, WC =      100.0
 initial mixing is a Kerker type mixing with AMIX =  0.4000 and BMIX =      1.0000
 Hartree-type preconditioning will be used
 using additional bands           37
 real space projection scheme for non local part
 use partial core corrections
 calculate Harris-corrections to forces 
   (improved forces if not selfconsistent)
 use gradient corrections 
 use of overlap-Matrix (Vanderbilt PP)
 Gauss-broadening in eV      SIGMA  =   0.10


--------------------------------------------------------------------------------------------------------


  energy-cutoff  :      550.00
  volume of cell :     2848.21
      direct lattice vectors                 reciprocal lattice vectors
    14.878307727  0.000105424  0.000000000     0.067211667  0.039178051  0.000000000
    -7.439153864 12.762195204  0.000000000    -0.000000555  0.078356102  0.000000000
     0.000000000  0.000000000 15.000000000     0.000000000  0.000000000  0.066666667

  length of vectors
    14.878307728 14.772089786 15.000000000     0.077796709  0.078356102  0.066666667


 
 k-points in units of 2pi/SCALE and weight: K-Points                                
   0.00000000  0.00000000  0.00000000       0.250
   0.03360583  0.01958903  0.00000000       0.250
  -0.00000028  0.03917805  0.00000000       0.250
   0.03360556  0.05876708  0.00000000       0.250
 
 k-points in reciprocal lattice and weights: K-Points                                
   0.00000000  0.00000000  0.00000000       0.250
   0.50000000  0.00000000  0.00000000       0.250
  -0.00000000  0.50000000  0.00000000       0.250
   0.50000000  0.50000000  0.00000000       0.250
 
 position of ions in fractional coordinates (direct lattice) 
   0.00014703  0.99993181  0.49766807
   0.05571316  0.11129367  0.49774774
   0.16803225  0.00210520  0.49753985
   0.22355821  0.11343998  0.49825115
   0.33432830  0.00207694  0.49777234
   0.39014706  0.11341551  0.49841838
   0.50002407  0.99989044  0.49775648
   0.55582710  0.11125266  0.49767590
   0.66571506  0.99774295  0.49825147
   0.72152612  0.10907882  0.49753824
   0.83231512  0.99776674  0.49841003
   0.88783929  0.10910686  0.49776801
   0.99908442  0.16549374  0.49784405
   0.05430809  0.27667161  0.49853746
   0.16734775  0.16806595  0.49834347
   0.22284185  0.27957445  0.49997583
   0.33528932  0.17029644  0.49941211
   0.39084341  0.28141813  0.50254970
   0.50097822  0.16802960  0.49842000
   0.55697129  0.27954076  0.49998817
   0.66664919  0.16545038  0.49752014
   0.72257294  0.27663324  0.49802908
   0.83255361  0.16485921  0.49764969
   0.88821716  0.27620991  0.49780056
   0.99906908  0.33222521  0.49838447
   0.05442247  0.44382388  0.49884723
   0.16531768  0.33288444  0.50001215
   0.21898612  0.44382270  0.50165224
   0.33514858  0.33773328  0.50339031
   0.38694525  0.44827387  0.50958670
   0.50284791  0.33770682  0.50360105
   0.56160602  0.44823797  0.50998391
   0.66778145  0.33285443  0.49963749
   0.72504010  0.44380782  0.50114295
   0.83335701  0.33221195  0.49791518
   0.88957865  0.44380677  0.49825237
   0.00003314  0.49990030  0.49835048
   0.05573614  0.61130743  0.49834565
   0.16452790  0.49985599  0.50032235
   0.22027264  0.61134265  0.50031499
   0.32877881  0.49923631  0.50514604
   0.38513300  0.61194665  0.50514739
   0.67071104  0.49923365  0.50517220
   0.72707059  0.61195035  0.50517224
   0.83551700  0.49986026  0.49948453
   0.89125350  0.61133457  0.49948422
   0.00136430  0.66739252  0.49824937
   0.05673614  0.77898562  0.49790902
   0.16620335  0.66738054  0.49883406
   0.22244721  0.77897560  0.49837060
   0.33076298  0.66736579  0.50164604
   0.38803591  0.77830247  0.50000539
   0.49425975  0.66291375  0.50958718
   0.55300964  0.77344715  0.50338828
   0.66896610  0.66295341  0.50998288
   0.72073432  0.77348097  0.50359479
   0.83682433  0.66738081  0.50114212
   0.89051054  0.77833045  0.49963539
   0.00151950  0.83455528  0.49802741
   0.05677874  0.94573836  0.49751926
   0.16759972  0.83498348  0.49779087
   0.22328727  0.94632847  0.49764984
   0.33324173  0.83452222  0.49853136
   0.38919606  0.94569806  0.49784785
   0.49886656  0.83160652  0.49997424
   0.55488261  0.94311446  0.49834783
   0.66501623  0.82976534  0.50254304
   0.72058356  0.94088512  0.49940688
   0.83301728  0.83164625  0.49998031
   0.88852543  0.94315192  0.49840894
   0.52788678  0.55561308  0.55407295
 
 position of ions in cartesian coordinates  (Angst):
  -7.43645893 12.76132490  7.46502101
   0.00098677  1.42035737  7.46621609
   2.48437460  0.02688469  7.46309769
   2.48227038  1.44776676  7.47376727
   4.95878870  0.02654158  7.46658504
   4.96101252  1.44747206  7.47627575
   0.00117320 12.76084966  7.46634727
   7.44214093  1.41988678  7.46513856
   2.48235028 12.73346045  7.47377203
   9.92363354  1.39216125  7.46307356
   4.96090025 12.73378160  7.47615045
  12.39788345  1.39253665  7.46652020
  13.63355202  2.11216869  7.46766080
  -1.25019027  3.53094287  7.47806186
   1.23958287  2.14490807  7.47515208
   1.23571236  3.56800714  7.49963746
   3.72167632  2.17339173  7.49118168
   3.72157576  3.59155433  7.53824552
   6.20371007  2.14447940  7.47630003
   6.20724356  3.56761241  7.49982262
   8.68780104  2.11158030  7.46280215
   8.69274532  3.53052356  7.47043619
  11.16057575  2.10405319  7.46474541
  11.16040021  3.52513843  7.46700843
  12.39298273  4.24002833  7.47576708
  -2.49195986  5.66417272  7.48270852
  -0.01673121  4.24835367  7.50018218
  -0.04352248  5.66417505  7.52478359
   2.47399392  4.31025334  7.55085470
   2.42231217  5.72099937  7.64380057
   4.96927299  4.30993342  7.55401582
   5.02123589  5.72055973  7.64975858
   7.45930259  4.24802358  7.49456242
   7.48581505  5.66403852  7.51714419
   9.92756627  4.23984160  7.46872767
   9.93387816  5.66404236  7.47378561
  -3.71834223  6.37982525  7.47525727
  -3.71835051  7.80163060  7.47518475
  -1.27060894  6.37927707  7.50483528
  -1.27058799  7.80209747  7.50472492
   1.17777658  6.37138591  7.57719062
   1.17776199  7.80982318  7.57721079
   6.26516932  6.37138797  7.57758296
   6.26518706  7.80990654  7.57758361
   8.71254167  6.37940228  7.49226792
   8.71253189  7.80206507  7.49226324
  -4.94453714  8.51739379  7.47374059
  -4.95085604  9.94157246  7.46863529
  -2.49192199  8.51725823  7.48251084
  -2.48528121  9.94146208  7.47555906
  -0.04344336  8.51708741  7.52469062
  -0.01659412  9.93288892  7.50008080
   2.42223119  8.46028680  7.64380763
   2.47405524  9.87094181  7.55082413
   5.02127100  8.46081135  7.64974323
   4.96926315  9.87139105  7.55392179
   7.48578134  8.51733237  7.51713176
   7.45916989  9.93329897  7.49453080
  -6.18577746 10.65075751  7.47041111
  -6.19072161 12.06970350  7.46278894
  -3.71797037 10.65623981  7.46686302
  -3.71774635 12.07725221  7.46474766
  -1.25006613 10.65037063  7.47797042
  -1.24461459 12.06922431  7.46771775
   1.23584141 10.61317732  7.49961357
   1.23974067 12.03626939  7.47521740
   3.72156413 10.58969736  7.53814562
   3.72167477 12.00783549  7.49110317
   6.20714301 10.61371955  7.49970466
   6.20350242 12.03678263  7.47613410
   3.72077071  7.09089829  8.31109430
 


--------------------------------------------------------------------------------------------------------


 k-point  1 :   0.0000 0.0000 0.0000  plane waves:   83445
 k-point  2 :   0.5000 0.0000 0.0000  plane waves:   83448
 k-point  3 :  -0.0000 0.5000 0.0000  plane waves:   83436
 k-point  4 :   0.5000 0.5000 0.0000  plane waves:   83444

 maximum and minimum number of plane-waves per node :      6984     6935

 maximum number of plane-waves:     83448
 maximum index in each direction: 
   IXMAX=   28   IYMAX=   28   IZMAX=   28
   IXMIN=  -28   IYMIN=  -28   IZMIN=  -28


 real space projection operators:
  total allocation   :      18578.36 KBytes
  max/ min on nodes  :       1558.11       1535.03


 parallel 3D FFT for wavefunctions:
    minimum data exchange during FFTs selected (reduces bandwidth)
 parallel 3D FFT for charge:
    minimum data exchange during FFTs selected (reduces bandwidth)


 total amount of memory used by VASP MPI-rank0   135424. kBytes
=======================================================================

   base      :      30000. kBytes
   nonlr-proj:      10435. kBytes
   fftplans  :      14072. kBytes
   grid      :      39398. kBytes
   one-center:        186. kBytes
   wavefun   :      41333. kBytes
 
     INWAV:  cpu time    0.0000: real time    0.0001
 Broyden mixing: mesh for mixing (old mesh)
   NGX = 57   NGY = 57   NGZ = 57
  (NGX  =240   NGY  =240   NGZ  =240)
  gives a total of 185193 points

 initial charge density was supplied:
 charge density of overlapping atoms calculated
 number of electron     293.0000000 magnetization       1.0000000
 keeping initial charge density in first step


--------------------------------------------------------------------------------------------------------


 Maximum index for non-local projection operator          603
 Maximum index for augmentation-charges          402 (set IRDMAX)


--------------------------------------------------------------------------------------------------------


 First call to EWALD:  gamma=   0.125
 Maximum number of real-space cells 3x 3x 3
 Maximum number of reciprocal cells 3x 3x 3

    FEWALD:  cpu time    0.0046: real time    0.0048


--------------------------------------- Iteration      1(   1)  ---------------------------------------


    POTLOK:  cpu time    0.5371: real time    0.5612
    SETDIJ:  cpu time    0.0162: real time    0.0213
     EDDAV:  cpu time   16.6928: real time   16.8618
       DOS:  cpu time    0.0014: real time    0.0018
    --------------------------------------------
      LOOP:  cpu time   17.2475: real time   17.4462

 eigenvalue-minimisations  :  3248
 total energy-change (2. order) : 0.2743753E+04  (-0.1173101E+05)
 number of electron     293.0000000 magnetization       1.0000000
 augmentation part      293.0000000 magnetization       1.0000000

 Free energy of the ion-electron system (eV)
  ---------------------------------------------------
  alpha Z        PSCENC =       156.95040625
  Ewald energy   TEWEN  =     30377.16019688
  -Hartree energ DENC   =    -39543.18911778
  -exchange      EXHF   =         0.00000000
  -V(xc)+E(xc)   XCENC  =       982.54372745
  PAW double counting   =      9000.30529238    -9089.18527416
  entropy T*S    EENTRO =        -0.11728022
  eigenvalues    EBANDS =     -1206.47314904
  atomic energy  EATOM  =     12065.75791449
  Solvation  Ediel_sol  =         0.00000000
  ---------------------------------------------------
  free energy    TOTEN  =      2743.75271625 eV

  energy without entropy =     2743.86999647  energy(sigma->0) =     2743.81135636


--------------------------------------------------------------------------------------------------------




--------------------------------------- Iteration      1(   2)  ---------------------------------------


     EDDAV:  cpu time   21.5479: real time   21.8680
       DOS:  cpu time    0.0009: real time    0.0009
    --------------------------------------------
      LOOP:  cpu time   21.5488: real time   21.8689

 eigenvalue-minimisations  :  4304
 total energy-change (2. order) :-0.2915010E+04  (-0.2785020E+04)
 number of electron     293.0000000 magnetization       1.0000000
 augmentation part      293.0000000 magnetization       1.0000000

 Free energy of the ion-electron system (eV)
  ---------------------------------------------------
  alpha Z        PSCENC =       156.95040625
  Ewald energy   TEWEN  =     30377.16019688
  -Hartree energ DENC   =    -39543.18911778
  -exchange      EXHF   =         0.00000000
  -V(xc)+E(xc)   XCENC  =       982.54372745
  PAW double counting   =      9000.30529238    -9089.18527416
  entropy T*S    EENTRO =        -0.03941119
  eigenvalues    EBANDS =     -4121.56146405
  atomic energy  EATOM  =     12065.75791449
  Solvation  Ediel_sol  =         0.00000000
  ---------------------------------------------------
  free energy    TOTEN  =      -171.25772972 eV

  energy without entropy =     -171.21831854  energy(sigma->0) =     -171.23802413


--------------------------------------------------------------------------------------------------------




--------------------------------------- Iteration      1(   3)  ---------------------------------------


     EDDAV:  cpu time   18.4869: real time   18.6877
       DOS:  cpu time    0.0009: real time    0.0009
    --------------------------------------------
      LOOP:  cpu time   18.4878: real time   18.6886

 eigenvalue-minimisations  :  3560
 total energy-change (2. order) :-0.5129478E+03  (-0.5098937E+03)
 number of electron     293.0000000 magnetization       1.0000000
 augmentation part      293.0000000 magnetization       1.0000000

 Free energy of the ion-electron system (eV)
  ---------------------------------------------------
  alpha Z        PSCENC =       156.95040625
  Ewald energy   TEWEN  =     30377.16019688
  -Hartree energ DENC   =    -39543.18911778
  -exchange      EXHF   =         0.00000000
  -V(xc)+E(xc)   XCENC  =       982.54372745
  PAW double counting   =      9000.30529238    -9089.18527416
  entropy T*S    EENTRO =        -0.03412757
  eigenvalues    EBANDS =     -4634.51452435
  atomic energy  EATOM  =     12065.75791449
  Solvation  Ediel_sol  =         0.00000000
  ---------------------------------------------------
  free energy    TOTEN  =      -684.20550640 eV

  energy without entropy =     -684.17137883  energy(sigma->0) =     -684.18844262


--------------------------------------------------------------------------------------------------------




--------------------------------------- Iteration      1(   4)  ---------------------------------------


     EDDAV:  cpu time   18.4428: real time   18.6695
       DOS:  cpu time    0.0009: real time    0.0009
    --------------------------------------------
      LOOP:  cpu time   18.4437: real time   18.6705

 eigenvalue-minimisations  :  3560
 total energy-change (2. order) :-0.1952036E+02  (-0.1936949E+02)
 number of electron     293.0000000 magnetization       1.0000000
 augmentation part      293.0000000 magnetization       1.0000000

 Free energy of the ion-electron system (eV)
  ---------------------------------------------------
  alpha Z        PSCENC =       156.95040625
  Ewald energy   TEWEN  =     30377.16019688
  -Hartree energ DENC   =    -39543.18911778
  -exchange      EXHF   =         0.00000000
  -V(xc)+E(xc)   XCENC  =       982.54372745
  PAW double counting   =      9000.30529238    -9089.18527416
  entropy T*S    EENTRO =        -0.03795915
  eigenvalues    EBANDS =     -4654.03105743
  atomic energy  EATOM  =     12065.75791449
  Solvation  Ediel_sol  =         0.00000000
  ---------------------------------------------------
  free energy    TOTEN  =      -703.72587107 eV

  energy without entropy =     -703.68791192  energy(sigma->0) =     -703.70689149


--------------------------------------------------------------------------------------------------------




--------------------------------------- Iteration      1(   5)  ---------------------------------------


     EDDAV:  cpu time   20.2834: real time   20.5372
       DOS:  cpu time    0.0010: real time    0.0012
    CHARGE:  cpu time    0.9834: real time    0.9983
    MIXING:  cpu time    0.0113: real time    0.0139
    --------------------------------------------
      LOOP:  cpu time   21.2791: real time   21.5506

 eigenvalue-minimisations  :  4056
 total energy-change (2. order) :-0.6227760E+00  (-0.6208503E+00)
 number of electron     292.9999998 magnetization       0.7753556
 augmentation part       11.6654555 magnetization       0.7588071

 Broyden mixing:
  rms(total) = 0.46540E+01    rms(broyden)= 0.46537E+01
  rms(prec ) = 0.54186E+01
  weight for this iteration     100.00

 Free energy of the ion-electron system (eV)
  ---------------------------------------------------
  alpha Z        PSCENC =       156.95040625
  Ewald energy   TEWEN  =     30377.16019688
  -Hartree energ DENC   =    -39543.18911778
  -exchange      EXHF   =         0.00000000
  -V(xc)+E(xc)   XCENC  =       982.54372745
  PAW double counting   =      9000.30529238    -9089.18527416
  entropy T*S    EENTRO =        -0.03818483
  eigenvalues    EBANDS =     -4654.65360778
  atomic energy  EATOM  =     12065.75791449
  Solvation  Ediel_sol  =         0.00000000
  ---------------------------------------------------
  free energy    TOTEN  =      -704.34864710 eV

  energy without entropy =     -704.31046227  energy(sigma->0) =     -704.32955468


--------------------------------------------------------------------------------------------------------




--------------------------------------- Iteration      1(   6)  ---------------------------------------


    POTLOK:  cpu time    0.5545: real time    0.5664
    SETDIJ:  cpu time    0.0145: real time    0.0145
    EDDIAG:  cpu time    3.2263: real time    3.2687
  RMM-DIIS:  cpu time   17.7215: real time   17.8763
    ORTHCH:  cpu time    0.2951: real time    0.2964
       DOS:  cpu time    0.0011: real time    0.0011
    CHARGE:  cpu time    0.9908: real time    1.0089
    MIXING:  cpu time    0.0105: real time    0.0116
    --------------------------------------------
      LOOP:  cpu time   22.8142: real time   23.0439

 eigenvalue-minimisations  :  4106
 total energy-change (2. order) :-0.2786007E+02  (-0.5338058E+02)
 number of electron     293.0000008 magnetization       0.7215566
 augmentation part       17.3585533 magnetization       0.8909221

 Broyden mixing:
  rms(total) = 0.84002E+01    rms(broyden)= 0.84001E+01
  rms(prec ) = 0.92830E+01
  weight for this iteration     100.00

 eigenvalues of (default mixing * dielectric matrix)
  average eigenvalue GAMMA=   0.2158
  0.2158

 Free energy of the ion-electron system (eV)
  ---------------------------------------------------
  alpha Z        PSCENC =       156.95040625
  Ewald energy   TEWEN  =     30377.16019688
  -Hartree energ DENC   =    -39835.22861076
  -exchange      EXHF   =         0.00000000
  -V(xc)+E(xc)   XCENC  =       996.32197020
  PAW double counting   =     15150.27910350   -15238.99083829
  entropy T*S    EENTRO =        -0.05576013
  eigenvalues    EBANDS =     -4404.40310135
  atomic energy  EATOM  =     12065.75791449
  Solvation  Ediel_sol  =         0.00000000
  ---------------------------------------------------
  free energy    TOTEN  =      -732.20871921 eV

  energy without entropy =     -732.15295908  energy(sigma->0) =     -732.18083915


--------------------------------------------------------------------------------------------------------




--------------------------------------- Iteration      1(   7)  ---------------------------------------


    POTLOK:  cpu time    0.5331: real time    0.5417
    SETDIJ:  cpu time    0.0144: real time    0.0146
    EDDIAG:  cpu time    3.2145: real time    3.2460
  RMM-DIIS:  cpu time   13.1848: real time   13.3005
    ORTHCH:  cpu time    0.3193: real time    0.3326
       DOS:  cpu time    0.0009: real time    0.0009
    CHARGE:  cpu time    0.9941: real time    1.0092
    MIXING:  cpu time    0.0096: real time    0.0106
    --------------------------------------------
      LOOP:  cpu time   18.2705: real time   18.4560

 eigenvalue-minimisations  :  3035
 total energy-change (2. order) : 0.6988263E+02  (-0.5578663E+01)
 number of electron     293.0000005 magnetization       0.6176801
 augmentation part       15.2695691 magnetization       0.6226112

 Broyden mixing:
  rms(total) = 0.32029E+01    rms(broyden)= 0.32028E+01
  rms(prec ) = 0.38528E+01
  weight for this iteration     100.00

 eigenvalues of (default mixing * dielectric matrix)
  average eigenvalue GAMMA=   0.4644
  0.4644  0.4644

 Free energy of the ion-electron system (eV)
  ---------------------------------------------------
  alpha Z        PSCENC =       156.95040625
  Ewald energy   TEWEN  =     30377.16019688
  -Hartree energ DENC   =    -39957.12228832
  -exchange      EXHF   =         0.00000000
  -V(xc)+E(xc)   XCENC  =      1000.86774401
  PAW double counting   =     16736.48041432   -16832.01134526
  entropy T*S    EENTRO =        -0.00010120
  eigenvalues    EBANDS =     -4210.40903530
  atomic energy  EATOM  =     12065.75791449
  Solvation  Ediel_sol  =         0.00000000
  ---------------------------------------------------
  free energy    TOTEN  =      -662.32609412 eV

  energy without entropy =     -662.32599293  energy(sigma->0) =     -662.32604352


--------------------------------------------------------------------------------------------------------




--------------------------------------- Iteration      1(   8)  ---------------------------------------


    POTLOK:  cpu time    0.5834: real time    0.5924
    SETDIJ:  cpu time    0.0205: real time    0.0206
    EDDIAG:  cpu time    3.2709: real time    3.3027
  RMM-DIIS:  cpu time   13.6404: real time   13.7501
    ORTHCH:  cpu time    0.3587: real time    0.3793
       DOS:  cpu time    0.0009: real time    0.0009
    CHARGE:  cpu time    0.9731: real time    0.9848
    MIXING:  cpu time    0.0113: real time    0.0115
    --------------------------------------------
      LOOP:  cpu time   18.8592: real time   19.0425

 eigenvalue-minimisations  :  3129
 total energy-change (2. order) :-0.3827057E-01  (-0.2168036E+01)
 number of electron     292.9999999 magnetization       0.3452321
 augmentation part       11.2327821 magnetization       0.3193398

 Broyden mixing:
  rms(total) = 0.28272E+01    rms(broyden)= 0.28270E+01
  rms(prec ) = 0.34700E+01
  weight for this iteration     100.00

 eigenvalues of (default mixing * dielectric matrix)
  average eigenvalue GAMMA=   0.8544
  1.8824  0.3404  0.3404

 Free energy of the ion-electron system (eV)
  ---------------------------------------------------
  alpha Z        PSCENC =       156.95040625
  Ewald energy   TEWEN  =     30377.16019688
  -Hartree energ DENC   =    -40137.56361054
  -exchange      EXHF   =         0.00000000
  -V(xc)+E(xc)   XCENC  =      1007.57630157
  PAW double counting   =     19638.76701409   -19738.30038733
  entropy T*S    EENTRO =        -0.02809801
  eigenvalues    EBANDS =     -4032.68410209
  atomic energy  EATOM  =     12065.75791449
  Solvation  Ediel_sol  =         0.00000000
  ---------------------------------------------------
  free energy    TOTEN  =      -662.36436470 eV

  energy without entropy =     -662.33626668  energy(sigma->0) =     -662.35031569


--------------------------------------------------------------------------------------------------------




--------------------------------------- Iteration      1(   9)  ---------------------------------------


    POTLOK:  cpu time    0.5273: real time    0.5324
    SETDIJ:  cpu time    0.0144: real time    0.0145
    EDDIAG:  cpu time    3.2166: real time    3.2410
  RMM-DIIS:  cpu time   12.8048: real time   12.8992
    ORTHCH:  cpu time    0.3344: real time    0.3360
       DOS:  cpu time    0.0009: real time    0.0009
    CHARGE:  cpu time    0.9704: real time    0.9809
    MIXING:  cpu time    0.0110: real time    0.0110
    --------------------------------------------
      LOOP:  cpu time   17.8799: real time   18.0160

 eigenvalue-minimisations  :  2971
 total energy-change (2. order) : 0.1519471E+02  (-0.1985295E+01)
 number of electron     293.0000002 magnetization       0.2590644
 augmentation part       12.1934421 magnetization       0.2740594

 Broyden mixing:
  rms(total) = 0.11504E+01    rms(broyden)= 0.11502E+01
  rms(prec ) = 0.12956E+01
  weight for this iteration     100.00

 eigenvalues of (default mixing * dielectric matrix)
  average eigenvalue GAMMA=   0.9139
  2.2160  0.7372  0.3513  0.3513

 Free energy of the ion-electron system (eV)
  ---------------------------------------------------
  alpha Z        PSCENC =       156.95040625
  Ewald energy   TEWEN  =     30377.16019688
  -Hartree energ DENC   =    -40442.41377469
  -exchange      EXHF   =         0.00000000
  -V(xc)+E(xc)   XCENC  =      1020.41176461
  PAW double counting   =     27813.67934067   -27915.98502916
  entropy T*S    EENTRO =        -0.00537304
  eigenvalues    EBANDS =     -3722.72509640
  atomic energy  EATOM  =     12065.75791449
  Solvation  Ediel_sol  =         0.00000000
  ---------------------------------------------------
  free energy    TOTEN  =      -647.16965039 eV

  energy without entropy =     -647.16427734  energy(sigma->0) =     -647.16696387


--------------------------------------------------------------------------------------------------------




--------------------------------------- Iteration      1(  10)  ---------------------------------------


    POTLOK:  cpu time    0.5234: real time    0.5290
    SETDIJ:  cpu time    0.0144: real time    0.0145
    EDDIAG:  cpu time    3.2184: real time    3.2472
  RMM-DIIS:  cpu time   13.0636: real time   13.1790
    ORTHCH:  cpu time    0.2987: real time    0.3083
       DOS:  cpu time    0.0010: real time    0.0010
    CHARGE:  cpu time    0.9994: real time    1.0100
    MIXING:  cpu time    0.0117: real time    0.0122
    --------------------------------------------
      LOOP:  cpu time   18.1305: real time   18.3012

 eigenvalue-minimisations  :  2995
 total energy-change (2. order) :-0.4270281E+00  (-0.3016166E+00)
 number of electron     293.0000005 magnetization       0.2042390
 augmentation part       13.7645219 magnetization       0.2276020

 Broyden mixing:
  rms(total) = 0.14423E+01    rms(broyden)= 0.14418E+01
  rms(prec ) = 0.17970E+01
  weight for this iteration     100.00

 eigenvalues of (default mixing * dielectric matrix)
  average eigenvalue GAMMA=   0.9202
  2.3404  1.0749  0.3479  0.3479  0.4901

 Free energy of the ion-electron system (eV)
  ---------------------------------------------------
  alpha Z        PSCENC =       156.95040625
  Ewald energy   TEWEN  =     30377.16019688
  -Hartree energ DENC   =    -40486.14668874
  -exchange      EXHF   =         0.00000000
  -V(xc)+E(xc)   XCENC  =      1021.35924650
  PAW double counting   =     29326.05780504   -29427.22542015
  entropy T*S    EENTRO =        -0.00224329
  eigenvalues    EBANDS =     -3681.50789547
  atomic energy  EATOM  =     12065.75791449
  Solvation  Ediel_sol  =         0.00000000
  ---------------------------------------------------
  free energy    TOTEN  =      -647.59667849 eV

  energy without entropy =     -647.59443520  energy(sigma->0) =     -647.59555685


--------------------------------------------------------------------------------------------------------




--------------------------------------- Iteration      1(  11)  ---------------------------------------


    POTLOK:  cpu time    0.5312: real time    0.5374
    SETDIJ:  cpu time    0.0144: real time    0.0144
    EDDIAG:  cpu time    3.1974: real time    3.2317
  RMM-DIIS:  cpu time   13.6151: real time   13.7242
    ORTHCH:  cpu time    0.4171: real time    0.4190
       DOS:  cpu time    0.0009: real time    0.0009
    CHARGE:  cpu time    0.9697: real time    0.9810
    MIXING:  cpu time    0.0124: real time    0.0124
    --------------------------------------------
      LOOP:  cpu time   18.7581: real time   18.9210

 eigenvalue-minimisations  :  3114
 total energy-change (2. order) : 0.1016089E+01  (-0.4082280E-01)
 number of electron     293.0000003 magnetization       0.1377982
 augmentation part       12.5298639 magnetization       0.1170310

 Broyden mixing:
  rms(total) = 0.76817E+00    rms(broyden)= 0.76760E+00
  rms(prec ) = 0.81941E+00
  weight for this iteration     100.00

 eigenvalues of (default mixing * dielectric matrix)
  average eigenvalue GAMMA=   0.9736
  2.0669  2.0669  0.6572  0.3456  0.3456  0.3592

 Free energy of the ion-electron system (eV)
  ---------------------------------------------------
  alpha Z        PSCENC =       156.95040625
  Ewald energy   TEWEN  =     30377.16019688
  -Hartree energ DENC   =    -40519.62024202
  -exchange      EXHF   =         0.00000000
  -V(xc)+E(xc)   XCENC  =      1021.80301973
  PAW double counting   =     29993.10765625   -30093.60859630
  entropy T*S    EENTRO =        -0.02889515
  eigenvalues    EBANDS =     -3648.10204926
  atomic energy  EATOM  =     12065.75791449
  Solvation  Ediel_sol  =         0.00000000
  ---------------------------------------------------
  free energy    TOTEN  =      -646.58058913 eV

  energy without entropy =     -646.55169398  energy(sigma->0) =     -646.56614155


--------------------------------------------------------------------------------------------------------




--------------------------------------- Iteration      1(  12)  ---------------------------------------


    POTLOK:  cpu time    0.5950: real time    0.6002
    SETDIJ:  cpu time    0.0131: real time    0.0131
    EDDIAG:  cpu time    3.2267: real time    3.2529
  RMM-DIIS:  cpu time   12.7969: real time   12.8946
    ORTHCH:  cpu time    0.4068: real time    0.4083
       DOS:  cpu time    0.0010: real time    0.0010
    CHARGE:  cpu time    0.9718: real time    0.9819
    MIXING:  cpu time    0.0125: real time    0.0127
    --------------------------------------------
      LOOP:  cpu time   18.0237: real time   18.1647

 eigenvalue-minimisations  :  2944
 total energy-change (2. order) : 0.1538344E+00  (-0.1587179E-01)
 number of electron     293.0000003 magnetization       0.1577580
 augmentation part       12.8598235 magnetization      -0.1803811

 Broyden mixing:
  rms(total) = 0.60953E+00    rms(broyden)= 0.60929E+00
  rms(prec ) = 0.62615E+00
  weight for this iteration     100.00

 eigenvalues of (default mixing * dielectric matrix)
  average eigenvalue GAMMA=   0.8642
  2.1205  2.1205  0.5728  0.3470  0.3470  0.3659  0.1754

 Free energy of the ion-electron system (eV)
  ---------------------------------------------------
  alpha Z        PSCENC =       156.95040625
  Ewald energy   TEWEN  =     30377.16019688
  -Hartree energ DENC   =    -40546.14081040
  -exchange      EXHF   =         0.00000000
  -V(xc)+E(xc)   XCENC  =      1021.39890094
  PAW double counting   =     30442.91460599   -30541.89007095
  entropy T*S    EENTRO =        -0.05567358
  eigenvalues    EBANDS =     -3622.52222433
  atomic energy  EATOM  =     12065.75791449
  Solvation  Ediel_sol  =         0.00000000
  ---------------------------------------------------
  free energy    TOTEN  =      -646.42675472 eV

  energy without entropy =     -646.37108114  energy(sigma->0) =     -646.39891793


--------------------------------------------------------------------------------------------------------




--------------------------------------- Iteration      1(  13)  ---------------------------------------


    POTLOK:  cpu time    0.5124: real time    0.5183
    SETDIJ:  cpu time    0.0205: real time    0.0207
    EDDIAG:  cpu time    3.2688: real time    3.2980
  RMM-DIIS:  cpu time   12.9680: real time   13.0707
    ORTHCH:  cpu time    0.2313: real time    0.2400
       DOS:  cpu time    0.0011: real time    0.0011
    CHARGE:  cpu time    0.9779: real time    0.9905
    MIXING:  cpu time    0.0116: real time    0.0117
    --------------------------------------------
      LOOP:  cpu time   17.9915: real time   18.1510

 eigenvalue-minimisations  :  2987
 total energy-change (2. order) :-0.1018762E+00  (-0.2737976E-02)
 number of electron     293.0000003 magnetization       0.0721249
 augmentation part       12.9377670 magnetization      -0.4028429

 Broyden mixing:
  rms(total) = 0.71995E+00    rms(broyden)= 0.71988E+00
  rms(prec ) = 0.74672E+00
  weight for this iteration     100.00

 eigenvalues of (default mixing * dielectric matrix)
  average eigenvalue GAMMA=   0.8727
  2.1914  2.1914  0.7006  0.3460  0.3460  0.5422  0.3402  0.3235

 Free energy of the ion-electron system (eV)
  ---------------------------------------------------
  alpha Z        PSCENC =       156.95040625
  Ewald energy   TEWEN  =     30377.16019688
  -Hartree energ DENC   =    -40548.70316031
  -exchange      EXHF   =         0.00000000
  -V(xc)+E(xc)   XCENC  =      1021.42154199
  PAW double counting   =     30450.43482707   -30549.31367893
  entropy T*S    EENTRO =        -0.02903738
  eigenvalues    EBANDS =     -3620.20764098
  atomic energy  EATOM  =     12065.75791449
  Solvation  Ediel_sol  =         0.00000000
  ---------------------------------------------------
  free energy    TOTEN  =      -646.52863091 eV

  energy without entropy =     -646.49959353  energy(sigma->0) =     -646.51411222


--------------------------------------------------------------------------------------------------------




--------------------------------------- Iteration      1(  14)  ---------------------------------------


    POTLOK:  cpu time    0.5165: real time    0.5243
    SETDIJ:  cpu time    0.0149: real time    0.0150
    EDDIAG:  cpu time    3.2205: real time    3.2521
  RMM-DIIS:  cpu time   12.9758: real time   13.0990
    ORTHCH:  cpu time    0.3124: real time    0.3136
       DOS:  cpu time    0.0010: real time    0.0010
    CHARGE:  cpu time    0.9756: real time    0.9854
    MIXING:  cpu time    0.0126: real time    0.0126
    --------------------------------------------
      LOOP:  cpu time   18.0293: real time   18.2030

 eigenvalue-minimisations  :  2981
 total energy-change (2. order) : 0.1508316E+00  (-0.2706046E-02)
 number of electron     293.0000004 magnetization       0.0606324
 augmentation part       13.0289644 magnetization      -0.3176979

 Broyden mixing:
  rms(total) = 0.73117E+00    rms(broyden)= 0.73116E+00
  rms(prec ) = 0.78256E+00
  weight for this iteration     100.00

 eigenvalues of (default mixing * dielectric matrix)
  average eigenvalue GAMMA=   0.8278
  2.2246  2.2246  0.7041  0.3458  0.3458  0.5267  0.3436  0.3676  0.3676

 Free energy of the ion-electron system (eV)
  ---------------------------------------------------
  alpha Z        PSCENC =       156.95040625
  Ewald energy   TEWEN  =     30377.16019688
  -Hartree energ DENC   =    -40553.11553596
  -exchange      EXHF   =         0.00000000
  -V(xc)+E(xc)   XCENC  =      1021.45689011
  PAW double counting   =     30525.27926421   -30624.04990549
  entropy T*S    EENTRO =        -0.05270611
  eigenvalues    EBANDS =     -3615.76432367
  atomic energy  EATOM  =     12065.75791449
  Solvation  Ediel_sol  =         0.00000000
  ---------------------------------------------------
  free energy    TOTEN  =      -646.37779928 eV

  energy without entropy =     -646.32509318  energy(sigma->0) =     -646.35144623


--------------------------------------------------------------------------------------------------------




--------------------------------------- Iteration      1(  15)  ---------------------------------------


    POTLOK:  cpu time    0.5087: real time    0.5128
    SETDIJ:  cpu time    0.0147: real time    0.0148
    EDDIAG:  cpu time    3.1515: real time    3.1768
  RMM-DIIS:  cpu time   14.2784: real time   14.3905
    ORTHCH:  cpu time    0.2107: real time    0.2130
       DOS:  cpu time    0.0011: real time    0.0011
    CHARGE:  cpu time    0.9743: real time    0.9825
    MIXING:  cpu time    0.0131: real time    0.0133
    --------------------------------------------
      LOOP:  cpu time   19.1525: real time   19.3047

 eigenvalue-minimisations  :  3282
 total energy-change (2. order) : 0.2967486E-03  (-0.3886132E-03)
 number of electron     293.0000004 magnetization       0.0656153
 augmentation part       13.0290370 magnetization      -0.2074912

 Broyden mixing:
  rms(total) = 0.64831E+00    rms(broyden)= 0.64829E+00
  rms(prec ) = 0.70588E+00
  weight for this iteration     100.00

 eigenvalues of (default mixing * dielectric matrix)
  average eigenvalue GAMMA=   0.8008
  2.2100  2.2100  0.7200  0.5508  0.4587  0.4587  0.3462  0.3462  0.3416  0.3661

 Free energy of the ion-electron system (eV)
  ---------------------------------------------------
  alpha Z        PSCENC =       156.95040625
  Ewald energy   TEWEN  =     30377.16019688
  -Hartree energ DENC   =    -40553.61496252
  -exchange      EXHF   =         0.00000000
  -V(xc)+E(xc)   XCENC  =      1021.46336220
  PAW double counting   =     30524.66629929   -30623.45711023
  entropy T*S    EENTRO =        -0.06647979
  eigenvalues    EBANDS =     -3615.23712911
  atomic energy  EATOM  =     12065.75791449
  Solvation  Ediel_sol  =         0.00000000
  ---------------------------------------------------
  free energy    TOTEN  =      -646.37750253 eV

  energy without entropy =     -646.31102275  energy(sigma->0) =     -646.34426264


--------------------------------------------------------------------------------------------------------




--------------------------------------- Iteration      1(  16)  ---------------------------------------


    POTLOK:  cpu time    0.5620: real time    0.5677
    SETDIJ:  cpu time    0.0146: real time    0.0147
    EDDIAG:  cpu time    3.1874: real time    3.2155
  RMM-DIIS:  cpu time   12.6307: real time   12.7302
    ORTHCH:  cpu time    0.3385: real time    0.3401
       DOS:  cpu time    0.0010: real time    0.0010
    CHARGE:  cpu time    0.9811: real time    0.9936
    MIXING:  cpu time    0.0143: real time    0.0145
    --------------------------------------------
      LOOP:  cpu time   17.7296: real time   17.8772

 eigenvalue-minimisations  :  2947
 total energy-change (2. order) :-0.4146938E-01  (-0.1601100E-02)
 number of electron     293.0000004 magnetization       0.0490985
 augmentation part       12.9760820 magnetization      -0.3184486

 Broyden mixing:
  rms(total) = 0.66495E+00    rms(broyden)= 0.66493E+00
  rms(prec ) = 0.70449E+00
  weight for this iteration     100.00

 eigenvalues of (default mixing * dielectric matrix)
  average eigenvalue GAMMA=   0.7593
  2.2085  2.2085  0.3889  0.7256  0.5671  0.5671  0.3459  0.3459  0.5244  0.3437
  0.1268

 Free energy of the ion-electron system (eV)
  ---------------------------------------------------
  alpha Z        PSCENC =       156.95040625
  Ewald energy   TEWEN  =     30377.16019688
  -Hartree energ DENC   =    -40568.44897975
  -exchange      EXHF   =         0.00000000
  -V(xc)+E(xc)   XCENC  =      1021.70287017
  PAW double counting   =     30487.79981477   -30586.62241304
  entropy T*S    EENTRO =        -0.04184955
  eigenvalues    EBANDS =     -3600.67693214
  atomic energy  EATOM  =     12065.75791449
  Solvation  Ediel_sol  =         0.00000000
  ---------------------------------------------------
  free energy    TOTEN  =      -646.41897191 eV

  energy without entropy =     -646.37712236  energy(sigma->0) =     -646.39804714


--------------------------------------------------------------------------------------------------------




--------------------------------------- Iteration      1(  17)  ---------------------------------------


    POTLOK:  cpu time    0.5260: real time    0.5312
    SETDIJ:  cpu time    0.0147: real time    0.0148
    EDDIAG:  cpu time    3.2393: real time    3.2627
  RMM-DIIS:  cpu time   12.8339: real time   12.9368
    ORTHCH:  cpu time    0.2818: real time    0.2827
       DOS:  cpu time    0.0010: real time    0.0010
    CHARGE:  cpu time    0.9754: real time    0.9865
    MIXING:  cpu time    0.0127: real time    0.0128
    --------------------------------------------
      LOOP:  cpu time   17.8849: real time   18.0285

 eigenvalue-minimisations  :  2963
 total energy-change (2. order) :-0.2722000E-01  (-0.6994782E-02)
 number of electron     293.0000003 magnetization       0.0669611
 augmentation part       12.7871934 magnetization      -0.2707413

 Broyden mixing:
  rms(total) = 0.42769E+00    rms(broyden)= 0.42765E+00
  rms(prec ) = 0.43410E+00
  weight for this iteration     100.00

 eigenvalues of (default mixing * dielectric matrix)
  average eigenvalue GAMMA=   0.8786
  2.2207  2.2207  1.3009  1.3009  0.4226  0.7454  0.5876  0.3451  0.3451  0.3711
  0.3711  0.3124

 Free energy of the ion-electron system (eV)
  ---------------------------------------------------
  alpha Z        PSCENC =       156.95040625
  Ewald energy   TEWEN  =     30377.16019688
  -Hartree energ DENC   =    -40597.66153107
  -exchange      EXHF   =         0.00000000
  -V(xc)+E(xc)   XCENC  =      1022.07166017
  PAW double counting   =     30402.97983281   -30501.70985180
  entropy T*S    EENTRO =        -0.03318333
  eigenvalues    EBANDS =     -3571.96163631
  atomic energy  EATOM  =     12065.75791449
  Solvation  Ediel_sol  =         0.00000000
  ---------------------------------------------------
  free energy    TOTEN  =      -646.44619191 eV

  energy without entropy =     -646.41300859  energy(sigma->0) =     -646.42960025


--------------------------------------------------------------------------------------------------------




--------------------------------------- Iteration      1(  18)  ---------------------------------------


    POTLOK:  cpu time    0.5143: real time    0.5192
    SETDIJ:  cpu time    0.0145: real time    0.0145
    EDDIAG:  cpu time    3.2174: real time    3.2427
  RMM-DIIS:  cpu time   12.9609: real time   13.0652
    ORTHCH:  cpu time    0.2259: real time    0.2267
       DOS:  cpu time    0.0010: real time    0.0010
    CHARGE:  cpu time    0.9638: real time    0.9767
    MIXING:  cpu time    0.0129: real time    0.0132
    --------------------------------------------
      LOOP:  cpu time   17.9107: real time   18.0593

 eigenvalue-minimisations  :  2967
 total energy-change (2. order) :-0.7374541E-01  (-0.6705767E-02)
 number of electron     293.0000003 magnetization       0.0496053
 augmentation part       12.8545615 magnetization      -0.3117088

 Broyden mixing:
  rms(total) = 0.35762E+00    rms(broyden)= 0.35760E+00
  rms(prec ) = 0.37716E+00
  weight for this iteration     100.00

 eigenvalues of (default mixing * dielectric matrix)
  average eigenvalue GAMMA=   0.8893
  2.2966  2.2966  1.4387  1.4387  0.4257  0.7770  0.3452  0.3452  0.5413  0.5028
  0.5028  0.3640  0.2864

 Free energy of the ion-electron system (eV)
  ---------------------------------------------------
  alpha Z        PSCENC =       156.95040625
  Ewald energy   TEWEN  =     30377.16019688
  -Hartree energ DENC   =    -40624.73910419
  -exchange      EXHF   =         0.00000000
  -V(xc)+E(xc)   XCENC  =      1022.37713908
  PAW double counting   =     30344.64027702   -30443.21694399
  entropy T*S    EENTRO =        -0.02574613
  eigenvalues    EBANDS =     -3545.42407673
  atomic energy  EATOM  =     12065.75791449
  Solvation  Ediel_sol  =         0.00000000
  ---------------------------------------------------
  free energy    TOTEN  =      -646.51993733 eV

  energy without entropy =     -646.49419119  energy(sigma->0) =     -646.50706426


--------------------------------------------------------------------------------------------------------




--------------------------------------- Iteration      1(  19)  ---------------------------------------


    POTLOK:  cpu time    0.5226: real time    0.5325
    SETDIJ:  cpu time    0.0148: real time    0.0148
    EDDIAG:  cpu time    3.2008: real time    3.2253
  RMM-DIIS:  cpu time   13.8583: real time   13.9696
    ORTHCH:  cpu time    0.2667: real time    0.2685
       DOS:  cpu time    0.0010: real time    0.0010
    CHARGE:  cpu time    0.9689: real time    0.9805
    MIXING:  cpu time    0.0142: real time    0.0145
    --------------------------------------------
      LOOP:  cpu time   18.8474: real time   19.0068

 eigenvalue-minimisations  :  3217
 total energy-change (2. order) : 0.1680672E-01  (-0.1973442E-02)
 number of electron     293.0000003 magnetization       0.0496158
 augmentation part       12.7811234 magnetization      -0.2912026

 Broyden mixing:
  rms(total) = 0.30122E+00    rms(broyden)= 0.30120E+00
  rms(prec ) = 0.30632E+00
  weight for this iteration     100.00

 eigenvalues of (default mixing * dielectric matrix)
  average eigenvalue GAMMA=   0.8659
  2.3273  2.3273  1.3862  1.3862  0.5627  0.4298  0.8106  0.3452  0.3452  0.5982
  0.4672  0.4672  0.3765  0.2923

 Free energy of the ion-electron system (eV)
  ---------------------------------------------------
  alpha Z        PSCENC =       156.95040625
  Ewald energy   TEWEN  =     30377.16019688
  -Hartree energ DENC   =    -40634.76987320
  -exchange      EXHF   =         0.00000000
  -V(xc)+E(xc)   XCENC  =      1022.45126001
  PAW double counting   =     30342.21827802   -30440.71998203
  entropy T*S    EENTRO =        -0.03140292
  eigenvalues    EBANDS =     -3535.51992810
  atomic energy  EATOM  =     12065.75791449
  Solvation  Ediel_sol  =         0.00000000
  ---------------------------------------------------
  free energy    TOTEN  =      -646.50313061 eV

  energy without entropy =     -646.47172769  energy(sigma->0) =     -646.48742915


--------------------------------------------------------------------------------------------------------




--------------------------------------- Iteration      1(  20)  ---------------------------------------


    POTLOK:  cpu time    0.5141: real time    0.5190
    SETDIJ:  cpu time    0.0145: real time    0.0146
    EDDIAG:  cpu time    3.1803: real time    3.2124
  RMM-DIIS:  cpu time   13.7397: real time   13.8408
    ORTHCH:  cpu time    0.2875: real time    0.2891
       DOS:  cpu time    0.0010: real time    0.0010
    CHARGE:  cpu time    0.9706: real time    0.9806
    MIXING:  cpu time    0.0153: real time    0.0154
    --------------------------------------------
      LOOP:  cpu time   18.7231: real time   18.8727

 eigenvalue-minimisations  :  3164
 total energy-change (2. order) :-0.4680263E-02  (-0.2679975E-03)
 number of electron     293.0000003 magnetization       0.0348989
 augmentation part       12.7798462 magnetization      -0.3041347

 Broyden mixing:
  rms(total) = 0.30125E+00    rms(broyden)= 0.30125E+00
  rms(prec ) = 0.30629E+00
  weight for this iteration     100.00

 eigenvalues of (default mixing * dielectric matrix)
  average eigenvalue GAMMA=   0.8358
  2.5007  2.5007  1.7848  0.4265  0.7990  0.7990  0.7652  0.7652  0.3452  0.3452
  0.4594  0.3526  0.3526  0.3044  0.0358

 Free energy of the ion-electron system (eV)
  ---------------------------------------------------
  alpha Z        PSCENC =       156.95040625
  Ewald energy   TEWEN  =     30377.16019688
  -Hartree energ DENC   =    -40634.74053701
  -exchange      EXHF   =         0.00000000
  -V(xc)+E(xc)   XCENC  =      1022.44843422
  PAW double counting   =     30342.22898101   -30440.72977423
  entropy T*S    EENTRO =        -0.03153556
  eigenvalues    EBANDS =     -3535.55189691
  atomic energy  EATOM  =     12065.75791449
  Solvation  Ediel_sol  =         0.00000000
  ---------------------------------------------------
  free energy    TOTEN  =      -646.50781087 eV

  energy without entropy =     -646.47627531  energy(sigma->0) =     -646.49204309


[...]
  E(xc)   -1111.09069 -1110.76824 -1150.21418     0.00453     0.00008    -0.00056
  Local  -83781.16625-83735.48085 86099.94004     0.38595     2.00742    -6.06674
  n-local  -289.54555  -286.94342  -269.80908    -0.01178    -0.03623     0.00355
  augment    66.61075    64.99041    65.47881    -0.00614    -0.00449    -0.08867
  Kinetic  4383.69860  4371.32303  4985.59133    -0.23545     0.11689    -0.23064
  Fock        0.00000     0.00000     0.00000     0.00000     0.00000     0.00000
  vdW        -1.52475    -1.65996    -0.04212     0.00255     0.00055    -0.00396
  -------------------------------------------------------------------------------------
  Total       0.34072     0.53852    -0.69272     0.01816     0.00879     0.02132
  in kB       0.19203     0.30350    -0.39041     0.01023     0.00495     0.01202
  external pressure =        0.04 kB  Pullay stress =        0.00 kB


 VOLUME and BASIS-vectors are now :
 -----------------------------------------------------------------------------
  energy-cutoff  :      550.00
  volume of cell :     2842.81
      direct lattice vectors                 reciprocal lattice vectors
    14.861163841 -0.003273593  0.000000000     0.067298117  0.039207262  0.000000000
    -7.430581921 12.754376365  0.000000000     0.000017273  0.078414524  0.000000000
     0.000000000  0.000000000 15.000000000     0.000000000  0.000000000  0.066666667

  length of vectors
    14.861164202 14.761018398 15.000000000     0.077886109  0.078414526  0.066666667


 FORCES acting on ions
    electron-ion (+dipol)            ewald-force                    non-local-force                 convergence-correction
 -----------------------------------------------------------------------------------------------
   0.259E+01 -.285E+00 0.788E+01   -.273E+01 0.312E+00 -.791E+01   0.141E+00 -.239E-01 0.280E-01   0.215E-02 -.280E-02 -.168E-03
   -.107E+01 -.213E-01 0.770E+01   0.118E+01 0.792E-01 -.773E+01   -.105E+00 -.576E-01 0.280E-01   0.164E-02 0.149E-02 -.232E-03
   -.143E+00 -.177E+01 0.733E+01   -.227E-01 0.206E+01 -.735E+01   0.147E+00 -.289E+00 0.256E-01   0.217E-02 -.344E-02 -.230E-03
   -.121E+01 -.142E+00 0.750E+01   0.124E+01 0.366E+00 -.750E+01   -.246E-01 -.208E+00 0.443E-02   0.888E-03 -.141E-02 -.308E-03
   -.119E+00 -.436E+01 0.654E+01   0.135E+00 0.478E+01 -.656E+01   -.167E-01 -.424E+00 0.180E-01   0.347E-03 -.321E-02 -.377E-03
   0.221E+01 -.188E+00 0.691E+01   -.226E+01 0.486E+00 -.691E+01   0.463E-01 -.301E+00 0.219E-02   -.236E-04 -.292E-02 -.398E-03
   -.178E+01 -.188E+01 0.773E+01   0.199E+01 0.201E+01 -.776E+01   -.204E+00 -.121E+00 0.298E-01   -.234E-02 -.447E-02 -.270E-03
   0.107E+01 -.710E+00 0.785E+01   -.112E+01 0.859E+00 -.788E+01   0.495E-01 -.142E+00 0.279E-01   -.130E-02 -.220E-02 -.224E-03
   -.323E+01 -.917E+00 0.745E+01   0.333E+01 0.871E+00 -.746E+01   -.109E+00 0.391E-01 0.594E-02   -.281E-02 -.297E-02 -.241E-03
   -.560E+00 0.429E-01 0.733E+01   0.515E+00 -.136E+00 -.735E+01   0.348E-01 0.972E-01 0.263E-01   -.171E-02 0.424E-03 -.256E-03
   0.221E+01 -.699E+00 0.697E+01   -.225E+01 0.589E+00 -.698E+01   0.407E-01 0.113E+00 0.758E-02   0.439E-03 -.204E-02 -.287E-03
   0.572E-01 0.483E+00 0.654E+01   -.415E-01 -.626E+00 -.657E+01   -.137E-01 0.141E+00 0.202E-01   0.571E-03 0.181E-02 -.370E-03
   0.141E+01 0.498E+01 0.679E+01   -.140E+01 -.512E+01 -.680E+01   -.136E-01 0.150E+00 0.679E-02   0.950E-03 0.329E-02 -.373E-03
   0.132E+01 0.519E+01 0.632E+01   -.116E+01 -.538E+01 -.634E+01   -.159E+00 0.202E+00 0.169E-01   0.297E-03 0.590E-02 -.474E-03
   0.112E+01 0.395E+01 0.878E+01   -.107E+01 -.381E+01 -.880E+01   -.523E-01 -.144E+00 0.223E-01   0.960E-04 0.110E-02 -.279E-03
   -.207E+01 0.809E+01 0.101E+02   0.267E+01 -.790E+01 -.102E+02   -.570E+00 -.186E+00 0.965E-01   -.316E-02 0.265E-02 -.331E-03
   0.306E+00 0.527E+01 0.730E+01   -.330E+00 -.482E+01 -.733E+01   0.152E-01 -.468E+00 0.245E-01   0.106E-02 -.324E-02 -.470E-03
   0.783E+00 0.678E+01 0.626E+01   -.761E+00 -.608E+01 -.587E+01   -.356E-01 -.695E+00 -.395E+00   0.221E-03 -.108E-02 -.527E-03
   -.245E+01 0.370E+01 0.820E+01   0.240E+01 -.350E+01 -.821E+01   0.565E-01 -.215E+00 0.120E-01   -.124E-02 -.303E-02 -.344E-03
   0.156E+01 0.707E+01 0.963E+01   -.209E+01 -.680E+01 -.973E+01   0.536E+00 -.273E+00 0.971E-01   0.604E-03 0.563E-03 -.322E-03
   -.909E+00 0.346E+01 0.781E+01   0.941E+00 -.352E+01 -.781E+01   -.338E-01 0.593E-01 0.676E-02   -.103E-02 0.380E-03 -.174E-03
   -.138E+01 0.422E+01 0.803E+01   0.123E+01 -.432E+01 -.805E+01   0.132E+00 0.112E+00 0.289E-01   0.859E-03 0.347E-02 -.804E-04
   -.227E-01 0.332E+01 0.599E+01   -.473E-02 -.349E+01 -.597E+01   0.294E-01 0.178E+00 -.150E-01   0.543E-04 0.277E-02 -.374E-03
   0.350E+00 0.447E+01 0.601E+01   -.438E+00 -.466E+01 -.603E+01   0.873E-01 0.204E+00 0.220E-01   0.127E-02 0.553E-02 -.431E-03
   0.149E+01 0.726E+01 0.521E+01   -.142E+01 -.782E+01 -.520E+01   -.636E-01 0.546E+00 -.184E-01   0.981E-03 0.529E-02 -.556E-03
   0.335E+01 0.126E+02 0.567E+01   -.327E+01 -.135E+02 -.570E+01   -.842E-01 0.882E+00 0.274E-01   0.159E-02 0.282E-02 -.530E-03
   0.250E+01 0.110E+02 0.685E+01   -.219E+01 -.113E+02 -.682E+01   -.337E+00 0.223E+00 -.339E-01   -.985E-03 0.450E-02 -.396E-03
   0.107E+02 0.103E+02 0.618E+01   -.983E+01 -.105E+02 -.631E+01   -.869E+00 0.208E+00 0.123E+00   -.161E-02 0.295E-02 -.356E-03
   -.226E+01 0.186E+02 0.123E+02   0.256E+01 -.177E+02 -.125E+02   -.310E+00 -.950E+00 0.228E+00   -.423E-02 0.138E-02 -.418E-03
   -.864E+01 0.347E+02 0.246E+02   0.150E+02 -.311E+02 -.236E+02   -.638E+01 -.355E+01 -.962E+00   -.688E-02 -.107E-04 -.156E-02
   0.124E+01 0.177E+02 0.116E+02   -.150E+01 -.168E+02 -.118E+02   0.278E+00 -.959E+00 0.235E+00   0.105E-02 0.691E-03 -.611E-03
   0.760E+01 0.351E+02 0.237E+02   -.138E+02 -.316E+02 -.227E+02   0.625E+01 -.351E+01 -.941E+00   0.359E-02 -.202E-02 -.219E-02
   -.342E+01 0.107E+02 0.785E+01   0.315E+01 -.108E+02 -.782E+01   0.275E+00 0.901E-01 -.311E-01   0.248E-02 0.373E-02 -.840E-04
   -.106E+02 0.690E+01 0.734E+01   0.101E+02 -.688E+01 -.746E+01   0.435E+00 -.126E-01 0.120E+00   0.390E-02 0.332E-02 -.697E-04
   -.118E+00 0.418E+01 0.664E+01   -.388E-01 -.444E+01 -.662E+01   0.157E+00 0.241E+00 -.174E-01   0.596E-03 0.440E-02 -.185E-03
   -.217E+01 0.780E+01 0.745E+01   0.153E+01 -.817E+01 -.749E+01   0.624E+00 0.364E+00 0.412E-01   0.415E-04 0.345E-02 -.319E-04
   0.668E+01 0.911E+01 0.630E+01   -.701E+01 -.105E+02 -.633E+01   0.336E+00 0.139E+01 0.245E-01   0.151E-02 0.128E-02 -.248E-03
   0.239E+02 0.136E+02 0.629E+01   -.293E+02 -.166E+02 -.631E+01   0.542E+01 0.306E+01 0.255E-01   0.244E-02 0.141E-02 -.119E-03
   -.169E+01 0.973E+01 0.401E+01   0.214E+01 -.111E+02 -.399E+01   -.459E+00 0.139E+01 -.228E-01   -.178E-03 0.168E-02 -.596E-03
   -.189E+02 0.131E+02 0.313E+01   0.244E+02 -.162E+02 -.295E+01   -.552E+01 0.308E+01 -.184E+00   -.113E-02 0.892E-03 -.544E-03
   0.203E+02 0.107E+02 0.136E+02   -.191E+02 -.113E+02 -.140E+02   -.120E+01 0.599E+00 0.502E+00   -.602E-02 0.799E-03 -.429E-03
   0.204E+02 -.871E+01 0.134E+02   -.189E+02 0.884E+01 -.138E+02   -.148E+01 -.133E+00 0.441E+00   -.602E-02 0.110E-02 -.317E-03
   -.242E+02 0.879E+01 0.130E+02   0.233E+02 -.924E+01 -.135E+02   0.948E+00 0.474E+00 0.524E+00   0.515E-02 0.112E-02 -.818E-03
   -.243E+02 -.852E+01 0.130E+02   0.233E+02 0.893E+01 -.135E+02   0.960E+00 -.443E+00 0.497E+00   0.526E-02 0.206E-02 -.874E-03
   -.113E+01 0.283E+01 0.668E+01   0.769E+00 -.300E+01 -.665E+01   0.366E+00 0.156E+00 -.251E-01   0.108E-02 0.212E-02 0.156E-03
   -.115E+01 -.103E+01 0.663E+01   0.482E+00 0.758E+00 -.659E+01   0.643E+00 0.290E+00 -.338E-01   0.871E-03 0.571E-03 0.192E-03
   0.750E+01 -.286E+01 0.719E+01   -.892E+01 0.330E+01 -.722E+01   0.144E+01 -.462E+00 0.290E-01   -.325E-03 -.912E-04 0.113E-03
   0.576E+01 -.714E+01 0.662E+01   -.654E+01 0.760E+01 -.660E+01   0.782E+00 -.462E+00 -.138E-01   -.623E-04 -.101E-02 -.182E-04
   0.409E+01 -.560E+01 0.668E+01   -.408E+01 0.594E+01 -.677E+01   -.193E-01 -.343E+00 0.837E-01   0.179E-02 -.154E-02 -.451E-03
   0.169E+01 -.298E+02 0.540E+01   -.159E+01 0.361E+02 -.543E+01   -.914E-01 -.629E+01 0.274E-01   0.977E-03 -.282E-02 -.339E-03
   0.822E+00 -.518E+01 0.582E+01   0.834E+00 0.545E+01 -.594E+01   -.168E+01 -.299E+00 0.112E+00   -.174E-02 0.357E-03 -.317E-03
   -.293E+01 -.142E+02 0.710E+01   0.389E+01 0.147E+02 -.705E+01   -.979E+00 -.446E+00 -.516E-01   -.821E-03 -.131E-02 -.338E-03
   -.101E+02 -.328E+02 0.240E+02   0.167E+02 0.291E+02 -.231E+02   -.653E+01 0.372E+01 -.928E+00   -.803E-02 0.231E-02 -.147E-02
   -.393E+01 -.188E+02 0.121E+02   0.436E+01 0.178E+02 -.124E+02   -.460E+00 0.103E+01 0.219E+00   -.606E-02 0.541E-04 -.271E-03
   0.802E+01 -.343E+02 0.237E+02   -.143E+02 0.307E+02 -.228E+02   0.626E+01 0.358E+01 -.909E+00   0.546E-02 0.293E-02 -.251E-02
   0.177E+01 -.186E+02 0.114E+02   -.203E+01 0.176E+02 -.116E+02   0.287E+00 0.992E+00 0.235E+00   0.230E-02 -.116E-02 -.594E-03
   -.976E+01 -.553E+01 0.743E+01   0.928E+01 0.544E+01 -.755E+01   0.489E+00 0.893E-01 0.118E+00   0.344E-02 -.112E-02 -.117E-04
   -.199E+01 -.109E+02 0.802E+01   0.158E+01 0.109E+02 -.799E+01   0.423E+00 -.311E-01 -.336E-01   0.373E-02 -.259E-02 -.348E-04
   0.211E+01 -.517E+01 0.804E+01   -.259E+01 0.545E+01 -.807E+01   0.466E+00 -.288E+00 0.298E-01   0.299E-02 -.401E-02 0.739E-05
   0.366E+00 -.539E+01 0.778E+01   -.442E+00 0.561E+01 -.779E+01   0.775E-01 -.213E+00 0.598E-02   0.257E-02 -.410E-02 -.109E-03
   0.387E+01 -.124E+02 0.616E+01   -.491E+01 0.133E+02 -.620E+01   0.104E+01 -.985E+00 0.274E-01   -.934E-04 -.213E-02 -.251E-03
   0.260E+01 -.544E+01 0.599E+01   -.262E+01 0.616E+01 -.598E+01   0.110E-01 -.700E+00 -.176E-01   0.134E-02 -.267E-02 -.316E-03
   -.291E+01 -.132E+02 0.645E+01   0.400E+01 0.142E+02 -.648E+01   -.109E+01 -.981E+00 0.235E-01   0.133E-02 -.256E-02 -.381E-03
   -.101E+01 -.697E+01 0.674E+01   0.103E+01 0.766E+01 -.675E+01   -.417E-02 -.675E+00 0.590E-02   -.523E-03 -.325E-02 -.380E-03
   -.587E+01 -.927E+01 0.103E+02   0.683E+01 0.924E+01 -.104E+02   -.934E+00 0.308E-01 0.948E-01   -.551E-02 -.332E-02 -.235E-03
   0.149E+00 -.567E+01 0.876E+01   0.443E-02 0.569E+01 -.877E+01   -.159E+00 -.157E-01 0.833E-02   -.382E-02 -.425E-02 -.239E-03
   -.318E+00 -.687E+01 0.596E+01   0.392E+00 0.619E+01 -.557E+01   -.877E-01 0.662E+00 -.392E+00   -.155E-02 -.803E-03 -.344E-03
   -.331E+00 -.667E+01 0.733E+01   0.362E+00 0.629E+01 -.737E+01   -.335E-01 0.396E+00 0.290E-01   -.131E-02 -.186E-02 -.274E-03
   0.264E+01 -.747E+01 0.972E+01   -.324E+01 0.724E+01 -.982E+01   0.608E+00 0.230E+00 0.945E-01   0.291E-02 -.287E-02 -.250E-03
   -.136E+01 -.505E+01 0.824E+01   0.127E+01 0.493E+01 -.825E+01   0.917E-01 0.135E+00 0.160E-01   0.183E-02 -.256E-02 -.246E-03
   -.627E+00 -.131E+01 -.625E+03   0.383E+00 0.122E+01 0.607E+03   0.272E+00 0.102E+00 0.181E+02   -.387E-02 0.464E-03 -.419E-03
 -----------------------------------------------------------------------------------------------
   -.140E+00 0.423E-01 -.175E+02   0.100E-12 0.350E-12 0.455E-12   0.139E+00 -.339E-01 0.175E+02   0.414E-03 0.208E-03 -.278E-01
 
 
 POSITION                                       TOTAL-FORCE (eV/Angst)
 -----------------------------------------------------------------------------------
     -7.42673     12.75289      7.46471         0.009742      0.001114     -0.000224
      0.00323      1.42090      7.46578         0.010456      0.000923     -0.000577
      2.48449      0.02021      7.46321        -0.016276     -0.001500     -0.000616
      2.48128      1.44305      7.47392         0.000970      0.016698      0.000962
      4.95316      0.01988      7.46626        -0.000638     -0.010215     -0.003216
      4.95475      1.44333      7.47592        -0.003978     -0.005240     -0.001317
     -0.00190     12.74549      7.46575         0.011443      0.003984     -0.001843
      7.43131      1.41528      7.46481        -0.002817      0.004103      0.000059
      2.47754     12.72354      7.47401        -0.009242     -0.010529      0.000984
      9.91044      1.39100      7.46321        -0.010837      0.002921     -0.000137
      4.95466     12.72329      7.47575        -0.002433     -0.000206     -0.001102
     12.38373      1.39144      7.46619         0.001932     -0.002441     -0.003123
     13.61854      2.10978      7.46739        -0.002500      0.012658     -0.003140
     -1.24657      3.53160      7.47757         0.003099      0.014195     -0.002890
      1.23906      2.14373      7.47534         0.000762     -0.007612      0.000874
      1.23488      3.57028      7.50098         0.025551      0.001063      0.000077
      3.71775      2.16871      7.49097        -0.007445     -0.023302     -0.003601
      3.71767      3.58833      7.53688        -0.014471      0.008550     -0.005574
      6.19479      2.14072      7.47655         0.008563     -0.018662     -0.000332
      6.19774      3.56510      7.50100         0.005200     -0.005949     -0.003030
      8.67707      2.10853      7.46287        -0.004489     -0.001011     -0.000813
      8.68345      3.53004      7.47040        -0.020722      0.006868      0.002246
     11.14689      2.10203      7.46430         0.002067      0.013235     -0.002656
     11.14641      3.52347      7.46637         0.000758      0.016065     -0.005862
     12.37901      4.23695      7.47472         0.007576     -0.008238     -0.007874
     -2.48835      5.65895      7.48126        -0.004860      0.023067     -0.007405
     -0.01776      4.25126      7.50020        -0.021085     -0.014466     -0.001559
     -0.04422      5.67110      7.52511         0.006361     -0.020767     -0.006630
      2.47244      4.31108      7.55100        -0.007799      0.009589      0.008249
      2.42489      5.72380      7.64343         0.007857      0.014942      0.023401
      4.96108      4.30635      7.55244         0.002558     -0.003135     -0.002490
      5.00810      5.71941      7.64589         0.015758      0.004901      0.001862
      7.45023      4.24465      7.49495         0.014840     -0.015848      0.003150
      7.47576      5.66031      7.51879         0.001501      0.007415      0.004234
      9.91788      4.24018      7.46864         0.001888     -0.012966     -0.002026
      9.92527      5.66733      7.47393        -0.013800     -0.006901      0.001207
     -3.70454      6.38507      7.47436         0.009039      0.007976     -0.004249
     -3.70141      7.80474      7.47484        -0.012242      0.006905     -0.000835
     -1.27784      6.38540      7.50416        -0.014488      0.001853     -0.004828
     -1.28176      7.80329      7.50527         0.003070      0.012954     -0.003548
      1.17457      6.36943      7.57856        -0.027469      0.012792      0.004314
      1.16573      7.80095      7.57836         0.010777      0.001718      0.008122
      6.25561      6.36621      7.57887         0.007783      0.014967      0.000100
      6.25975      7.80207      7.57852         0.004464     -0.024789     -0.001849
      8.70456      6.37453      7.49342         0.014877     -0.011450      0.007727
      8.71254      7.79304      7.49346        -0.019564      0.018946      0.008819
     -4.92662      8.51527      7.47454         0.030872     -0.022192      0.004553
     -4.94685      9.93652      7.46885        -0.003604      0.002758      0.000349
     -2.48866      8.50984      7.48217        -0.009621     -0.000492     -0.002136
     -2.48189      9.92026      7.47478         0.004337     -0.006458     -0.005022
     -0.05417      8.51303      7.52498        -0.032845     -0.020611     -0.006437
     -0.01339      9.92596      7.49956        -0.021417      0.010378     -0.002016
      2.41645      8.44678      7.64300         0.017439     -0.014260      0.034203
      2.47118      9.85719      7.55128        -0.015498      0.007450      0.010958
      5.01200      8.44897      7.64506         0.000081      0.000307     -0.000235
      4.96166      9.85981      7.55293         0.009472      0.004014     -0.002727
      7.48160      8.50736      7.51833         0.007540      0.005444      0.002261
      7.45089      9.92197      7.49447         0.018647      0.013786      0.001814
     -6.17687     10.64209      7.47032        -0.010026     -0.012672      0.001722
     -6.18152     12.06186      7.46291         0.002586      0.000644     -0.000812
     -3.71074     10.63454      7.46629         0.013962     -0.025817     -0.004254
     -3.70712     12.06025      7.46435        -0.014551      0.022791     -0.003100
     -1.25175     10.62809      7.47734        -0.007982     -0.019353     -0.004103
     -1.24954     12.05150      7.46748         0.017555      0.019606     -0.004654
      1.23374     10.60146      7.50039         0.014617     -0.005161     -0.001973
      1.23666     12.02718      7.47531        -0.005739      0.000798     -0.001646
      3.71647     10.57875      7.53762        -0.014825     -0.027839     -0.002210
      3.71643     11.99787      7.49103        -0.003815      0.010131     -0.001896
      6.19927     10.60157      7.50072         0.007731     -0.003656     -0.003511
      6.19656     12.02560      7.47638         0.003034      0.013150     -0.000482
      3.72116      7.08391      8.31953         0.020314      0.012078     -0.001687
 -----------------------------------------------------------------------------------
    total drift:                               -0.000712      0.008667     -0.024940


--------------------------------------------------------------------------------------------------------



  FREE ENERGIE OF THE ION-ELECTRON SYSTEM (eV)
  ---------------------------------------------------
  free  energy   TOTEN  =      -653.44966381 eV

  energy  without entropy=     -653.41627242  energy(sigma->0) =     -653.43296812
 
 d Force = 0.7322439E-03[ 0.257E-04, 0.144E-02]  d Energy = 0.6903773E-03 0.419E-04
 d Force =-0.2842977E+00[-0.289E+00,-0.280E+00]  d Ewald  =-0.8525958E+01 0.824E+01


--------------------------------------------------------------------------------------------------------


    POTLOK:  cpu time    0.5321: real time    0.5388


--------------------------------------------------------------------------------------------------------


 Conjugate gradient step on ions:
 trial-energy change:   -0.000690  1 .order   -0.000710   -0.001498    0.000078
  (g-gl).g = 0.179E-02      g.g   = 0.182E-02  gl.gl    = 0.430E-02
 g(Force)  = 0.177E-02   g(Stress)= 0.485E-04 ortho     = 0.237E-04
 gamma     =   0.41531
 trial     =   0.81904
 opt step  =   0.77860  (harmonic =   0.77860) maximal distance =0.00149455
 next E    =  -653.449686   (d E  =  -0.00071)


--------------------------------------------------------------------------------------------------------


  
 reached required accuracy - stopping structural energy minimisation
     LOOP+:  cpu time  107.4768: real time  108.3681
    4ORBIT:  cpu time    0.0000: real time    0.0000

 total amount of memory used by VASP MPI-rank0   135424. kBytes
=======================================================================

   base      :      30000. kBytes
   nonlr-proj:      10435. kBytes
   fftplans  :      14072. kBytes
   grid      :      39398. kBytes
   one-center:        186. kBytes
   wavefun   :      41333. kBytes
 
  
  
 General timing and accounting informations for this job:
 ========================================================
  
                  Total CPU time used (sec):     2934.174
                            User time (sec):     2910.041
                          System time (sec):       24.133
                         Elapsed time (sec):     2966.131
  
                   Maximum memory used (kb):      613888.
                   Average memory used (kb):           0.
  
                          Minor page faults:      5071726
                          Major page faults:           39
                 Voluntary context switches:        24717
