       N       E                     dE             d eps       ncg     rms          ort
DAV:   1     0.284958286959E+04    0.28496E+04   -0.11665E+05   688   0.127E+03
DAV:   2    -0.285759483150E+02   -0.28782E+04   -0.27830E+04   688   0.332E+02
DAV:   3    -0.501467046550E+03   -0.47289E+03   -0.46916E+03   688   0.152E+02
DAV:   4    -0.518319115314E+03   -0.16852E+02   -0.16404E+02   688   0.405E+01
DAV:   5    -0.519056856264E+03   -0.73774E+00   -0.73001E+00   688   0.660E+00
SDA:   6    -0.408677733668E+03    0.11038E+03   -0.73001E+00   688   0.250E+03 0.000E+00
CGA:   7    -0.453030484130E+03   -0.44353E+02   -0.44274E+02   688   0.289E+02-0.573E+00
CGA:   8    -0.457649186632E+03   -0.46187E+01   -0.46892E+01   688   0.116E+02 0.276E+00
CGA:   9    -0.459654299757E+03   -0.20051E+01   -0.20036E+01   688   0.329E+01-0.900E-01
CGA:  10    -0.460475367344E+03   -0.82107E+00   -0.82095E+00   688   0.118E+01 0.212E-02
CGA:  11    -0.460830185925E+03   -0.35482E+00   -0.35721E+00   688   0.497E+00-0.253E-01
CGA:  12    -0.460961651513E+03   -0.13147E+00   -0.13242E+00   688   0.230E+00-0.132E-01
CGA:  13    -0.461011504701E+03   -0.49853E-01   -0.49782E-01   688   0.945E-01 0.239E-02
CGA:  14    -0.461033543144E+03   -0.22038E-01   -0.21925E-01   688   0.319E-01 0.299E-02
CGA:  15    -0.461042141911E+03   -0.85988E-02   -0.85557E-02   688   0.123E-01 0.554E-03
CGA:  16    -0.461045201390E+03   -0.30595E-02   -0.30490E-02   688   0.484E-02 0.200E-03
CGA:  17    -0.461046639425E+03   -0.14380E-02   -0.14335E-02   688   0.181E-02 0.399E-04
CGA:  18    -0.461047220922E+03   -0.58150E-03   -0.58109E-03   688   0.107E-02 0.184E-05
CGA:  19    -0.461047480037E+03   -0.25912E-03   -0.25906E-03   688   0.531E-03 0.184E-05
CGA:  20    -0.461047651749E+03   -0.17171E-03   -0.17169E-03   688   0.210E-03 0.655E-07
CGA:  21    -0.461047731372E+03   -0.79622E-04   -0.79815E-04   688   0.106E-03-0.132E-05
   1 F= -.46535844E+03 E0= -.46533347E+03  d E =-.465358E+03  mag=     0.1326
       N       E                     dE             d eps       ncg     rms          ort
SDA:   1    -0.790128923151E+02    0.38203E+03    0.00000E+00   688   0.112E+04 0.000E+00
CGA:   2    -0.370363516616E+03   -0.29135E+03   -0.29241E+03   688   0.324E+03-0.261E+02
CGA:   3    -0.443697940468E+03   -0.73334E+02   -0.73467E+02   688   0.719E+02 0.959E+01
CGA:   4    -0.460257074874E+03   -0.16559E+02   -0.16580E+02   688   0.196E+02 0.820E+00
CGA:   5    -0.464864360934E+03   -0.46073E+01   -0.46045E+01   688   0.571E+01-0.206E+00
CGA:   6    -0.466077885177E+03   -0.12135E+01   -0.12153E+01   688   0.175E+01 0.468E-01
CGA:   7    -0.466478378798E+03   -0.40049E+00   -0.40015E+00   688   0.837E+00-0.138E-01
CGA:   8    -0.466672491562E+03   -0.19411E+00   -0.19415E+00   688   0.331E+00 0.713E-02
CGA:   9    -0.466775930617E+03   -0.10344E+00   -0.10354E+00   688   0.143E+00-0.947E-03
CGA:  10    -0.466818754259E+03   -0.42824E-01   -0.42821E-01   688   0.546E-01 0.967E-04
CGA:  11    -0.466833604371E+03   -0.14850E-01   -0.14865E-01   688   0.274E-01-0.316E-03
CGA:  12    -0.466839025945E+03   -0.54216E-02   -0.54169E-02   688   0.109E-01-0.176E-04
CGA:  13    -0.466842036756E+03   -0.30108E-02   -0.30126E-02   688   0.429E-02-0.309E-04
CGA:  14    -0.466843380145E+03   -0.13434E-02   -0.13456E-02   688   0.233E-02-0.255E-04
CGA:  15    -0.466844012617E+03   -0.63247E-03   -0.63291E-03   688   0.154E-02-0.101E-04
CGA:  16    -0.466844375866E+03   -0.36325E-03   -0.36312E-03   688   0.725E-03-0.656E-05
CGA:  17    -0.466844589240E+03   -0.21337E-03   -0.21366E-03   688   0.325E-03-0.518E-05
CGA:  18    -0.466844683252E+03   -0.94012E-04   -0.94158E-04   688   0.176E-03-0.315E-05
   2 F= -.47121449E+03 E0= -.47119498E+03  d E =-.585605E+01  mag=     0.0159
       N       E                     dE             d eps       ncg     rms          ort
SDA:   1    -0.404771594684E+03    0.62073E+02    0.00000E+00   688   0.167E+03 0.000E+00
CGA:   2    -0.453476926447E+03   -0.48705E+02   -0.48459E+02   688   0.529E+02 0.401E+01
CGA:   3    -0.465074317810E+03   -0.11597E+02   -0.11543E+02   688   0.187E+02-0.692E+00
CGA:   4    -0.468134873186E+03   -0.30606E+01   -0.30884E+01   688   0.440E+01-0.288E-01
CGA:   5    -0.468993912925E+03   -0.85904E+00   -0.86253E+00   688   0.939E+00 0.208E-01
CGA:   6    -0.469231591697E+03   -0.23768E+00   -0.23766E+00   688   0.245E+00 0.150E-02
CGA:   7    -0.469301162450E+03   -0.69571E-01   -0.69516E-01   688   0.128E+00 0.100E-02
CGA:   8    -0.469329876096E+03   -0.28714E-01   -0.28758E-01   688   0.621E-01 0.735E-03
CGA:   9    -0.469346834739E+03   -0.16959E-01   -0.16952E-01   688   0.223E-01 0.159E-03
CGA:  10    -0.469353630748E+03   -0.67960E-02   -0.67931E-02   688   0.805E-02 0.333E-04
CGA:  11    -0.469355662485E+03   -0.20317E-02   -0.20316E-02   688   0.369E-02 0.311E-04
CGA:  12    -0.469356490194E+03   -0.82771E-03   -0.82863E-03   688   0.129E-02 0.199E-04
CGA:  13    -0.469356901013E+03   -0.41082E-03   -0.41066E-03   688   0.586E-03 0.115E-05
CGA:  14    -0.469357072336E+03   -0.17132E-03   -0.17115E-03   688   0.334E-03 0.313E-05
CGA:  15    -0.469357167710E+03   -0.95374E-04   -0.95438E-04   688   0.159E-03-0.254E-05
   3 F= -.47371418E+03 E0= -.47369332E+03  d E =-.835574E+01  mag=     0.0124
       N       E                     dE             d eps       ncg     rms          ort
SDA:   1    -0.365577540420E+03    0.10378E+03    0.00000E+00   688   0.295E+03 0.000E+00
CGA:   2    -0.442235456663E+03   -0.76658E+02   -0.76645E+02   688   0.110E+03 0.220E+01
CGA:   3    -0.465580390002E+03   -0.23345E+02   -0.23422E+02   688   0.364E+02-0.217E+01
CGA:   4    -0.472610426455E+03   -0.70300E+01   -0.69742E+01   688   0.690E+01 0.607E-01
CGA:   5    -0.474175773167E+03   -0.15653E+01   -0.15688E+01   688   0.193E+01 0.570E-01
CGA:   6    -0.474591607512E+03   -0.41583E+00   -0.41760E+00   688   0.667E+00 0.165E-01
CGA:   7    -0.474758193715E+03   -0.16659E+00   -0.16660E+00   688   0.298E+00 0.535E-02
CGA:   8    -0.474842308971E+03   -0.84115E-01   -0.84090E-01   688   0.150E+00 0.613E-03
CGA:   9    -0.474880235830E+03   -0.37927E-01   -0.37925E-01   688   0.632E-01 0.570E-03
CGA:  10    -0.474897445944E+03   -0.17210E-01   -0.17208E-01   688   0.194E-01 0.111E-03
CGA:  11    -0.474903641392E+03   -0.61954E-02   -0.61934E-02   688   0.641E-02 0.324E-04
CGA:  12    -0.474905661152E+03   -0.20198E-02   -0.20197E-02   688   0.291E-02-0.995E-06
CGA:  13    -0.474906423604E+03   -0.76245E-03   -0.76249E-03   688   0.149E-02-0.403E-05
CGA:  14    -0.474906857436E+03   -0.43383E-03   -0.43395E-03   688   0.578E-03-0.357E-05
CGA:  15    -0.474907077335E+03   -0.21990E-03   -0.22047E-03   688   0.231E-03-0.471E-05
CGA:  16    -0.474907157825E+03   -0.80490E-04   -0.80713E-04   688   0.993E-04-0.251E-05
   4 F= -.47927841E+03 E0= -.47925227E+03  d E =-.556423E+01  mag=     0.0158
       N       E                     dE             d eps       ncg     rms          ort
SDA:   1    -0.472799885574E+03    0.21072E+01    0.00000E+00   688   0.574E+01 0.000E+00
CGA:   2    -0.474349682624E+03   -0.15498E+01   -0.15497E+01   688   0.224E+01-0.238E-01
CGA:   3    -0.474828726994E+03   -0.47904E+00   -0.48414E+00   688   0.611E+00 0.219E-01
CGA:   4    -0.474951840954E+03   -0.12311E+00   -0.12340E+00   688   0.123E+00 0.555E-03
CGA:   5    -0.474979104710E+03   -0.27264E-01   -0.27256E-01   688   0.323E-01-0.258E-04
CGA:   6    -0.474986570504E+03   -0.74658E-02   -0.74655E-02   688   0.997E-02-0.749E-05
CGA:   7    -0.474989521102E+03   -0.29506E-02   -0.29503E-02   688   0.416E-02 0.740E-05
CGA:   8    -0.474990891426E+03   -0.13703E-02   -0.13692E-02   688   0.186E-02 0.160E-04
CGA:   9    -0.474991431843E+03   -0.54042E-03   -0.54023E-03   688   0.785E-03 0.862E-05
CGA:  10    -0.474991629426E+03   -0.19758E-03   -0.19764E-03   688   0.293E-03 0.294E-05
CGA:  11    -0.474991710056E+03   -0.80629E-04   -0.80614E-04   688   0.101E-03 0.225E-05
   5 F= -.47936332E+03 E0= -.47933664E+03  d E =-.564914E+01  mag=     0.0165
       N       E                     dE             d eps       ncg     rms          ort
SDA:   1    -0.448463227290E+03    0.26528E+02    0.00000E+00   688   0.713E+02 0.000E+00
CGA:   2    -0.469630270459E+03   -0.21167E+02   -0.21176E+02   688   0.227E+02-0.188E+00
CGA:   3    -0.474900842046E+03   -0.52706E+01   -0.52692E+01   688   0.577E+01-0.176E-02
CGA:   4    -0.475996440844E+03   -0.10956E+01   -0.11004E+01   688   0.130E+01 0.760E-02
CGA:   5    -0.476288545430E+03   -0.29210E+00   -0.29193E+00   688   0.327E+00-0.114E-02
CGA:   6    -0.476373139993E+03   -0.84595E-01   -0.84600E-01   688   0.113E+00 0.465E-03
CGA:   7    -0.476408675094E+03   -0.35535E-01   -0.35528E-01   688   0.518E-01 0.965E-04
CGA:   8    -0.476425654562E+03   -0.16979E-01   -0.16969E-01   688   0.214E-01 0.132E-03
CGA:   9    -0.476431794237E+03   -0.61397E-02   -0.61397E-02   688   0.772E-02 0.110E-04
CGA:  10    -0.476433863464E+03   -0.20692E-02   -0.20692E-02   688   0.263E-02 0.189E-05
CGA:  11    -0.476434600804E+03   -0.73734E-03   -0.73736E-03   688   0.950E-03-0.695E-06
CGA:  12    -0.476434900634E+03   -0.29983E-03   -0.29988E-03   688   0.406E-03-0.114E-05
CGA:  13    -0.476435030210E+03   -0.12958E-03   -0.12960E-03   688   0.180E-03-0.396E-06
CGA:  14    -0.476435088211E+03   -0.58001E-04   -0.58078E-04   688   0.788E-04-0.154E-05
   6 F= -.48081112E+03 E0= -.48078684E+03  d E =-.144779E+01  mag=     0.0098
       N       E                     dE             d eps       ncg     rms          ort
SDA:   1    -0.475062734646E+03    0.13723E+01    0.00000E+00   688   0.358E+01 0.000E+00
CGA:   2    -0.476152541901E+03   -0.10898E+01   -0.10899E+01   688   0.107E+01-0.286E-02
CGA:   3    -0.476415059679E+03   -0.26252E+00   -0.26254E+00   688   0.236E+00 0.286E-03
CGA:   4    -0.476465546222E+03   -0.50487E-01   -0.50494E-01   688   0.497E-01 0.273E-04
CGA:   5    -0.476477608362E+03   -0.12062E-01   -0.12063E-01   688   0.133E-01 0.200E-04
CGA:   6    -0.476481147160E+03   -0.35388E-02   -0.35388E-02   688   0.510E-02 0.192E-05
CGA:   7    -0.476482762851E+03   -0.16157E-02   -0.16156E-02   688   0.232E-02 0.137E-05
CGA:   8    -0.476483529454E+03   -0.76660E-03   -0.76623E-03   688   0.882E-03 0.626E-05
CGA:   9    -0.476483792855E+03   -0.26340E-03   -0.26333E-03   688   0.308E-03 0.389E-05
CGA:  10    -0.476483873893E+03   -0.81038E-04   -0.81032E-04   688   0.119E-03-0.375E-06
   7 F= -.48086096E+03 E0= -.48083724E+03  d E =-.149764E+01  mag=     0.0069
       N       E                     dE             d eps       ncg     rms          ort
SDA:   1    -0.469633908434E+03    0.68499E+01    0.00000E+00   688   0.206E+02 0.000E+00
CGA:   2    -0.475619997976E+03   -0.59861E+01   -0.59870E+01   688   0.595E+01-0.370E-01
CGA:   3    -0.477050740875E+03   -0.14307E+01   -0.14310E+01   688   0.141E+01 0.293E-02
CGA:   4    -0.477343624614E+03   -0.29288E+00   -0.29289E+00   688   0.284E+00 0.208E-03
CGA:   5    -0.477409955565E+03   -0.66331E-01   -0.66333E-01   688   0.698E-01 0.897E-04
CGA:   6    -0.477427710829E+03   -0.17755E-01   -0.17756E-01   688   0.231E-01 0.180E-04
CGA:   7    -0.477434892171E+03   -0.71813E-02   -0.71811E-02   688   0.986E-02 0.434E-05
CGA:   8    -0.477438216115E+03   -0.33239E-02   -0.33230E-02   688   0.410E-02 0.144E-04
CGA:   9    -0.477439464394E+03   -0.12483E-02   -0.12479E-02   688   0.143E-02 0.132E-04
CGA:  10    -0.477439889227E+03   -0.42483E-03   -0.42490E-03   688   0.449E-03-0.282E-05
CGA:  11    -0.477440029757E+03   -0.14053E-03   -0.14049E-03   688   0.161E-03 0.128E-05
CGA:  12    -0.477440086248E+03   -0.56491E-04   -0.56507E-04   688   0.685E-04-0.203E-06
   8 F= -.48181695E+03 E0= -.48179399E+03  d E =-.955994E+00  mag=     0.0040
       N       E                     dE             d eps       ncg     rms          ort
SDA:   1    -0.408420102506E+03    0.69020E+02    0.00000E+00   688   0.193E+03 0.000E+00
CGA:   2    -0.461054457386E+03   -0.52634E+02   -0.52630E+02   688   0.607E+02-0.133E+00
CGA:   3    -0.475092072917E+03   -0.14038E+02   -0.13993E+02   688   0.155E+02-0.158E+00
CGA:   4    -0.478105459823E+03   -0.30134E+01   -0.30429E+01   688   0.311E+01 0.415E-01
CGA:   5    -0.478824276117E+03   -0.71882E+00   -0.71787E+00   688   0.787E+00-0.511E-02
CGA:   6    -0.479013369326E+03   -0.18909E+00   -0.18914E+00   688   0.268E+00 0.514E-03
CGA:   7    -0.479083347833E+03   -0.69979E-01   -0.69968E-01   688   0.130E+00-0.334E-03
CGA:   8    -0.479118257750E+03   -0.34910E-01   -0.34911E-01   688   0.610E-01 0.109E-03
CGA:   9    -0.479135016304E+03   -0.16759E-01   -0.16759E-01   688   0.213E-01-0.601E-05
CGA:  10    -0.479141401225E+03   -0.63849E-02   -0.63843E-02   688   0.737E-02 0.179E-04
CGA:  11    -0.479143357086E+03   -0.19559E-02   -0.19556E-02   688   0.307E-02-0.932E-05
CGA:  12    -0.479144111044E+03   -0.75396E-03   -0.75378E-03   688   0.125E-02-0.517E-05
CGA:  13    -0.479144485163E+03   -0.37412E-03   -0.37414E-03   688   0.550E-03 0.573E-06
CGA:  14    -0.479144654370E+03   -0.16921E-03   -0.16941E-03   688   0.267E-03-0.497E-05
CGA:  15    -0.479144731146E+03   -0.76777E-04   -0.76784E-04   688   0.124E-03-0.223E-06
   9 F= -.48352040E+03 E0= -.48349918E+03  d E =-.265944E+01  mag=     0.0012
       N       E                     dE             d eps       ncg     rms          ort
SDA:   1    -0.188081125292E+03    0.29106E+03    0.00000E+00   688   0.937E+03 0.000E+00
CGA:   2    -0.371871744482E+03   -0.18379E+03   -0.19103E+03   688   0.249E+03 0.221E+02
CGA:   3    -0.445976363081E+03   -0.74105E+02   -0.74136E+02   688   0.888E+02-0.115E+01
CGA:   4    -0.466863380022E+03   -0.20887E+02   -0.20864E+02   688   0.350E+02-0.966E-02
CGA:   5    -0.473605951949E+03   -0.67426E+01   -0.68582E+01   688   0.111E+02 0.364E+00
CGA:   6    -0.476308132974E+03   -0.27022E+01   -0.27114E+01   688   0.579E+01 0.133E+00
CGA:   7    -0.477353518879E+03   -0.10454E+01   -0.10333E+01   688   0.299E+01-0.236E-01
CGA:   8    -0.477836461321E+03   -0.48294E+00   -0.48534E+00   688   0.930E+00-0.714E-03
CGA:   9    -0.478067036470E+03   -0.23058E+00   -0.23056E+00   688   0.329E+00-0.464E-03
CGA:  10    -0.478150413589E+03   -0.83377E-01   -0.83375E-01   688   0.149E+00-0.352E-03
CGA:  11    -0.478175792487E+03   -0.25379E-01   -0.25294E-01   688   0.885E-01 0.176E-04
CGA:  12    -0.478193084988E+03   -0.17293E-01   -0.17287E-01   688   0.314E-01-0.593E-05
CGA:  13    -0.478201670895E+03   -0.85859E-02   -0.85877E-02   688   0.136E-01-0.460E-04
CGA:  14    -0.478204614098E+03   -0.29432E-02   -0.29419E-02   688   0.100E-01-0.440E-05
CGA:  15    -0.478206208106E+03   -0.15940E-02   -0.15903E-02   688   0.351E-02 0.432E-05
CGA:  16    -0.478207220156E+03   -0.10121E-02   -0.10122E-02   688   0.157E-02-0.543E-06
CGA:  17    -0.478207583479E+03   -0.36332E-03   -0.36317E-03   688   0.129E-02-0.693E-05
CGA:  18    -0.478207790920E+03   -0.20744E-03   -0.20721E-03   688   0.509E-03 0.106E-05
CGA:  19    -0.478207941058E+03   -0.15014E-03   -0.15019E-03   688   0.253E-03-0.740E-06
CGA:  20    -0.478207999006E+03   -0.57948E-04   -0.57971E-04   688   0.217E-03 0.194E-05
  10 F= -.48261510E+03 E0= -.48259392E+03  d E =-.175414E+01  mag=    -0.0070
       N       E                     dE             d eps       ncg     rms          ort
SDA:   1    -0.361132856312E+03    0.11708E+03    0.00000E+00   688   0.332E+03 0.000E+00
CGA:   2    -0.444864647403E+03   -0.83732E+02   -0.83565E+02   688   0.110E+03 0.739E+01
CGA:   3    -0.471739027492E+03   -0.26874E+02   -0.26870E+02   688   0.289E+02-0.181E+01
CGA:   4    -0.477323820212E+03   -0.55848E+01   -0.55976E+01   688   0.694E+01 0.890E-01
CGA:   5    -0.478617874724E+03   -0.12941E+01   -0.13002E+01   688   0.230E+01 0.140E-01
CGA:   6    -0.479103759881E+03   -0.48589E+00   -0.48308E+00   688   0.693E+00-0.397E-01
CGA:   7    -0.479272524981E+03   -0.16877E+00   -0.16876E+00   688   0.271E+00 0.130E-03
CGA:   8    -0.479347902946E+03   -0.75378E-01   -0.75445E-01   688   0.149E+00-0.949E-03
CGA:   9    -0.479377582993E+03   -0.29680E-01   -0.29708E-01   688   0.732E-01 0.256E-03
CGA:  10    -0.479394784967E+03   -0.17202E-01   -0.17202E-01   688   0.249E-01 0.529E-04
CGA:  11    -0.479401977104E+03   -0.71921E-02   -0.71925E-02   688   0.103E-01-0.157E-05
CGA:  12    -0.479404113250E+03   -0.21361E-02   -0.21371E-02   688   0.554E-02 0.752E-05
CGA:  13    -0.479405401537E+03   -0.12883E-02   -0.12885E-02   688   0.187E-02 0.324E-04
CGA:  14    -0.479405995800E+03   -0.59426E-03   -0.59410E-03   688   0.103E-02-0.272E-06
CGA:  15    -0.479406230987E+03   -0.23519E-03   -0.23526E-03   688   0.560E-03 0.243E-05
CGA:  16    -0.479406374588E+03   -0.14360E-03   -0.14367E-03   688   0.266E-03-0.464E-05
CGA:  17    -0.479406442794E+03   -0.68206E-04   -0.68204E-04   688   0.121E-03 0.638E-07
  11 F= -.48378215E+03 E0= -.48376158E+03  d E =-.292119E+01  mag=    -0.0077
       N       E                     dE             d eps       ncg     rms          ort
SDA:   1    -0.464421099354E+03    0.14985E+02    0.00000E+00   688   0.430E+02 0.000E+00
CGA:   2    -0.476756467817E+03   -0.12335E+02   -0.12346E+02   688   0.125E+02-0.143E+00
CGA:   3    -0.479694824832E+03   -0.29384E+01   -0.29375E+01   688   0.333E+01-0.389E-01
CGA:   4    -0.480311339936E+03   -0.61652E+00   -0.61534E+00   688   0.852E+00-0.344E-02
CGA:   5    -0.480463869548E+03   -0.15253E+00   -0.15354E+00   688   0.282E+00 0.279E-02
CGA:   6    -0.480513639968E+03   -0.49770E-01   -0.50073E-01   688   0.890E-01 0.721E-03
CGA:   7    -0.480536501038E+03   -0.22861E-01   -0.22864E-01   688   0.329E-01-0.813E-04
CGA:   8    -0.480547128746E+03   -0.10628E-01   -0.10621E-01   688   0.169E-01 0.642E-04
CGA:   9    -0.480551209399E+03   -0.40807E-02   -0.40807E-02   688   0.105E-01 0.728E-04
CGA:  10    -0.480553345245E+03   -0.21358E-02   -0.21358E-02   688   0.316E-02 0.231E-05
CGA:  11    -0.480554306466E+03   -0.96122E-03   -0.96092E-03   688   0.111E-02 0.470E-05
CGA:  12    -0.480554574771E+03   -0.26830E-03   -0.26830E-03   688   0.656E-03-0.196E-05
CGA:  13    -0.480554712314E+03   -0.13754E-03   -0.13761E-03   688   0.232E-03 0.239E-05
CGA:  14    -0.480554788139E+03   -0.75824E-04   -0.75895E-04   688   0.125E-03-0.737E-06
  12 F= -.48492772E+03 E0= -.48490637E+03  d E =-.114557E+01  mag=    -0.0098
       N       E                     dE             d eps       ncg     rms          ort
SDA:   1    -0.336700691305E+03    0.14385E+03    0.00000E+00   688   0.406E+03 0.000E+00
CGA:   2    -0.443435153266E+03   -0.10673E+03   -0.10676E+03   688   0.126E+03-0.595E+00
CGA:   3    -0.473749881660E+03   -0.30315E+02   -0.30311E+02   688   0.309E+02-0.234E+00
CGA:   4    -0.479961615758E+03   -0.62117E+01   -0.61539E+01   688   0.738E+01-0.203E+00
CGA:   5    -0.481441692646E+03   -0.14801E+01   -0.14864E+01   688   0.232E+01 0.495E-01
CGA:   6    -0.481896732726E+03   -0.45504E+00   -0.45511E+00   688   0.889E+00-0.210E-02
CGA:   7    -0.482097310666E+03   -0.20058E+00   -0.20048E+00   688   0.333E+00-0.325E-02
CGA:   8    -0.482197013315E+03   -0.99703E-01   -0.99739E-01   688   0.163E+00-0.368E-03
CGA:   9    -0.482237620345E+03   -0.40607E-01   -0.40610E-01   688   0.897E-01-0.106E-03
CGA:  10    -0.482255822466E+03   -0.18202E-01   -0.18185E-01   688   0.336E-01-0.115E-03
CGA:  11    -0.482265156328E+03   -0.93339E-02   -0.93325E-02   688   0.115E-01 0.317E-04
CGA:  12    -0.482267911076E+03   -0.27547E-02   -0.27547E-02   688   0.646E-02-0.127E-04
CGA:  13    -0.482269268096E+03   -0.13570E-02   -0.13567E-02   688   0.236E-02-0.544E-06
CGA:  14    -0.482270005585E+03   -0.73749E-03   -0.73794E-03   688   0.118E-02-0.536E-05
CGA:  15    -0.482270275798E+03   -0.27021E-03   -0.27020E-03   688   0.715E-03 0.240E-06
CGA:  16    -0.482270458933E+03   -0.18314E-03   -0.18321E-03   688   0.275E-03-0.519E-05
CGA:  17    -0.482270538909E+03   -0.79976E-04   -0.80006E-04   688   0.174E-03-0.512E-06
  13 F= -.48667241E+03 E0= -.48665009E+03  d E =-.289026E+01  mag=    -0.0154
       N       E                     dE             d eps       ncg     rms          ort
SDA:   1    -0.478531135300E+03    0.37393E+01    0.00000E+00   688   0.101E+02 0.000E+00
CGA:   2    -0.481394010747E+03   -0.28629E+01   -0.28645E+01   688   0.304E+01-0.250E-01
CGA:   3    -0.482062626612E+03   -0.66862E+00   -0.66878E+00   688   0.109E+01 0.194E-02
CGA:   4    -0.482226479109E+03   -0.16385E+00   -0.16421E+00   688   0.264E+00-0.269E-02
CGA:   5    -0.482278040169E+03   -0.51561E-01   -0.51507E-01   688   0.619E-01-0.321E-03
CGA:   6    -0.482292082757E+03   -0.14043E-01   -0.14049E-01   688   0.195E-01 0.264E-03
CGA:   7    -0.482296868664E+03   -0.47859E-02   -0.47862E-02   688   0.969E-02-0.290E-04
CGA:   8    -0.482299020515E+03   -0.21519E-02   -0.21522E-02   688   0.544E-02 0.111E-04
CGA:   9    -0.482300337238E+03   -0.13167E-02   -0.13167E-02   688   0.225E-02 0.675E-05
CGA:  10    -0.482300995191E+03   -0.65795E-03   -0.65749E-03   688   0.915E-03 0.811E-05
CGA:  11    -0.482301208553E+03   -0.21336E-03   -0.21335E-03   688   0.548E-03-0.112E-05
CGA:  12    -0.482301327936E+03   -0.11938E-03   -0.11943E-03   688   0.197E-03 0.180E-05
CGA:  13    -0.482301406150E+03   -0.78214E-04   -0.78443E-04   688   0.172E-03-0.144E-05
  14 F= -.48670491E+03 E0= -.48668285E+03  d E =-.292276E+01  mag=    -0.0286
       N       E                     dE             d eps       ncg     rms          ort
SDA:   1    -0.473817078724E+03    0.84842E+01    0.00000E+00   688   0.243E+02 0.000E+00
CGA:   2    -0.480846566135E+03   -0.70295E+01   -0.70340E+01   688   0.697E+01-0.683E-01
CGA:   3    -0.482490563636E+03   -0.16440E+01   -0.16444E+01   688   0.249E+01 0.104E-01
CGA:   4    -0.482857991963E+03   -0.36743E+00   -0.36965E+00   688   0.635E+00-0.158E-01
CGA:   5    -0.482983248459E+03   -0.12526E+00   -0.12510E+00   688   0.152E+00-0.889E-03
CGA:   6    -0.483019393359E+03   -0.36145E-01   -0.36155E-01   688   0.496E-01 0.992E-03
CGA:   7    -0.483032155911E+03   -0.12763E-01   -0.12766E-01   688   0.297E-01-0.165E-03
CGA:   8    -0.483038569960E+03   -0.64140E-02   -0.64188E-02   688   0.147E-01 0.727E-04
CGA:   9    -0.483042537679E+03   -0.39677E-02   -0.39667E-02   688   0.613E-02 0.258E-04
CGA:  10    -0.483044219476E+03   -0.16818E-02   -0.16811E-02   688   0.268E-02 0.181E-04
CGA:  11    -0.483044819182E+03   -0.59971E-03   -0.59972E-03   688   0.140E-02-0.186E-05
CGA:  12    -0.483045150950E+03   -0.33177E-03   -0.33181E-03   688   0.566E-03 0.417E-05
CGA:  13    -0.483045364484E+03   -0.21353E-03   -0.21414E-03   688   0.467E-03-0.444E-05
CGA:  14    -0.483045508940E+03   -0.14446E-03   -0.14417E-03   688   0.528E-03 0.415E-05
CGA:  15    -0.483045723722E+03   -0.21478E-03   -0.21469E-03   688   0.614E-03 0.455E-06
CGA:  16    -0.483046104767E+03   -0.38105E-03   -0.38482E-03   688   0.137E-02-0.111E-04
CGA:  17    -0.483046674531E+03   -0.56976E-03   -0.59492E-03   688   0.238E-02-0.136E-03
CGA:  18    -0.483047240191E+03   -0.56566E-03   -0.55991E-03   688   0.208E-02-0.898E-04
CGA:  19    -0.483047683754E+03   -0.44356E-03   -0.44286E-03   688   0.194E-02-0.135E-05
CGA:  20    -0.483048051434E+03   -0.36768E-03   -0.36501E-03   688   0.148E-02-0.145E-05
CGA:  21    -0.483048339100E+03   -0.28767E-03   -0.28743E-03   688   0.138E-02-0.131E-05
CGA:  22    -0.483048572278E+03   -0.23318E-03   -0.23315E-03   688   0.973E-03 0.201E-06
CGA:  23    -0.483048729708E+03   -0.15743E-03   -0.15770E-03   688   0.748E-03-0.146E-06
CGA:  24    -0.483048855809E+03   -0.12610E-03   -0.12608E-03   688   0.550E-03-0.853E-06
CGA:  25    -0.483048945617E+03   -0.89808E-04   -0.89716E-04   688   0.441E-03-0.101E-05
  15 F= -.48745213E+03 E0= -.48744351E+03  d E =-.747224E+00  mag=    -0.0378
       N       E                     dE             d eps       ncg     rms          ort
SDA:   1    -0.473413235711E+03    0.96356E+01    0.00000E+00   688   0.260E+02 0.000E+00
CGA:   2    -0.480997798116E+03   -0.75846E+01   -0.75893E+01   688   0.709E+01-0.709E-01
CGA:   3    -0.482855051494E+03   -0.18573E+01   -0.18571E+01   688   0.158E+01 0.717E-02
CGA:   4    -0.483196952439E+03   -0.34190E+00   -0.34203E+00   688   0.331E+00 0.133E-02
CGA:   5    -0.483277235251E+03   -0.80283E-01   -0.80278E-01   688   0.833E-01-0.192E-03
CGA:   6    -0.483300781511E+03   -0.23546E-01   -0.23544E-01   688   0.331E-01 0.563E-04
CGA:   7    -0.483311156093E+03   -0.10375E-01   -0.10376E-01   688   0.164E-01-0.232E-04
CGA:   8    -0.483316222724E+03   -0.50666E-02   -0.50645E-02   688   0.688E-02 0.346E-04
CGA:   9    -0.483318241409E+03   -0.20187E-02   -0.20190E-02   688   0.245E-02-0.544E-05
CGA:  10    -0.483318942323E+03   -0.70091E-03   -0.70098E-03   688   0.916E-03-0.113E-05
CGA:  11    -0.483319203533E+03   -0.26121E-03   -0.26134E-03   688   0.433E-03-0.417E-05
CGA:  12    -0.483319346332E+03   -0.14280E-03   -0.14275E-03   688   0.220E-03 0.123E-05
CGA:  13    -0.483319437589E+03   -0.91257E-04   -0.91451E-04   688   0.144E-03-0.125E-05
  16 F= -.48772488E+03 E0= -.48771331E+03  d E =-.101997E+01  mag=    -0.0346
       N       E                     dE             d eps       ncg     rms          ort
SDA:   1    -0.476458146578E+03    0.68612E+01    0.00000E+00   688   0.188E+02 0.000E+00
CGA:   2    -0.481932327220E+03   -0.54742E+01   -0.54745E+01   688   0.624E+01-0.120E-01
CGA:   3    -0.483324646709E+03   -0.13923E+01   -0.13756E+01   688   0.189E+01-0.589E-01
CGA:   4    -0.483676609144E+03   -0.35196E+00   -0.35350E+00   688   0.361E+00 0.137E-02
CGA:   5    -0.483761204237E+03   -0.84595E-01   -0.84590E-01   688   0.943E-01-0.220E-04
CGA:   6    -0.483784679031E+03   -0.23475E-01   -0.23478E-01   688   0.331E-01 0.104E-03
CGA:   7    -0.483794360869E+03   -0.96818E-02   -0.96816E-02   688   0.147E-01-0.212E-05
CGA:   8    -0.483799079831E+03   -0.47190E-02   -0.47176E-02   688   0.651E-02 0.226E-04
CGA:   9    -0.483800978997E+03   -0.18992E-02   -0.18991E-02   688   0.277E-02 0.147E-05
CGA:  10    -0.483801651233E+03   -0.67224E-03   -0.67255E-03   688   0.954E-03 0.527E-05
CGA:  11    -0.483801925918E+03   -0.27469E-03   -0.27474E-03   688   0.331E-03-0.361E-05
CGA:  12    -0.483802033835E+03   -0.10792E-03   -0.10784E-03   688   0.151E-03 0.129E-05
CGA:  13    -0.483802085198E+03   -0.51363E-04   -0.51474E-04   688   0.896E-04-0.172E-05
  17 F= -.48820746E+03 E0= -.48819763E+03  d E =-.482587E+00  mag=    -0.0263
       N       E                     dE             d eps       ncg     rms          ort
SDA:   1    -0.479430521895E+03    0.43715E+01    0.00000E+00   688   0.114E+02 0.000E+00
CGA:   2    -0.482764430791E+03   -0.33339E+01   -0.33341E+01   688   0.381E+01-0.577E-02
CGA:   3    -0.483603944711E+03   -0.83951E+00   -0.83233E+00   688   0.117E+01-0.233E-01
CGA:   4    -0.483820455028E+03   -0.21651E+00   -0.21752E+00   688   0.222E+00 0.601E-03
CGA:   5    -0.483872547662E+03   -0.52093E-01   -0.52095E-01   688   0.576E-01 0.308E-04
CGA:   6    -0.483886945820E+03   -0.14398E-01   -0.14400E-01   688   0.201E-01 0.585E-04
CGA:   7    -0.483892903720E+03   -0.59579E-02   -0.59579E-02   688   0.893E-02-0.776E-05
CGA:   8    -0.483895830864E+03   -0.29271E-02   -0.29264E-02   688   0.390E-02 0.116E-04
CGA:   9    -0.483897004837E+03   -0.11740E-02   -0.11738E-02   688   0.166E-02 0.234E-05
CGA:  10    -0.483897407989E+03   -0.40315E-03   -0.40337E-03   688   0.596E-03 0.348E-05
CGA:  11    -0.483897581460E+03   -0.17347E-03   -0.17352E-03   688   0.211E-03-0.295E-05
CGA:  12    -0.483897653349E+03   -0.71889E-04   -0.71810E-04   688   0.103E-03 0.107E-05
  18 F= -.48830326E+03 E0= -.48829547E+03  d E =-.578387E+00  mag=    -0.0180
       N       E                     dE             d eps       ncg     rms          ort
SDA:   1    -0.479265938695E+03    0.46316E+01    0.00000E+00   688   0.123E+02 0.000E+00
CGA:   2    -0.483114581540E+03   -0.38486E+01   -0.38484E+01   688   0.388E+01 0.549E-02
CGA:   3    -0.484040035091E+03   -0.92545E+00   -0.92539E+00   688   0.899E+00-0.251E-04
CGA:   4    -0.484231165279E+03   -0.19113E+00   -0.19134E+00   688   0.184E+00 0.637E-03
CGA:   5    -0.484275065130E+03   -0.43900E-01   -0.43899E-01   688   0.555E-01-0.115E-04
CGA:   6    -0.484289144124E+03   -0.14079E-01   -0.14083E-01   688   0.219E-01 0.917E-04
CGA:   7    -0.484295617964E+03   -0.64738E-02   -0.64741E-02   688   0.996E-02-0.137E-04
CGA:   8    -0.484298830961E+03   -0.32130E-02   -0.32122E-02   688   0.378E-02 0.147E-04
CGA:   9    -0.484300014451E+03   -0.11835E-02   -0.11835E-02   688   0.127E-02 0.392E-06
CGA:  10    -0.484300364476E+03   -0.35002E-03   -0.35004E-03   688   0.466E-03 0.252E-05
CGA:  11    -0.484300491849E+03   -0.12737E-03   -0.12737E-03   688   0.178E-03-0.892E-06
CGA:  12    -0.484300550428E+03   -0.58579E-04   -0.58487E-04   688   0.747E-04 0.180E-05
  19 F= -.48870670E+03 E0= -.48869994E+03  d E =-.403441E+00  mag=     0.0039
       N       E                     dE             d eps       ncg     rms          ort
SDA:   1    -0.465875004462E+03    0.18425E+02    0.00000E+00   688   0.459E+02 0.000E+00
CGA:   2    -0.480207672326E+03   -0.14333E+02   -0.14333E+02   688   0.143E+02 0.351E-02
CGA:   3    -0.483640270566E+03   -0.34326E+01   -0.34355E+01   688   0.321E+01 0.273E-01
CGA:   4    -0.484339746464E+03   -0.69948E+00   -0.70044E+00   688   0.646E+00 0.362E-02
CGA:   5    -0.484501987486E+03   -0.16224E+00   -0.16224E+00   688   0.181E+00 0.122E-03
CGA:   6    -0.484553606284E+03   -0.51619E-01   -0.51618E-01   688   0.689E-01 0.589E-04
CGA:   7    -0.484576260643E+03   -0.22654E-01   -0.22651E-01   688   0.311E-01 0.433E-04
CGA:   8    -0.484586320463E+03   -0.10060E-01   -0.10059E-01   688   0.114E-01 0.240E-04
CGA:   9    -0.484589819711E+03   -0.34992E-02   -0.34990E-02   688   0.336E-02 0.735E-05
CGA:  10    -0.484590880699E+03   -0.10610E-02   -0.10610E-02   688   0.101E-02 0.401E-06
CGA:  11    -0.484591241075E+03   -0.36038E-03   -0.36021E-03   688   0.368E-03 0.248E-05
CGA:  12    -0.484591387593E+03   -0.14652E-03   -0.14671E-03   688   0.169E-03-0.180E-05
CGA:  13    -0.484591444748E+03   -0.57155E-04   -0.57153E-04   688   0.826E-04 0.352E-07
  20 F= -.48899681E+03 E0= -.48899121E+03  d E =-.693547E+00  mag=     0.0284
       N       E                     dE             d eps       ncg     rms          ort
SDA:   1    -0.479040133963E+03    0.55513E+01    0.00000E+00   688   0.143E+02 0.000E+00
CGA:   2    -0.483588768707E+03   -0.45486E+01   -0.45492E+01   688   0.445E+01-0.161E-01
CGA:   3    -0.484657563233E+03   -0.10688E+01   -0.10695E+01   688   0.983E+00 0.404E-02
CGA:   4    -0.484870818287E+03   -0.21326E+00   -0.21338E+00   688   0.200E+00 0.275E-03
CGA:   5    -0.484919378337E+03   -0.48560E-01   -0.48558E-01   688   0.609E-01 0.293E-04
CGA:   6    -0.484935869493E+03   -0.16491E-01   -0.16491E-01   688   0.243E-01-0.122E-04
CGA:   7    -0.484943213593E+03   -0.73441E-02   -0.73440E-02   688   0.114E-01 0.808E-05
CGA:   8    -0.484946776897E+03   -0.35633E-02   -0.35633E-02   688   0.437E-02 0.152E-05
CGA:   9    -0.484948097557E+03   -0.13207E-02   -0.13206E-02   688   0.133E-02 0.612E-05
CGA:  10    -0.484948513642E+03   -0.41609E-03   -0.41610E-03   688   0.403E-03-0.760E-06
CGA:  11    -0.484948654859E+03   -0.14122E-03   -0.14117E-03   688   0.151E-03 0.801E-06
CGA:  12    -0.484948713712E+03   -0.58853E-04   -0.58818E-04   688   0.677E-04 0.383E-06
  21 F= -.48935698E+03 E0= -.48935077E+03  d E =-.360166E+00  mag=     0.0335
       N       E                     dE             d eps       ncg     rms          ort
SDA:   1    -0.479131218930E+03    0.58174E+01    0.00000E+00   688   0.144E+02 0.000E+00
CGA:   2    -0.483691667139E+03   -0.45604E+01   -0.45609E+01   688   0.448E+01-0.168E-01
CGA:   3    -0.484764563141E+03   -0.10729E+01   -0.10736E+01   688   0.994E+00 0.354E-02
CGA:   4    -0.484980000415E+03   -0.21544E+00   -0.21558E+00   688   0.201E+00 0.259E-03
CGA:   5    -0.485028943883E+03   -0.48943E-01   -0.48940E-01   688   0.612E-01 0.246E-04
CGA:   6    -0.485045575709E+03   -0.16632E-01   -0.16632E-01   688   0.243E-01-0.977E-05
CGA:   7    -0.485052993253E+03   -0.74175E-02   -0.74175E-02   688   0.114E-01 0.627E-05
CGA:   8    -0.485056568311E+03   -0.35751E-02   -0.35752E-02   688   0.437E-02-0.215E-05
CGA:   9    -0.485057886882E+03   -0.13186E-02   -0.13185E-02   688   0.134E-02 0.585E-05
CGA:  10    -0.485058307145E+03   -0.42026E-03   -0.42029E-03   688   0.416E-03-0.128E-05
CGA:  11    -0.485058452356E+03   -0.14521E-03   -0.14515E-03   688   0.162E-03 0.112E-05
CGA:  12    -0.485058513790E+03   -0.61434E-04   -0.61434E-04   688   0.808E-04 0.561E-08
  22 F= -.48946963E+03 E0= -.48946244E+03  d E =-.472824E+00  mag=     0.0387
       N       E                     dE             d eps       ncg     rms          ort
SDA:   1    -0.477296255745E+03    0.77622E+01    0.00000E+00   688   0.205E+02 0.000E+00
CGA:   2    -0.483344635566E+03   -0.60484E+01   -0.60470E+01   688   0.672E+01-0.627E-01
CGA:   3    -0.484901063417E+03   -0.15564E+01   -0.15584E+01   688   0.158E+01 0.117E-01
CGA:   4    -0.485235992914E+03   -0.33493E+00   -0.33518E+00   688   0.305E+00 0.637E-03
CGA:   5    -0.485310207780E+03   -0.74215E-01   -0.74215E-01   688   0.776E-01 0.771E-04
CGA:   6    -0.485331674493E+03   -0.21467E-01   -0.21467E-01   688   0.286E-01 0.102E-04
CGA:   7    -0.485340150857E+03   -0.84764E-02   -0.84763E-02   688   0.136E-01 0.115E-04
CGA:   8    -0.485344270041E+03   -0.41192E-02   -0.41191E-02   688   0.573E-02 0.870E-05
CGA:   9    -0.485345990831E+03   -0.17208E-02   -0.17207E-02   688   0.181E-02 0.130E-04
CGA:  10    -0.485346558189E+03   -0.56736E-03   -0.56742E-03   688   0.534E-03-0.311E-05
CGA:  11    -0.485346735461E+03   -0.17727E-03   -0.17729E-03   688   0.189E-03-0.378E-06
CGA:  12    -0.485346803153E+03   -0.67692E-04   -0.67704E-04   688   0.822E-04-0.178E-06
  23 F= -.48976102E+03 E0= -.48975433E+03  d E =-.291387E+00  mag=     0.0440
       N       E                     dE             d eps       ncg     rms          ort
SDA:   1    -0.484904165369E+03    0.44257E+00    0.00000E+00   688   0.114E+01 0.000E+00
CGA:   2    -0.485244089618E+03   -0.33992E+00   -0.33992E+00   688   0.370E+00-0.626E-03
CGA:   3    -0.485330754239E+03   -0.86665E-01   -0.86656E-01   688   0.879E-01-0.232E-04
CGA:   4    -0.485349315154E+03   -0.18561E-01   -0.18566E-01   688   0.168E-01 0.194E-04
CGA:   5    -0.485353392927E+03   -0.40778E-02   -0.40781E-02   688   0.431E-02 0.729E-05
CGA:   6    -0.485354583257E+03   -0.11903E-02   -0.11904E-02   688   0.156E-02 0.289E-05
CGA:   7    -0.485355063248E+03   -0.47999E-03   -0.48002E-03   688   0.736E-03-0.173E-05
CGA:   8    -0.485355293947E+03   -0.23070E-03   -0.23065E-03   688   0.307E-03 0.227E-05
CGA:   9    -0.485355386280E+03   -0.92333E-04   -0.92318E-04   688   0.100E-03 0.209E-05
  24 F= -.48977032E+03 E0= -.48976380E+03  d E =-.300689E+00  mag=     0.0443
       N       E                     dE             d eps       ncg     rms          ort
SDA:   1    -0.478380562430E+03    0.69747E+01    0.00000E+00   688   0.189E+02 0.000E+00
CGA:   2    -0.483892780960E+03   -0.55122E+01   -0.55121E+01   688   0.593E+01-0.184E-01
CGA:   3    -0.485309840918E+03   -0.14171E+01   -0.14170E+01   688   0.133E+01 0.105E-02
CGA:   4    -0.485599555333E+03   -0.28971E+00   -0.28998E+00   688   0.287E+00 0.735E-03
CGA:   5    -0.485662966754E+03   -0.63411E-01   -0.63381E-01   688   0.814E-01-0.358E-05
CGA:   6    -0.485683601678E+03   -0.20635E-01   -0.20638E-01   688   0.296E-01 0.239E-04
CGA:   7    -0.485692383603E+03   -0.87819E-02   -0.87813E-02   688   0.131E-01 0.285E-04
CGA:   8    -0.485696748792E+03   -0.43652E-02   -0.43641E-02   688   0.541E-02 0.206E-04
CGA:   9    -0.485698437706E+03   -0.16889E-02   -0.16887E-02   688   0.174E-02 0.637E-05
CGA:  10    -0.485698984856E+03   -0.54715E-03   -0.54712E-03   688   0.503E-03 0.103E-05
CGA:  11    -0.485699157317E+03   -0.17246E-03   -0.17245E-03   688   0.182E-03 0.115E-06
CGA:  12    -0.485699222773E+03   -0.65457E-04   -0.65401E-04   688   0.860E-04 0.787E-06
  25 F= -.49011447E+03 E0= -.49010874E+03  d E =-.344145E+00  mag=     0.0510
       N       E                     dE             d eps       ncg     rms          ort
SDA:   1    -0.476102049305E+03    0.95971E+01    0.00000E+00   688   0.252E+02 0.000E+00
CGA:   2    -0.483429600598E+03   -0.73276E+01   -0.73271E+01   688   0.790E+01-0.334E-01
CGA:   3    -0.485318373955E+03   -0.18888E+01   -0.18896E+01   688   0.178E+01 0.591E-02
CGA:   4    -0.485702722517E+03   -0.38435E+00   -0.38475E+00   688   0.391E+00 0.102E-02
CGA:   5    -0.485788259373E+03   -0.85537E-01   -0.85477E-01   688   0.109E+00-0.241E-04
CGA:   6    -0.485816126499E+03   -0.27867E-01   -0.27872E-01   688   0.387E-01 0.570E-04
CGA:   7    -0.485827885315E+03   -0.11759E-01   -0.11758E-01   688   0.172E-01 0.323E-04
CGA:   8    -0.485833654109E+03   -0.57688E-02   -0.57673E-02   688   0.708E-02 0.263E-04
CGA:   9    -0.485835867693E+03   -0.22136E-02   -0.22134E-02   688   0.229E-02 0.684E-05
CGA:  10    -0.485836582760E+03   -0.71507E-03   -0.71503E-03   688   0.677E-03 0.134E-05
CGA:  11    -0.485836807588E+03   -0.22483E-03   -0.22483E-03   688   0.258E-03-0.230E-07
CGA:  12    -0.485836894791E+03   -0.87203E-04   -0.87155E-04   688   0.120E-03 0.104E-05
  26 F= -.49025209E+03 E0= -.49024680E+03  d E =-.481767E+00  mag=     0.0514
       N       E                     dE             d eps       ncg     rms          ort
SDA:   1    -0.477222369161E+03    0.86144E+01    0.00000E+00   688   0.229E+02 0.000E+00
CGA:   2    -0.483974313945E+03   -0.67519E+01   -0.67518E+01   688   0.711E+01-0.231E-01
CGA:   3    -0.485647342427E+03   -0.16730E+01   -0.16756E+01   688   0.168E+01 0.115E-01
CGA:   4    -0.485992618412E+03   -0.34528E+00   -0.34574E+00   688   0.381E+00 0.563E-03
CGA:   5    -0.486074316998E+03   -0.81699E-01   -0.81643E-01   688   0.977E-01-0.534E-05
CGA:   6    -0.486100196496E+03   -0.25879E-01   -0.25881E-01   688   0.331E-01 0.189E-04
CGA:   7    -0.486110591728E+03   -0.10395E-01   -0.10395E-01   688   0.151E-01 0.514E-05
CGA:   8    -0.486115559776E+03   -0.49680E-02   -0.49672E-02   688   0.645E-02 0.215E-04
CGA:   9    -0.486117505044E+03   -0.19453E-02   -0.19452E-02   688   0.206E-02 0.561E-05
CGA:  10    -0.486118142019E+03   -0.63697E-03   -0.63696E-03   688   0.584E-03 0.844E-06
CGA:  11    -0.486118339798E+03   -0.19778E-03   -0.19773E-03   688   0.206E-03 0.102E-05
CGA:  12    -0.486118415243E+03   -0.75446E-04   -0.75402E-04   688   0.894E-04 0.628E-06
  27 F= -.49053022E+03 E0= -.49052423E+03  d E =-.278132E+00  mag=     0.0605
       N       E                     dE             d eps       ncg     rms          ort
SDA:   1    -0.484637963209E+03    0.14804E+01    0.00000E+00   688   0.387E+01 0.000E+00
CGA:   2    -0.485784706281E+03   -0.11467E+01   -0.11467E+01   688   0.117E+01-0.162E-02
CGA:   3    -0.486068164819E+03   -0.28346E+00   -0.28357E+00   688   0.266E+00 0.568E-03
CGA:   4    -0.486124868778E+03   -0.56704E-01   -0.56722E-01   688   0.571E-01 0.172E-04
CGA:   5    -0.486137416660E+03   -0.12548E-01   -0.12547E-01   688   0.157E-01 0.204E-04
CGA:   6    -0.486141460710E+03   -0.40441E-02   -0.40439E-02   688   0.549E-02-0.760E-05
CGA:   7    -0.486143166043E+03   -0.17053E-02   -0.17053E-02   688   0.249E-02 0.271E-05
CGA:   8    -0.486143994315E+03   -0.82827E-03   -0.82803E-03   688   0.103E-02 0.553E-05
CGA:   9    -0.486144312096E+03   -0.31778E-03   -0.31775E-03   688   0.329E-03 0.198E-05
CGA:  10    -0.486144414245E+03   -0.10215E-03   -0.10214E-03   688   0.962E-04 0.349E-06
CGA:  11    -0.486144447223E+03   -0.32979E-04   -0.32970E-04   688   0.345E-04 0.176E-06
  28 F= -.49055488E+03 E0= -.49054851E+03  d E =-.302794E+00  mag=     0.0647
       N       E                     dE             d eps       ncg     rms          ort
SDA:   1    -0.479462443630E+03    0.66820E+01    0.00000E+00   688   0.176E+02 0.000E+00
CGA:   2    -0.484712171688E+03   -0.52497E+01   -0.52497E+01   688   0.530E+01-0.247E-01
CGA:   3    -0.485985231590E+03   -0.12731E+01   -0.12742E+01   688   0.122E+01 0.561E-02
CGA:   4    -0.486237997380E+03   -0.25277E+00   -0.25289E+00   688   0.265E+00 0.238E-03
CGA:   5    -0.486295993161E+03   -0.57996E-01   -0.57972E-01   688   0.687E-01 0.317E-04
CGA:   6    -0.486313605871E+03   -0.17613E-01   -0.17614E-01   688   0.230E-01 0.102E-04
CGA:   7    -0.486320660668E+03   -0.70548E-02   -0.70547E-02   688   0.105E-01 0.444E-05
CGA:   8    -0.486324016526E+03   -0.33559E-02   -0.33555E-02   688   0.444E-02 0.118E-04
CGA:   9    -0.486325396369E+03   -0.13798E-02   -0.13797E-02   688   0.137E-02 0.473E-05
CGA:  10    -0.486325831008E+03   -0.43464E-03   -0.43464E-03   688   0.389E-03 0.654E-07
CGA:  11    -0.486325961472E+03   -0.13046E-03   -0.13051E-03   688   0.135E-03-0.976E-06
CGA:  12    -0.486326008746E+03   -0.47274E-04   -0.47254E-04   688   0.590E-04 0.344E-06
  29 F= -.49073448E+03 E0= -.49072793E+03  d E =-.179592E+00  mag=     0.0748
       N       E                     dE             d eps       ncg     rms          ort
SDA:   1    -0.486238042920E+03    0.87919E-01    0.00000E+00   688   0.230E+00 0.000E+00
CGA:   2    -0.486306953948E+03   -0.68911E-01   -0.68911E-01   688   0.684E-01-0.136E-04
CGA:   3    -0.486323617823E+03   -0.16664E-01   -0.16665E-01   688   0.153E-01 0.912E-05
CGA:   4    -0.486326893916E+03   -0.32761E-02   -0.32763E-02   688   0.306E-02 0.209E-05
CGA:   5    -0.486327600026E+03   -0.70611E-03   -0.70638E-03   688   0.811E-03 0.458E-05
CGA:   6    -0.486327808747E+03   -0.20872E-03   -0.20870E-03   688   0.288E-03-0.676E-06
CGA:   7    -0.486327895474E+03   -0.86727E-04   -0.86723E-04   688   0.137E-03 0.314E-06
  30 F= -.49073616E+03 E0= -.49072959E+03  d E =-.181277E+00  mag=     0.0757
       N       E                     dE             d eps       ncg     rms          ort
SDA:   1    -0.484238106845E+03    0.20897E+01    0.00000E+00   688   0.560E+01 0.000E+00
CGA:   2    -0.485963563391E+03   -0.17255E+01   -0.17255E+01   688   0.166E+01-0.121E-03
CGA:   3    -0.486365268862E+03   -0.40171E+00   -0.40175E+00   688   0.360E+00 0.389E-03
CGA:   4    -0.486444161278E+03   -0.78892E-01   -0.78907E-01   688   0.730E-01 0.311E-04
CGA:   5    -0.486461074626E+03   -0.16913E-01   -0.16913E-01   688   0.210E-01 0.157E-04
CGA:   6    -0.486466448542E+03   -0.53739E-02   -0.53740E-02   688   0.794E-02-0.455E-05
CGA:   7    -0.486468773570E+03   -0.23250E-02   -0.23250E-02   688   0.383E-02 0.113E-05
CGA:   8    -0.486469947172E+03   -0.11736E-02   -0.11735E-02   688   0.156E-02 0.290E-05
CGA:   9    -0.486470428816E+03   -0.48164E-03   -0.48165E-03   688   0.484E-03-0.419E-06
CGA:  10    -0.486470579359E+03   -0.15054E-03   -0.15053E-03   688   0.145E-03 0.352E-06
CGA:  11    -0.486470626527E+03   -0.47169E-04   -0.47189E-04   688   0.562E-04-0.511E-06
  31 F= -.49087929E+03 E0= -.49087296E+03  d E =-.143127E+00  mag=     0.0776
       N       E                     dE             d eps       ncg     rms          ort
SDA:   1    -0.478498455065E+03    0.79721E+01    0.00000E+00   688   0.203E+02 0.000E+00
CGA:   2    -0.484736247602E+03   -0.62378E+01   -0.62379E+01   688   0.604E+01-0.289E-02
CGA:   3    -0.486189672376E+03   -0.14534E+01   -0.14540E+01   688   0.134E+01 0.410E-02
CGA:   4    -0.486477341061E+03   -0.28767E+00   -0.28784E+00   688   0.287E+00 0.491E-03
CGA:   5    -0.486540909829E+03   -0.63569E-01   -0.63540E-01   688   0.805E-01-0.269E-04
CGA:   6    -0.486561583326E+03   -0.20673E-01   -0.20676E-01   688   0.282E-01 0.278E-04
CGA:   7    -0.486570330161E+03   -0.87468E-02   -0.87467E-02   688   0.131E-01 0.416E-05
CGA:   8    -0.486574540654E+03   -0.42105E-02   -0.42100E-02   688   0.546E-02 0.115E-04
CGA:   9    -0.486576212534E+03   -0.16719E-02   -0.16718E-02   688   0.172E-02 0.951E-06
CGA:  10    -0.486576748629E+03   -0.53609E-03   -0.53609E-03   688   0.508E-03 0.330E-06
CGA:  11    -0.486576918621E+03   -0.16999E-03   -0.17000E-03   688   0.191E-03-0.325E-06
CGA:  12    -0.486576986131E+03   -0.67511E-04   -0.67507E-04   688   0.896E-04 0.304E-07
  32 F= -.49098620E+03 E0= -.49098017E+03  d E =-.250039E+00  mag=     0.0801
       N       E                     dE             d eps       ncg     rms          ort
SDA:   1    -0.483225975325E+03    0.33509E+01    0.00000E+00   688   0.876E+01 0.000E+00
CGA:   2    -0.485901075662E+03   -0.26751E+01   -0.26750E+01   688   0.266E+01 0.263E-02
CGA:   3    -0.486529796200E+03   -0.62872E+00   -0.62876E+00   688   0.609E+00 0.296E-03
CGA:   4    -0.486660500017E+03   -0.13070E+00   -0.13076E+00   688   0.126E+00 0.831E-04
CGA:   5    -0.486688832648E+03   -0.28333E-01   -0.28330E-01   688   0.337E-01 0.806E-05
CGA:   6    -0.486697639839E+03   -0.88072E-02   -0.88072E-02   688   0.116E-01-0.540E-05
CGA:   7    -0.486701198032E+03   -0.35582E-02   -0.35581E-02   688   0.528E-02 0.395E-05
CGA:   8    -0.486702916358E+03   -0.17183E-02   -0.17183E-02   688   0.213E-02 0.126E-05
CGA:   9    -0.486703574667E+03   -0.65831E-03   -0.65829E-03   688   0.678E-03 0.816E-06
CGA:  10    -0.486703781362E+03   -0.20670E-03   -0.20669E-03   688   0.196E-03 0.317E-06
CGA:  11    -0.486703846898E+03   -0.65536E-04   -0.65534E-04   688   0.670E-04 0.499E-07
  33 F= -.49111237E+03 E0= -.49110601E+03  d E =-.126170E+00  mag=     0.0848
       N       E                     dE             d eps       ncg     rms          ort
SDA:   1    -0.485694083640E+03    0.10097E+01    0.00000E+00   688   0.259E+01 0.000E+00
CGA:   2    -0.486484807129E+03   -0.79072E+00   -0.79072E+00   688   0.787E+00 0.374E-03
CGA:   3    -0.486671065862E+03   -0.18626E+00   -0.18626E+00   688   0.179E+00 0.150E-04
CGA:   4    -0.486709628943E+03   -0.38563E-01   -0.38570E-01   688   0.364E-01-0.129E-04
CGA:   5    -0.486717915692E+03   -0.82867E-02   -0.82866E-02   688   0.969E-02 0.241E-05
CGA:   6    -0.486720464646E+03   -0.25490E-02   -0.25489E-02   688   0.339E-02-0.339E-05
CGA:   7    -0.486721499383E+03   -0.10347E-02   -0.10347E-02   688   0.160E-02 0.834E-06
CGA:   8    -0.486722004127E+03   -0.50474E-03   -0.50475E-03   688   0.655E-03-0.145E-06
CGA:   9    -0.486722204221E+03   -0.20009E-03   -0.20009E-03   688   0.208E-03 0.212E-06
CGA:  10    -0.486722267916E+03   -0.63695E-04   -0.63695E-04   688   0.599E-04-0.233E-08
  34 F= -.49113037E+03 E0= -.49112379E+03  d E =-.144167E+00  mag=     0.0876
       N       E                     dE             d eps       ncg     rms          ort
SDA:   1    -0.483996030849E+03    0.27262E+01    0.00000E+00   688   0.717E+01 0.000E+00
CGA:   2    -0.486162726544E+03   -0.21667E+01   -0.21668E+01   688   0.218E+01-0.275E-02
CGA:   3    -0.486686059470E+03   -0.52333E+00   -0.52373E+00   688   0.481E+00 0.235E-02
CGA:   4    -0.486791563273E+03   -0.10550E+00   -0.10551E+00   688   0.976E-01 0.257E-04
CGA:   5    -0.486814425671E+03   -0.22862E-01   -0.22863E-01   688   0.265E-01 0.225E-04
CGA:   6    -0.486821434669E+03   -0.70090E-02   -0.70091E-02   688   0.967E-02-0.647E-06
CGA:   7    -0.486824385258E+03   -0.29506E-02   -0.29505E-02   688   0.448E-02 0.550E-05
CGA:   8    -0.486825810115E+03   -0.14249E-02   -0.14248E-02   688   0.184E-02 0.451E-06
CGA:   9    -0.486826371624E+03   -0.56151E-03   -0.56148E-03   688   0.589E-03 0.129E-05
CGA:  10    -0.486826550280E+03   -0.17866E-03   -0.17866E-03   688   0.179E-03 0.449E-07
CGA:  11    -0.486826608457E+03   -0.58177E-04   -0.58218E-04   688   0.668E-04-0.107E-05
  35 F= -.49123310E+03 E0= -.49122623E+03  d E =-.102736E+00  mag=     0.0934
       N       E                     dE             d eps       ncg     rms          ort
SDA:   1    -0.485617622335E+03    0.12089E+01    0.00000E+00   688   0.311E+01 0.000E+00
CGA:   2    -0.486557931963E+03   -0.94031E+00   -0.94033E+00   688   0.945E+00-0.748E-03
CGA:   3    -0.486784820757E+03   -0.22689E+00   -0.22698E+00   688   0.208E+00 0.553E-03
CGA:   4    -0.486830474996E+03   -0.45654E-01   -0.45655E-01   688   0.415E-01-0.345E-05
CGA:   5    -0.486840317299E+03   -0.98423E-02   -0.98427E-02   688   0.112E-01 0.115E-04
CGA:   6    -0.486843286189E+03   -0.29689E-02   -0.29689E-02   688   0.422E-02-0.257E-06
CGA:   7    -0.486844533536E+03   -0.12473E-02   -0.12473E-02   688   0.202E-02 0.214E-05
CGA:   8    -0.486845158454E+03   -0.62492E-03   -0.62491E-03   688   0.824E-03 0.252E-06
CGA:   9    -0.486845413495E+03   -0.25504E-03   -0.25503E-03   688   0.257E-03 0.485E-06
CGA:  10    -0.486845492984E+03   -0.79489E-04   -0.79491E-04   688   0.790E-04-0.936E-07
  36 F= -.49125085E+03 E0= -.49124377E+03  d E =-.120483E+00  mag=     0.0973
       N       E                     dE             d eps       ncg     rms          ort
SDA:   1    -0.485824323458E+03    0.10211E+01    0.00000E+00   688   0.275E+01 0.000E+00
CGA:   2    -0.486650418139E+03   -0.82609E+00   -0.82611E+00   688   0.868E+00-0.886E-03
CGA:   3    -0.486854254938E+03   -0.20384E+00   -0.20391E+00   688   0.187E+00 0.430E-03
CGA:   4    -0.486896972478E+03   -0.42718E-01   -0.42721E-01   688   0.356E-01 0.557E-05
CGA:   5    -0.486905712488E+03   -0.87400E-02   -0.87402E-02   688   0.100E-01 0.964E-05
CGA:   6    -0.486908384722E+03   -0.26722E-02   -0.26722E-02   688   0.382E-02-0.454E-05
CGA:   7    -0.486909546265E+03   -0.11615E-02   -0.11614E-02   688   0.177E-02 0.584E-05
CGA:   8    -0.486910115993E+03   -0.56973E-03   -0.56973E-03   688   0.714E-03-0.122E-06
CGA:   9    -0.486910336477E+03   -0.22048E-03   -0.22046E-03   688   0.226E-03 0.115E-05
CGA:  10    -0.486910404674E+03   -0.68197E-04   -0.68197E-04   688   0.738E-04 0.189E-07
  37 F= -.49131427E+03 E0= -.49130722E+03  d E =-.634187E-01  mag=     0.0977
       N       E                     dE             d eps       ncg     rms          ort
SDA:   1    -0.481946867389E+03    0.49635E+01    0.00000E+00   688   0.127E+02 0.000E+00
CGA:   2    -0.485761664462E+03   -0.38148E+01   -0.38150E+01   688   0.406E+01-0.104E-01
CGA:   3    -0.486705489146E+03   -0.94382E+00   -0.94473E+00   688   0.878E+00 0.649E-02
CGA:   4    -0.486904138995E+03   -0.19865E+00   -0.19871E+00   688   0.175E+00 0.266E-03
CGA:   5    -0.486945165765E+03   -0.41027E-01   -0.41022E-01   688   0.519E-01 0.731E-05
CGA:   6    -0.486958114938E+03   -0.12949E-01   -0.12950E-01   688   0.193E-01 0.393E-05
CGA:   7    -0.486963879964E+03   -0.57650E-02   -0.57647E-02   688   0.861E-02 0.136E-04
CGA:   8    -0.486966706049E+03   -0.28261E-02   -0.28257E-02   688   0.357E-02 0.782E-05
CGA:   9    -0.486967795751E+03   -0.10897E-02   -0.10897E-02   688   0.119E-02 0.222E-06
CGA:  10    -0.486968144351E+03   -0.34860E-03   -0.34858E-03   688   0.371E-03 0.173E-05
CGA:  11    -0.486968262172E+03   -0.11782E-03   -0.11785E-03   688   0.134E-03-0.784E-06
CGA:  12    -0.486968310282E+03   -0.48110E-04   -0.48122E-04   688   0.576E-04-0.155E-06
  38 F= -.49136905E+03 E0= -.49136217E+03  d E =-.118201E+00  mag=     0.0957
       N       E                     dE             d eps       ncg     rms          ort
SDA:   1    -0.485225771120E+03    0.17425E+01    0.00000E+00   688   0.450E+01 0.000E+00
CGA:   2    -0.486602441680E+03   -0.13767E+01   -0.13767E+01   688   0.147E+01-0.135E-02
CGA:   3    -0.486939275767E+03   -0.33683E+00   -0.33689E+00   688   0.325E+00 0.274E-03
CGA:   4    -0.487010028867E+03   -0.70753E-01   -0.70773E-01   688   0.682E-01 0.283E-04
CGA:   5    -0.487025520598E+03   -0.15492E-01   -0.15491E-01   688   0.197E-01 0.107E-04
CGA:   6    -0.487030612454E+03   -0.50919E-02   -0.50917E-02   688   0.711E-02-0.904E-05
CGA:   7    -0.487032792208E+03   -0.21798E-02   -0.21796E-02   688   0.321E-02 0.563E-05
CGA:   8    -0.487033841631E+03   -0.10494E-02   -0.10493E-02   688   0.130E-02 0.372E-05
CGA:   9    -0.487034236751E+03   -0.39512E-03   -0.39511E-03   688   0.429E-03 0.561E-06
CGA:  10    -0.487034363285E+03   -0.12653E-03   -0.12653E-03   688   0.135E-03 0.356E-06
CGA:  11    -0.487034406666E+03   -0.43381E-04   -0.43383E-04   688   0.492E-04-0.535E-07
  39 F= -.49143279E+03 E0= -.49142604E+03  d E =-.637376E-01  mag=     0.0925
       N       E                     dE             d eps       ncg     rms          ort
SDA:   1    -0.486030480350E+03    0.10039E+01    0.00000E+00   688   0.253E+01 0.000E+00
CGA:   2    -0.486806319303E+03   -0.77584E+00   -0.77585E+00   688   0.826E+00-0.599E-03
CGA:   3    -0.486996120156E+03   -0.18980E+00   -0.18982E+00   688   0.182E+00 0.124E-03
CGA:   4    -0.487035938620E+03   -0.39818E-01   -0.39826E-01   688   0.380E-01 0.111E-05
CGA:   5    -0.487044640637E+03   -0.87020E-02   -0.87020E-02   688   0.110E-01 0.774E-05
CGA:   6    -0.487047470384E+03   -0.28297E-02   -0.28296E-02   688   0.405E-02-0.718E-05
CGA:   7    -0.487048687295E+03   -0.12169E-02   -0.12168E-02   688   0.186E-02 0.335E-05
CGA:   8    -0.487049281440E+03   -0.59415E-03   -0.59406E-03   688   0.764E-03 0.237E-05
CGA:   9    -0.487049512756E+03   -0.23132E-03   -0.23131E-03   688   0.250E-03 0.407E-06
CGA:  10    -0.487049587316E+03   -0.74560E-04   -0.74557E-04   688   0.781E-04 0.282E-06
  40 F= -.49144621E+03 E0= -.49143956E+03  d E =-.771610E-01  mag=     0.0900
       N       E                     dE             d eps       ncg     rms          ort
SDA:   1    -0.486244475510E+03    0.80504E+00    0.00000E+00   688   0.211E+01 0.000E+00
CGA:   2    -0.486902721100E+03   -0.65825E+00   -0.65829E+00   688   0.659E+00-0.107E-02
CGA:   3    -0.487057299471E+03   -0.15458E+00   -0.15462E+00   688   0.142E+00 0.230E-03
CGA:   4    -0.487088295451E+03   -0.30996E-01   -0.30999E-01   688   0.301E-01 0.541E-05
CGA:   5    -0.487095340190E+03   -0.70447E-02   -0.70452E-02   688   0.884E-02 0.157E-04
CGA:   6    -0.487097674058E+03   -0.23339E-02   -0.23338E-02   688   0.339E-02-0.715E-05
CGA:   7    -0.487098718783E+03   -0.10447E-02   -0.10446E-02   688   0.156E-02 0.402E-05
CGA:   8    -0.487099216155E+03   -0.49737E-03   -0.49729E-03   688   0.606E-03 0.210E-05
CGA:   9    -0.487099399954E+03   -0.18380E-03   -0.18379E-03   688   0.190E-03 0.502E-06
CGA:  10    -0.487099456675E+03   -0.56721E-04   -0.56723E-04   688   0.609E-04-0.147E-06
  41 F= -.49149482E+03 E0= -.49148828E+03  d E =-.486071E-01  mag=     0.0876
       N       E                     dE             d eps       ncg     rms          ort
SDA:   1    -0.479477026787E+03    0.76224E+01    0.00000E+00   688   0.190E+02 0.000E+00
CGA:   2    -0.485378844481E+03   -0.59018E+01   -0.59031E+01   688   0.607E+01-0.298E-01
CGA:   3    -0.486775282293E+03   -0.13964E+01   -0.13977E+01   688   0.137E+01 0.683E-02
CGA:   4    -0.487059883042E+03   -0.28460E+00   -0.28488E+00   688   0.313E+00 0.618E-03
CGA:   5    -0.487128977888E+03   -0.69095E-01   -0.69056E-01   688   0.877E-01-0.536E-04
CGA:   6    -0.487152161811E+03   -0.23184E-01   -0.23185E-01   688   0.315E-01 0.241E-04
CGA:   7    -0.487162088140E+03   -0.99263E-02   -0.99259E-02   688   0.144E-01 0.102E-04
CGA:   8    -0.487166747189E+03   -0.46590E-02   -0.46582E-02   688   0.574E-02 0.184E-04
CGA:   9    -0.487168493338E+03   -0.17461E-02   -0.17461E-02   688   0.178E-02 0.223E-05
CGA:  10    -0.487169034774E+03   -0.54144E-03   -0.54145E-03   688   0.551E-03-0.526E-06
CGA:  11    -0.487169213489E+03   -0.17872E-03   -0.17873E-03   688   0.209E-03-0.442E-06
CGA:  12    -0.487169288210E+03   -0.74721E-04   -0.74713E-04   688   0.901E-04 0.135E-06
  42 F= -.49156094E+03 E0= -.49155459E+03  d E =-.114731E+00  mag=     0.0839
       N       E                     dE             d eps       ncg     rms          ort
SDA:   1    -0.486233079149E+03    0.93613E+00    0.00000E+00   688   0.242E+01 0.000E+00
CGA:   2    -0.487001492539E+03   -0.76841E+00   -0.76845E+00   688   0.755E+00-0.838E-03
CGA:   3    -0.487178081154E+03   -0.17659E+00   -0.17665E+00   688   0.163E+00 0.287E-03
CGA:   4    -0.487213406276E+03   -0.35325E-01   -0.35330E-01   688   0.360E-01 0.387E-05
CGA:   5    -0.487221576411E+03   -0.81701E-02   -0.81702E-02   688   0.107E-01 0.167E-04
CGA:   6    -0.487224372569E+03   -0.27962E-02   -0.27960E-02   688   0.401E-02-0.797E-05
CGA:   7    -0.487225628403E+03   -0.12558E-02   -0.12557E-02   688   0.182E-02 0.336E-05
CGA:   8    -0.487226210084E+03   -0.58168E-03   -0.58154E-03   688   0.702E-03 0.430E-05
CGA:   9    -0.487226419639E+03   -0.20956E-03   -0.20956E-03   688   0.213E-03-0.363E-07
CGA:  10    -0.487226483779E+03   -0.64140E-04   -0.64139E-04   688   0.651E-04 0.108E-06
  43 F= -.49161846E+03 E0= -.49161204E+03  d E =-.575169E-01  mag=     0.0820
       N       E                     dE             d eps       ncg     rms          ort
SDA:   1    -0.478366705462E+03    0.88597E+01    0.00000E+00   688   0.219E+02 0.000E+00
CGA:   2    -0.485248911609E+03   -0.68822E+01   -0.68832E+01   688   0.705E+01-0.238E-01
CGA:   3    -0.486847702793E+03   -0.15988E+01   -0.16005E+01   688   0.162E+01 0.739E-02
CGA:   4    -0.487178453597E+03   -0.33075E+00   -0.33127E+00   688   0.387E+00 0.766E-03
CGA:   5    -0.487263018353E+03   -0.84565E-01   -0.84503E-01   688   0.103E+00-0.844E-04
CGA:   6    -0.487291233403E+03   -0.28215E-01   -0.28215E-01   688   0.368E-01 0.272E-04
CGA:   7    -0.487303006285E+03   -0.11773E-01   -0.11772E-01   688   0.172E-01 0.958E-05
CGA:   8    -0.487308428420E+03   -0.54221E-02   -0.54215E-02   688   0.676E-02 0.205E-04
CGA:   9    -0.487310469798E+03   -0.20414E-02   -0.20413E-02   688   0.198E-02 0.332E-05
CGA:  10    -0.487311089840E+03   -0.62004E-03   -0.62007E-03   688   0.591E-03-0.117E-05
CGA:  11    -0.487311287573E+03   -0.19773E-03   -0.19770E-03   688   0.224E-03 0.600E-06
CGA:  12    -0.487311368507E+03   -0.80934E-04   -0.80927E-04   688   0.972E-04 0.102E-06
  44 F= -.49170434E+03 E0= -.49169756E+03  d E =-.143394E+00  mag=     0.0782
       N       E                     dE             d eps       ncg     rms          ort
SDA:   1    -0.484840983033E+03    0.24703E+01    0.00000E+00   688   0.615E+01 0.000E+00
CGA:   2    -0.486797387737E+03   -0.19564E+01   -0.19563E+01   688   0.202E+01 0.147E-02
CGA:   3    -0.487247483052E+03   -0.45010E+00   -0.45043E+00   688   0.456E+00 0.945E-03
CGA:   4    -0.487343522954E+03   -0.96040E-01   -0.96088E-01   688   0.101E+00 0.486E-04
CGA:   5    -0.487366023943E+03   -0.22501E-01   -0.22497E-01   688   0.281E-01 0.112E-04
CGA:   6    -0.487373447453E+03   -0.74235E-02   -0.74234E-02   688   0.991E-02-0.902E-05
CGA:   7    -0.487376579920E+03   -0.31325E-02   -0.31323E-02   688   0.449E-02 0.532E-05
CGA:   8    -0.487378042429E+03   -0.14625E-02   -0.14623E-02   688   0.178E-02 0.669E-05
CGA:   9    -0.487378582094E+03   -0.53967E-03   -0.53966E-03   688   0.542E-03 0.220E-06
CGA:  10    -0.487378749461E+03   -0.16737E-03   -0.16736E-03   688   0.161E-03 0.568E-06
CGA:  11    -0.487378803838E+03   -0.54377E-04   -0.54357E-04   688   0.579E-04 0.410E-06
  45 F= -.49177202E+03 E0= -.49176504E+03  d E =-.676818E-01  mag=     0.0767
       N       E                     dE             d eps       ncg     rms          ort
SDA:   1    -0.486875835313E+03    0.50291E+00    0.00000E+00   688   0.123E+01 0.000E+00
CGA:   2    -0.487269045007E+03   -0.39321E+00   -0.39320E+00   688   0.400E+00 0.134E-03
CGA:   3    -0.487359539561E+03   -0.90495E-01   -0.90515E-01   688   0.887E-01 0.797E-04
CGA:   4    -0.487378550283E+03   -0.19011E-01   -0.19013E-01   688   0.191E-01-0.937E-05
CGA:   5    -0.487382895312E+03   -0.43450E-02   -0.43452E-02   688   0.540E-02 0.520E-05
CGA:   6    -0.487384304911E+03   -0.14096E-02   -0.14095E-02   688   0.201E-02-0.597E-05
CGA:   7    -0.487384912711E+03   -0.60780E-03   -0.60776E-03   688   0.942E-03 0.229E-05
CGA:   8    -0.487385205510E+03   -0.29280E-03   -0.29275E-03   688   0.379E-03 0.181E-05
CGA:   9    -0.487385318653E+03   -0.11314E-03   -0.11314E-03   688   0.117E-03 0.593E-07
CGA:  10    -0.487385354145E+03   -0.35492E-04   -0.35488E-04   688   0.356E-04 0.304E-06
  46 F= -.49177867E+03 E0= -.49177160E+03  d E =-.743343E-01  mag=     0.0759
       N       E                     dE             d eps       ncg     rms          ort
SDA:   1    -0.486008739652E+03    0.13766E+01    0.00000E+00   688   0.344E+01 0.000E+00
CGA:   2    -0.487120107223E+03   -0.11114E+01   -0.11114E+01   688   0.106E+01-0.218E-03
CGA:   3    -0.487365432008E+03   -0.24532E+00   -0.24540E+00   688   0.232E+00 0.382E-03
CGA:   4    -0.487415024624E+03   -0.49593E-01   -0.49597E-01   688   0.514E-01 0.333E-06
CGA:   5    -0.487426632002E+03   -0.11607E-01   -0.11607E-01   688   0.149E-01 0.172E-04
CGA:   6    -0.487430562425E+03   -0.39304E-02   -0.39303E-02   688   0.546E-02-0.716E-05
CGA:   7    -0.487432291066E+03   -0.17286E-02   -0.17285E-02   688   0.253E-02 0.435E-05
CGA:   8    -0.487433086920E+03   -0.79585E-03   -0.79575E-03   688   0.100E-02 0.341E-05
CGA:   9    -0.487433380511E+03   -0.29359E-03   -0.29359E-03   688   0.304E-03-0.382E-06
CGA:  10    -0.487433471653E+03   -0.91142E-04   -0.91138E-04   688   0.913E-04 0.293E-06
  47 F= -.49182676E+03 E0= -.49181973E+03  d E =-.480901E-01  mag=     0.0764
       N       E                     dE             d eps       ncg     rms          ort
SDA:   1    -0.479065255122E+03    0.83681E+01    0.00000E+00   688   0.204E+02 0.000E+00
CGA:   2    -0.485593535423E+03   -0.65283E+01   -0.65283E+01   688   0.653E+01-0.302E-02
CGA:   3    -0.487050885569E+03   -0.14574E+01   -0.14586E+01   688   0.152E+01 0.535E-02
CGA:   4    -0.487358462849E+03   -0.30758E+00   -0.30803E+00   688   0.358E+00 0.681E-03
CGA:   5    -0.487437056611E+03   -0.78594E-01   -0.78542E-01   688   0.942E-01-0.879E-04
CGA:   6    -0.487462835818E+03   -0.25779E-01   -0.25779E-01   688   0.333E-01 0.162E-04
CGA:   7    -0.487473447649E+03   -0.10612E-01   -0.10611E-01   688   0.158E-01 0.883E-05
CGA:   8    -0.487478397711E+03   -0.49501E-02   -0.49497E-02   688   0.623E-02 0.149E-04
CGA:   9    -0.487480293373E+03   -0.18957E-02   -0.18956E-02   688   0.183E-02 0.153E-05
CGA:  10    -0.487480864473E+03   -0.57110E-03   -0.57111E-03   688   0.549E-03-0.470E-06
CGA:  11    -0.487481046313E+03   -0.18184E-03   -0.18182E-03   688   0.206E-03 0.529E-06
CGA:  12    -0.487481120914E+03   -0.74601E-04   -0.74633E-04   688   0.902E-04-0.443E-06
  48 F= -.49187432E+03 E0= -.49186733E+03  d E =-.956440E-01  mag=     0.0782
       N       E                     dE             d eps       ncg     rms          ort
SDA:   1    -0.486392242897E+03    0.10888E+01    0.00000E+00   688   0.275E+01 0.000E+00
CGA:   2    -0.487279924316E+03   -0.88768E+00   -0.88772E+00   688   0.857E+00-0.942E-03
CGA:   3    -0.487477038108E+03   -0.19711E+00   -0.19719E+00   688   0.185E+00 0.288E-03
CGA:   4    -0.487516947064E+03   -0.39909E-01   -0.39912E-01   688   0.408E-01-0.638E-06
CGA:   5    -0.487526221315E+03   -0.92743E-02   -0.92743E-02   688   0.117E-01 0.173E-04
CGA:   6    -0.487529268325E+03   -0.30470E-02   -0.30469E-02   688   0.424E-02-0.510E-05
CGA:   7    -0.487530598406E+03   -0.13301E-02   -0.13300E-02   688   0.194E-02 0.278E-05
CGA:   8    -0.487531216050E+03   -0.61764E-03   -0.61759E-03   688   0.752E-03 0.155E-05
CGA:   9    -0.487531446755E+03   -0.23071E-03   -0.23071E-03   688   0.224E-03-0.383E-06
CGA:  10    -0.487531516095E+03   -0.69339E-04   -0.69338E-04   688   0.694E-04 0.745E-07
  49 F= -.49192458E+03 E0= -.49191753E+03  d E =-.502669E-01  mag=     0.0780
       N       E                     dE             d eps       ncg     rms          ort
SDA:   1    -0.485407938492E+03    0.21235E+01    0.00000E+00   688   0.519E+01 0.000E+00
CGA:   2    -0.487081449482E+03   -0.16735E+01   -0.16736E+01   688   0.163E+01-0.254E-02
CGA:   3    -0.487453789326E+03   -0.37234E+00   -0.37253E+00   688   0.356E+00 0.779E-03
CGA:   4    -0.487529595189E+03   -0.75806E-01   -0.75822E-01   688   0.802E-01 0.311E-04
CGA:   5    -0.487547577804E+03   -0.17983E-01   -0.17981E-01   688   0.226E-01 0.205E-04
CGA:   6    -0.487553514103E+03   -0.59363E-02   -0.59364E-02   688   0.813E-02-0.375E-05
CGA:   7    -0.487556062331E+03   -0.25482E-02   -0.25482E-02   688   0.377E-02 0.300E-05
CGA:   8    -0.487557241526E+03   -0.11792E-02   -0.11791E-02   688   0.151E-02 0.331E-05
CGA:   9    -0.487557693763E+03   -0.45224E-03   -0.45224E-03   688   0.461E-03-0.500E-06
CGA:  10    -0.487557833261E+03   -0.13950E-03   -0.13950E-03   688   0.141E-03 0.455E-07
CGA:  11    -0.487557879016E+03   -0.45755E-04   -0.45781E-04   688   0.525E-04-0.687E-06
  50 F= -.49195070E+03 E0= -.49194356E+03  d E =-.763855E-01  mag=     0.0777
       N       E                     dE             d eps       ncg     rms          ort
SDA:   1    -0.486389396901E+03    0.11684E+01    0.00000E+00   688   0.292E+01 0.000E+00
CGA:   2    -0.487333102007E+03   -0.94371E+00   -0.94368E+00   688   0.960E+00 0.321E-03
CGA:   3    -0.487547746820E+03   -0.21464E+00   -0.21467E+00   688   0.206E+00 0.787E-04
CGA:   4    -0.487592286675E+03   -0.44540E-01   -0.44548E-01   688   0.453E-01-0.719E-05
CGA:   5    -0.487602529442E+03   -0.10243E-01   -0.10242E-01   688   0.129E-01 0.958E-05
CGA:   6    -0.487605843960E+03   -0.33145E-02   -0.33144E-02   688   0.468E-02-0.657E-05
CGA:   7    -0.487607278349E+03   -0.14344E-02   -0.14343E-02   688   0.216E-02 0.202E-05
CGA:   8    -0.487607959704E+03   -0.68136E-03   -0.68129E-03   688   0.879E-03 0.207E-05
CGA:   9    -0.487608226286E+03   -0.26658E-03   -0.26660E-03   688   0.279E-03-0.938E-06
CGA:  10    -0.487608310107E+03   -0.83821E-04   -0.83814E-04   688   0.870E-04 0.425E-06
  51 F= -.49199986E+03 E0= -.49199248E+03  d E =-.491612E-01  mag=     0.0752
       N       E                     dE             d eps       ncg     rms          ort
SDA:   1    -0.486117425644E+03    0.14908E+01    0.00000E+00   688   0.362E+01 0.000E+00
CGA:   2    -0.487286152825E+03   -0.11687E+01   -0.11687E+01   688   0.119E+01 0.419E-03
CGA:   3    -0.487552517566E+03   -0.26636E+00   -0.26640E+00   688   0.257E+00 0.113E-03
CGA:   4    -0.487607939198E+03   -0.55422E-01   -0.55434E-01   688   0.571E-01 0.280E-05
CGA:   5    -0.487620790206E+03   -0.12851E-01   -0.12850E-01   688   0.161E-01 0.112E-04
CGA:   6    -0.487624984057E+03   -0.41939E-02   -0.41938E-02   688   0.570E-02-0.722E-05
CGA:   7    -0.487626784007E+03   -0.17999E-02   -0.17999E-02   688   0.259E-02 0.269E-05
CGA:   8    -0.487627620144E+03   -0.83614E-03   -0.83606E-03   688   0.105E-02 0.193E-05
CGA:   9    -0.487627938878E+03   -0.31873E-03   -0.31874E-03   688   0.333E-03-0.575E-06
CGA:  10    -0.487628039217E+03   -0.10034E-03   -0.10033E-03   688   0.105E-03 0.290E-06
CGA:  11    -0.487628073482E+03   -0.34264E-04   -0.34262E-04   688   0.386E-04 0.459E-07
  52 F= -.49201818E+03 E0= -.49201051E+03  d E =-.674803E-01  mag=     0.0714
       N       E                     dE             d eps       ncg     rms          ort
SDA:   1    -0.486195059135E+03    0.14330E+01    0.00000E+00   688   0.352E+01 0.000E+00
CGA:   2    -0.487351797489E+03   -0.11567E+01   -0.11567E+01   688   0.113E+01 0.105E-02
CGA:   3    -0.487605662891E+03   -0.25387E+00   -0.25395E+00   688   0.238E+00 0.292E-03
CGA:   4    -0.487657378472E+03   -0.51716E-01   -0.51721E-01   688   0.519E-01-0.459E-05
CGA:   5    -0.487669367448E+03   -0.11989E-01   -0.11988E-01   688   0.154E-01 0.153E-04
CGA:   6    -0.487673279322E+03   -0.39119E-02   -0.39119E-02   688   0.577E-02-0.504E-05
CGA:   7    -0.487675054725E+03   -0.17754E-02   -0.17754E-02   688   0.267E-02 0.224E-05
CGA:   8    -0.487675908693E+03   -0.85397E-03   -0.85386E-03   688   0.106E-02 0.298E-05
CGA:   9    -0.487676233579E+03   -0.32489E-03   -0.32492E-03   688   0.332E-03-0.155E-05
CGA:  10    -0.487676333988E+03   -0.10041E-03   -0.10040E-03   688   0.106E-03 0.724E-06
CGA:  11    -0.487676368576E+03   -0.34588E-04   -0.34599E-04   688   0.406E-04-0.276E-06
  53 F= -.49206396E+03 E0= -.49205617E+03  d E =-.457788E-01  mag=     0.0690
       N       E                     dE             d eps       ncg     rms          ort
SDA:   1    -0.484110308282E+03    0.35660E+01    0.00000E+00   688   0.856E+01 0.000E+00
CGA:   2    -0.486915574565E+03   -0.28053E+01   -0.28051E+01   688   0.277E+01 0.342E-02
CGA:   3    -0.487532035688E+03   -0.61646E+00   -0.61683E+00   688   0.600E+00 0.117E-02
CGA:   4    -0.487659046608E+03   -0.12701E+00   -0.12707E+00   688   0.136E+00 0.842E-04
CGA:   5    -0.487689551536E+03   -0.30505E-01   -0.30496E-01   688   0.392E-01 0.583E-05
CGA:   6    -0.487699650825E+03   -0.10099E-01   -0.10100E-01   688   0.141E-01 0.318E-05
CGA:   7    -0.487704088995E+03   -0.44382E-02   -0.44382E-02   688   0.654E-02 0.164E-06
CGA:   8    -0.487706187539E+03   -0.20985E-02   -0.20983E-02   688   0.261E-02 0.676E-05
CGA:   9    -0.487706988319E+03   -0.80078E-03   -0.80081E-03   688   0.810E-03-0.168E-05
CGA:  10    -0.487707236709E+03   -0.24839E-03   -0.24837E-03   688   0.255E-03 0.754E-06
CGA:  11    -0.487707321075E+03   -0.84366E-04   -0.84371E-04   688   0.972E-04-0.116E-06
  54 F= -.49209091E+03 E0= -.49208288E+03  d E =-.727301E-01  mag=     0.0661
       N       E                     dE             d eps       ncg     rms          ort
SDA:   1    -0.486709988422E+03    0.99725E+00    0.00000E+00   688   0.243E+01 0.000E+00
CGA:   2    -0.487522679707E+03   -0.81269E+00   -0.81270E+00   688   0.761E+00-0.186E-03
CGA:   3    -0.487694989069E+03   -0.17231E+00   -0.17237E+00   688   0.162E+00 0.197E-03
CGA:   4    -0.487729464521E+03   -0.34475E-01   -0.34476E-01   688   0.354E-01-0.184E-05
CGA:   5    -0.487737733933E+03   -0.82694E-02   -0.82697E-02   688   0.100E-01 0.151E-04
CGA:   6    -0.487740376727E+03   -0.26428E-02   -0.26428E-02   688   0.381E-02-0.256E-05
CGA:   7    -0.487741539077E+03   -0.11624E-02   -0.11623E-02   688   0.182E-02 0.304E-05
CGA:   8    -0.487742089874E+03   -0.55080E-03   -0.55078E-03   688   0.713E-03 0.128E-05
CGA:   9    -0.487742305382E+03   -0.21551E-03   -0.21551E-03   688   0.209E-03-0.403E-06
CGA:  10    -0.487742370637E+03   -0.65255E-04   -0.65247E-04   688   0.648E-04 0.333E-06
  55 F= -.49212450E+03 E0= -.49211656E+03  d E =-.335918E-01  mag=     0.0676
       N       E                     dE             d eps       ncg     rms          ort
SDA:   1    -0.487014270940E+03    0.72803E+00    0.00000E+00   688   0.174E+01 0.000E+00
CGA:   2    -0.487595771427E+03   -0.58150E+00   -0.58151E+00   688   0.543E+00-0.140E-03
CGA:   3    -0.487719034568E+03   -0.12326E+00   -0.12330E+00   688   0.115E+00 0.123E-03
CGA:   4    -0.487743620073E+03   -0.24586E-01   -0.24586E-01   688   0.249E-01-0.354E-05
CGA:   5    -0.487749497124E+03   -0.58771E-02   -0.58775E-02   688   0.693E-02 0.127E-04
CGA:   6    -0.487751390664E+03   -0.18935E-02   -0.18935E-02   688   0.258E-02-0.282E-05
CGA:   7    -0.487752222349E+03   -0.83168E-03   -0.83156E-03   688   0.121E-02 0.337E-05
CGA:   8    -0.487752597414E+03   -0.37506E-03   -0.37507E-03   688   0.480E-03-0.107E-06
CGA:   9    -0.487752737903E+03   -0.14049E-03   -0.14049E-03   688   0.146E-03 0.219E-06
CGA:  10    -0.487752782211E+03   -0.44307E-04   -0.44307E-04   688   0.462E-04 0.384E-07
  56 F= -.49213368E+03 E0= -.49212574E+03  d E =-.427665E-01  mag=     0.0703
       N       E                     dE             d eps       ncg     rms          ort
SDA:   1    -0.487214784778E+03    0.53795E+00    0.00000E+00   688   0.133E+01 0.000E+00
CGA:   2    -0.487659509586E+03   -0.44472E+00   -0.44470E+00   688   0.429E+00 0.207E-03
CGA:   3    -0.487754490507E+03   -0.94981E-01   -0.94993E-01   688   0.907E-01 0.500E-04
CGA:   4    -0.487774188225E+03   -0.19698E-01   -0.19698E-01   688   0.195E-01-0.126E-04
CGA:   5    -0.487778804489E+03   -0.46163E-02   -0.46164E-02   688   0.553E-02 0.621E-05
CGA:   6    -0.487780281951E+03   -0.14775E-02   -0.14774E-02   688   0.214E-02-0.463E-05
CGA:   7    -0.487780929455E+03   -0.64750E-03   -0.64745E-03   688   0.103E-02 0.290E-05
CGA:   8    -0.487781235180E+03   -0.30572E-03   -0.30571E-03   688   0.418E-03 0.736E-06
CGA:   9    -0.487781356557E+03   -0.12138E-03   -0.12138E-03   688   0.127E-03-0.415E-06
CGA:  10    -0.487781395084E+03   -0.38527E-04   -0.38516E-04   688   0.381E-04 0.551E-06
  57 F= -.49216147E+03 E0= -.49215347E+03  d E =-.277875E-01  mag=     0.0701
       N       E                     dE             d eps       ncg     rms          ort
SDA:   1    -0.485327364016E+03    0.24540E+01    0.00000E+00   688   0.581E+01 0.000E+00
CGA:   2    -0.487268221990E+03   -0.19409E+01   -0.19407E+01   688   0.191E+01 0.172E-02
CGA:   3    -0.487685092965E+03   -0.41687E+00   -0.41703E+00   688   0.413E+00 0.510E-03
CGA:   4    -0.487772933814E+03   -0.87841E-01   -0.87856E-01   688   0.922E-01 0.283E-04
CGA:   5    -0.487794044827E+03   -0.21111E-01   -0.21109E-01   688   0.259E-01 0.124E-04
CGA:   6    -0.487800929033E+03   -0.68842E-02   -0.68842E-02   688   0.944E-02-0.489E-05
CGA:   7    -0.487803915317E+03   -0.29863E-02   -0.29861E-02   688   0.434E-02 0.536E-05
CGA:   8    -0.487805283852E+03   -0.13685E-02   -0.13684E-02   688   0.171E-02 0.291E-05
CGA:   9    -0.487805792898E+03   -0.50905E-03   -0.50905E-03   688   0.521E-03-0.322E-06
CGA:  10    -0.487805951056E+03   -0.15816E-03   -0.15814E-03   688   0.162E-03 0.801E-06
CGA:  11    -0.487806004569E+03   -0.53513E-04   -0.53518E-04   688   0.628E-04-0.103E-06
  58 F= -.49218436E+03 E0= -.49217633E+03  d E =-.506822E-01  mag=     0.0682
       N       E                     dE             d eps       ncg     rms          ort
SDA:   1    -0.486788081436E+03    0.10179E+01    0.00000E+00   688   0.247E+01 0.000E+00
CGA:   2    -0.487607602917E+03   -0.81952E+00   -0.81951E+00   688   0.815E+00-0.140E-03
CGA:   3    -0.487788118582E+03   -0.18052E+00   -0.18056E+00   688   0.172E+00 0.217E-03
CGA:   4    -0.487825012222E+03   -0.36894E-01   -0.36894E-01   688   0.380E-01-0.528E-05
CGA:   5    -0.487833985230E+03   -0.89730E-02   -0.89730E-02   688   0.108E-01 0.124E-04
CGA:   6    -0.487836846468E+03   -0.28612E-02   -0.28612E-02   688   0.426E-02-0.701E-05
CGA:   7    -0.487838119958E+03   -0.12735E-02   -0.12734E-02   688   0.201E-02 0.379E-05
CGA:   8    -0.487838735782E+03   -0.61582E-03   -0.61579E-03   688   0.789E-03 0.187E-05
CGA:   9    -0.487838971276E+03   -0.23549E-03   -0.23550E-03   688   0.243E-03-0.661E-06
CGA:  10    -0.487839044307E+03   -0.73030E-04   -0.73018E-04   688   0.757E-04 0.760E-06
  59 F= -.49221625E+03 E0= -.49220814E+03  d E =-.318889E-01  mag=     0.0647
       N       E                     dE             d eps       ncg     rms          ort
SDA:   1    -0.484353723733E+03    0.34852E+01    0.00000E+00   688   0.828E+01 0.000E+00
CGA:   2    -0.487083564163E+03   -0.27298E+01   -0.27299E+01   688   0.277E+01-0.231E-02
CGA:   3    -0.487688842188E+03   -0.60528E+00   -0.60574E+00   688   0.599E+00 0.201E-02
CGA:   4    -0.487814997449E+03   -0.12616E+00   -0.12618E+00   688   0.136E+00 0.930E-04
CGA:   5    -0.487846432130E+03   -0.31435E-01   -0.31430E-01   688   0.377E-01 0.701E-05
CGA:   6    -0.487856531198E+03   -0.10099E-01   -0.10099E-01   688   0.143E-01-0.225E-05
CGA:   7    -0.487860922526E+03   -0.43913E-02   -0.43912E-02   688   0.673E-02 0.518E-05
CGA:   8    -0.487862993757E+03   -0.20712E-02   -0.20712E-02   688   0.270E-02 0.305E-05
CGA:   9    -0.487863788392E+03   -0.79464E-03   -0.79464E-03   688   0.842E-03-0.553E-06
CGA:  10    -0.487864040118E+03   -0.25173E-03   -0.25171E-03   688   0.262E-03 0.100E-05
CGA:  11    -0.487864126477E+03   -0.86359E-04   -0.86388E-04   688   0.977E-04-0.631E-06
  60 F= -.49223922E+03 E0= -.49223103E+03  d E =-.548580E-01  mag=     0.0566
       N       E                     dE             d eps       ncg     rms          ort
SDA:   1    -0.487247177624E+03    0.61686E+00    0.00000E+00   688   0.153E+01 0.000E+00
CGA:   2    -0.487741253748E+03   -0.49408E+00   -0.49409E+00   688   0.508E+00-0.321E-03
CGA:   3    -0.487856969743E+03   -0.11572E+00   -0.11573E+00   688   0.106E+00 0.920E-04
CGA:   4    -0.487879412499E+03   -0.22443E-01   -0.22443E-01   688   0.240E-01 0.967E-06
CGA:   5    -0.487885005397E+03   -0.55929E-02   -0.55933E-02   688   0.656E-02 0.135E-04
CGA:   6    -0.487886757409E+03   -0.17520E-02   -0.17520E-02   688   0.251E-02-0.394E-05
CGA:   7    -0.487887510012E+03   -0.75260E-03   -0.75255E-03   688   0.122E-02 0.296E-05
CGA:   8    -0.487887871496E+03   -0.36148E-03   -0.36147E-03   688   0.485E-03 0.141E-05
CGA:   9    -0.487888018052E+03   -0.14656E-03   -0.14656E-03   688   0.147E-03-0.170E-06
CGA:  10    -0.487888062667E+03   -0.44614E-04   -0.44609E-04   688   0.477E-04 0.285E-06
  61 F= -.49226115E+03 E0= -.49225279E+03  d E =-.219271E-01  mag=     0.0549
       N       E                     dE             d eps       ncg     rms          ort
SDA:   1    -0.487417012590E+03    0.47101E+00    0.00000E+00   688   0.114E+01 0.000E+00
CGA:   2    -0.487786481503E+03   -0.36947E+00   -0.36948E+00   688   0.378E+00-0.235E-03
CGA:   3    -0.487872802638E+03   -0.86321E-01   -0.86333E-01   688   0.786E-01 0.684E-04
CGA:   4    -0.487889474873E+03   -0.16672E-01   -0.16672E-01   688   0.178E-01-0.289E-06
CGA:   5    -0.487893628183E+03   -0.41533E-02   -0.41537E-02   688   0.479E-02 0.122E-04
CGA:   6    -0.487894950052E+03   -0.13219E-02   -0.13219E-02   688   0.177E-02-0.408E-05
CGA:   7    -0.487895518843E+03   -0.56879E-03   -0.56864E-03   688   0.819E-03 0.348E-05
CGA:   8    -0.487895774560E+03   -0.25572E-03   -0.25571E-03   688   0.326E-03 0.953E-07
CGA:   9    -0.487895870636E+03   -0.96077E-04   -0.96071E-04   688   0.100E-03 0.481E-06
  62 F= -.49226721E+03 E0= -.49225869E+03  d E =-.279882E-01  mag=     0.0539
       N       E                     dE             d eps       ncg     rms          ort
SDA:   1    -0.487513127805E+03    0.38265E+00    0.00000E+00   688   0.968E+00 0.000E+00
CGA:   2    -0.487821569865E+03   -0.30844E+00   -0.30844E+00   688   0.330E+00 0.732E-04
CGA:   3    -0.487895830383E+03   -0.74261E-01   -0.74272E-01   688   0.688E-01 0.655E-04
CGA:   4    -0.487910673994E+03   -0.14844E-01   -0.14844E-01   688   0.154E-01-0.832E-05
CGA:   5    -0.487914230682E+03   -0.35567E-02   -0.35570E-02   688   0.429E-02 0.779E-05
CGA:   6    -0.487915369083E+03   -0.11384E-02   -0.11384E-02   688   0.161E-02-0.456E-05
CGA:   7    -0.487915858740E+03   -0.48966E-03   -0.48959E-03   688   0.768E-03 0.251E-05
CGA:   8    -0.487916089326E+03   -0.23059E-03   -0.23056E-03   688   0.317E-03 0.127E-05
CGA:   9    -0.487916182001E+03   -0.92675E-04   -0.92678E-04   688   0.100E-03-0.197E-06
  63 F= -.49228562E+03 E0= -.49227693E+03  d E =-.184169E-01  mag=     0.0528
       N       E                     dE             d eps       ncg     rms          ort
SDA:   1    -0.486971769700E+03    0.94432E+00    0.00000E+00   688   0.230E+01 0.000E+00
CGA:   2    -0.487704502825E+03   -0.73273E+00   -0.73271E+00   688   0.786E+00 0.256E-03
CGA:   3    -0.487881085307E+03   -0.17658E+00   -0.17663E+00   688   0.165E+00 0.228E-03
CGA:   4    -0.487916474371E+03   -0.35389E-01   -0.35392E-01   688   0.372E-01-0.662E-06
CGA:   5    -0.487925010806E+03   -0.85364E-02   -0.85366E-02   688   0.103E-01 0.124E-04
CGA:   6    -0.487927745345E+03   -0.27345E-02   -0.27345E-02   688   0.380E-02-0.594E-05
CGA:   7    -0.487928919355E+03   -0.11740E-02   -0.11739E-02   688   0.177E-02 0.401E-05
CGA:   8    -0.487929464241E+03   -0.54489E-03   -0.54482E-03   688   0.719E-03 0.215E-05
CGA:   9    -0.487929675514E+03   -0.21127E-03   -0.21127E-03   688   0.229E-03 0.212E-07
CGA:  10    -0.487929741425E+03   -0.65910E-04   -0.65906E-04   688   0.745E-04 0.417E-06
[...]
CGA:   7    -0.488293353682E+03   -0.25812E-03   -0.25819E-03   688   0.412E-03-0.251E-05
CGA:   8    -0.488293472556E+03   -0.11887E-03   -0.11888E-03   688   0.168E-03-0.122E-06
CGA:   9    -0.488293522323E+03   -0.49767E-04   -0.49752E-04   688   0.494E-04 0.526E-06
 125 F= -.49263855E+03 E0= -.49262932E+03  d E =-.378126E-02  mag=     0.0559
       N       E                     dE             d eps       ncg     rms          ort
SDA:   1    -0.488165112839E+03    0.12836E+00    0.00000E+00   688   0.335E+00 0.000E+00
CGA:   2    -0.488263486155E+03   -0.98373E-01   -0.98373E-01   688   0.110E+00 0.189E-04
CGA:   3    -0.488288614618E+03   -0.25128E-01   -0.25126E-01   688   0.268E-01-0.220E-04
CGA:   4    -0.488293912113E+03   -0.52975E-02   -0.52982E-02   688   0.526E-02-0.358E-05
CGA:   5    -0.488295184709E+03   -0.12726E-02   -0.12727E-02   688   0.133E-02 0.341E-05
CGA:   6    -0.488295538908E+03   -0.35420E-03   -0.35420E-03   688   0.488E-03 0.227E-05
CGA:   7    -0.488295683532E+03   -0.14462E-03   -0.14469E-03   688   0.224E-03-0.233E-05
CGA:   8    -0.488295749653E+03   -0.66121E-04   -0.66123E-04   688   0.909E-04-0.585E-07
 126 F= -.49264074E+03 E0= -.49263156E+03  d E =-.218657E-02  mag=     0.0546
       N       E                     dE             d eps       ncg     rms          ort
SDA:   1    -0.487888569933E+03    0.40711E+00    0.00000E+00   688   0.105E+01 0.000E+00
CGA:   2    -0.488196306099E+03   -0.30774E+00   -0.30773E+00   688   0.343E+00 0.911E-04
CGA:   3    -0.488274806510E+03   -0.78500E-01   -0.78488E-01   688   0.846E-01-0.101E-03
CGA:   4    -0.488291473396E+03   -0.16667E-01   -0.16672E-01   688   0.163E-01 0.298E-06
CGA:   5    -0.488295492659E+03   -0.40193E-02   -0.40194E-02   688   0.410E-02 0.684E-05
CGA:   6    -0.488296599201E+03   -0.11065E-02   -0.11065E-02   688   0.152E-02 0.258E-05
CGA:   7    -0.488297042003E+03   -0.44280E-03   -0.44289E-03   688   0.721E-03-0.329E-05
CGA:   8    -0.488297245845E+03   -0.20384E-03   -0.20385E-03   688   0.299E-03-0.329E-06
CGA:   9    -0.488297332507E+03   -0.86661E-04   -0.86647E-04   688   0.868E-04 0.642E-06
 127 F= -.49264225E+03 E0= -.49263325E+03  d E =-.370186E-02  mag=     0.0519
       N       E                     dE             d eps       ncg     rms          ort
SDA:   1    -0.488091726695E+03    0.20552E+00    0.00000E+00   688   0.533E+00 0.000E+00
CGA:   2    -0.488247341433E+03   -0.15561E+00   -0.15561E+00   688   0.178E+00 0.267E-03
CGA:   3    -0.488287401042E+03   -0.40060E-01   -0.40050E-01   688   0.440E-01-0.689E-04
CGA:   4    -0.488296266224E+03   -0.88652E-02   -0.88666E-02   688   0.846E-02-0.592E-05
CGA:   5    -0.488298304651E+03   -0.20384E-02   -0.20385E-02   688   0.217E-02 0.190E-05
CGA:   6    -0.488298875054E+03   -0.57040E-03   -0.57041E-03   688   0.775E-03 0.262E-05
CGA:   7    -0.488299106643E+03   -0.23159E-03   -0.23167E-03   688   0.354E-03-0.227E-05
CGA:   8    -0.488299211922E+03   -0.10528E-03   -0.10527E-03   688   0.148E-03 0.192E-06
CGA:   9    -0.488299255302E+03   -0.43380E-04   -0.43365E-04   688   0.445E-04 0.634E-06
 128 F= -.49264445E+03 E0= -.49263555E+03  d E =-.219376E-02  mag=     0.0510
       N       E                     dE             d eps       ncg     rms          ort
SDA:   1    -0.488292912496E+03    0.62994E-02    0.00000E+00   688   0.164E-01 0.000E+00
CGA:   2    -0.488297684980E+03   -0.47725E-02   -0.47724E-02   688   0.546E-02 0.152E-05
CGA:   3    -0.488298914109E+03   -0.12291E-02   -0.12291E-02   688   0.133E-02 0.210E-06
CGA:   4    -0.488299184321E+03   -0.27021E-03   -0.27013E-03   688   0.266E-03-0.140E-05
CGA:   5    -0.488299245632E+03   -0.61310E-04   -0.61311E-04   688   0.744E-04 0.238E-07
 129 F= -.49264449E+03 E0= -.49263562E+03  d E =-.223228E-02  mag=     0.0507
       N       E                     dE             d eps       ncg     rms          ort
SDA:   1    -0.488088746166E+03    0.21044E+00    0.00000E+00   688   0.547E+00 0.000E+00
CGA:   2    -0.488248235878E+03   -0.15949E+00   -0.15949E+00   688   0.180E+00 0.131E-06
CGA:   3    -0.488289108698E+03   -0.40873E-01   -0.40869E-01   688   0.450E-01-0.374E-04
CGA:   4    -0.488298027909E+03   -0.89192E-02   -0.89209E-02   688   0.880E-02-0.139E-05
CGA:   5    -0.488300174469E+03   -0.21466E-02   -0.21466E-02   688   0.220E-02 0.471E-05
CGA:   6    -0.488300763848E+03   -0.58938E-03   -0.58935E-03   688   0.808E-03 0.317E-05
CGA:   7    -0.488301000051E+03   -0.23620E-03   -0.23625E-03   688   0.377E-03-0.138E-05
CGA:   8    -0.488301109086E+03   -0.10904E-03   -0.10903E-03   688   0.153E-03 0.196E-06
CGA:   9    -0.488301154177E+03   -0.45091E-04   -0.45065E-04   688   0.447E-04 0.818E-06
 130 F= -.49264692E+03 E0= -.49263803E+03  d E =-.243403E-02  mag=     0.0507
       N       E                     dE             d eps       ncg     rms          ort
SDA:   1    -0.488227035967E+03    0.74073E-01    0.00000E+00   688   0.191E+00 0.000E+00
CGA:   2    -0.488282802781E+03   -0.55767E-01   -0.55767E-01   688   0.627E-01-0.277E-07
CGA:   3    -0.488297125708E+03   -0.14323E-01   -0.14322E-01   688   0.154E-01-0.720E-05
CGA:   4    -0.488300181424E+03   -0.30557E-02   -0.30559E-02   688   0.302E-02-0.248E-05
CGA:   5    -0.488300910705E+03   -0.72928E-03   -0.72933E-03   688   0.753E-03 0.252E-05
CGA:   6    -0.488301112500E+03   -0.20180E-03   -0.20178E-03   688   0.268E-03 0.225E-05
CGA:   7    -0.488301193626E+03   -0.81126E-04   -0.81171E-04   688   0.122E-03-0.113E-05
 131 F= -.49264727E+03 E0= -.49263835E+03  d E =-.278393E-02  mag=     0.0507
       N       E                     dE             d eps       ncg     rms          ort
SDA:   1    -0.488204328207E+03    0.96784E-01    0.00000E+00   688   0.255E+00 0.000E+00
CGA:   2    -0.488278344313E+03   -0.74016E-01   -0.74017E-01   688   0.833E-01-0.209E-04
CGA:   3    -0.488297311732E+03   -0.18967E-01   -0.18966E-01   688   0.211E-01-0.794E-05
CGA:   4    -0.488301414623E+03   -0.41029E-02   -0.41034E-02   688   0.419E-02-0.219E-05
CGA:   5    -0.488302420737E+03   -0.10061E-02   -0.10062E-02   688   0.108E-02 0.410E-05
CGA:   6    -0.488302697230E+03   -0.27649E-03   -0.27650E-03   688   0.399E-03 0.189E-05
CGA:   7    -0.488302812151E+03   -0.11492E-03   -0.11494E-03   688   0.172E-03-0.806E-06
CGA:   8    -0.488302866981E+03   -0.54830E-04   -0.54829E-04   688   0.663E-04 0.234E-07
 132 F= -.49264906E+03 E0= -.49264009E+03  d E =-.179345E-02  mag=     0.0494
       N       E                     dE             d eps       ncg     rms          ort
SDA:   1    -0.488142814075E+03    0.16000E+00    0.00000E+00   688   0.415E+00 0.000E+00
CGA:   2    -0.488263500043E+03   -0.12069E+00   -0.12069E+00   688   0.136E+00-0.471E-04
CGA:   3    -0.488294467242E+03   -0.30967E-01   -0.30965E-01   688   0.340E-01-0.177E-04
CGA:   4    -0.488301193796E+03   -0.67266E-02   -0.67277E-02   688   0.648E-02-0.116E-05
CGA:   5    -0.488302779379E+03   -0.15856E-02   -0.15857E-02   688   0.158E-02 0.512E-05
CGA:   6    -0.488303213076E+03   -0.43370E-03   -0.43367E-03   688   0.546E-03 0.235E-05
CGA:   7    -0.488303384298E+03   -0.17122E-03   -0.17130E-03   688   0.241E-03-0.147E-05
CGA:   8    -0.488303458728E+03   -0.74430E-04   -0.74404E-04   688   0.103E-03 0.597E-06
 133 F= -.49264981E+03 E0= -.49264080E+03  d E =-.253727E-02  mag=     0.0472
       N       E                     dE             d eps       ncg     rms          ort
SDA:   1    -0.488259153264E+03    0.44231E-01    0.00000E+00   688   0.118E+00 0.000E+00
CGA:   2    -0.488293237450E+03   -0.34084E-01   -0.34083E-01   688   0.395E-01 0.207E-04
CGA:   3    -0.488302043787E+03   -0.88063E-02   -0.88055E-02   688   0.995E-02-0.371E-05
CGA:   4    -0.488304051143E+03   -0.20074E-02   -0.20073E-02   688   0.187E-02-0.379E-05
CGA:   5    -0.488304502698E+03   -0.45155E-03   -0.45159E-03   688   0.503E-03 0.169E-05
CGA:   6    -0.488304631024E+03   -0.12833E-03   -0.12833E-03   688   0.185E-03 0.796E-06
CGA:   7    -0.488304685208E+03   -0.54184E-04   -0.54207E-04   688   0.812E-04-0.769E-06
 134 F= -.49265101E+03 E0= -.49264198E+03  d E =-.119958E-02  mag=     0.0462
       N       E                     dE             d eps       ncg     rms          ort
SDA:   1    -0.488205515805E+03    0.99115E-01    0.00000E+00   688   0.259E+00 0.000E+00
CGA:   2    -0.488280256119E+03   -0.74740E-01   -0.74738E-01   688   0.862E-01 0.712E-04
CGA:   3    -0.488299562200E+03   -0.19306E-01   -0.19303E-01   688   0.218E-01-0.190E-04
CGA:   4    -0.488303916688E+03   -0.43545E-02   -0.43548E-02   688   0.421E-02-0.463E-05
CGA:   5    -0.488304940468E+03   -0.10238E-02   -0.10238E-02   688   0.106E-02 0.269E-05
CGA:   6    -0.488305224406E+03   -0.28394E-03   -0.28393E-03   688   0.383E-03 0.117E-05
CGA:   7    -0.488305339313E+03   -0.11491E-03   -0.11495E-03   688   0.173E-03-0.122E-05
CGA:   8    -0.488305392189E+03   -0.52876E-04   -0.52873E-04   688   0.709E-04 0.621E-07
 135 F= -.49265167E+03 E0= -.49264263E+03  d E =-.186683E-02  mag=     0.0448
       N       E                     dE             d eps       ncg     rms          ort
SDA:   1    -0.488266804624E+03    0.38535E-01    0.00000E+00   688   0.103E+00 0.000E+00
CGA:   2    -0.488296649818E+03   -0.29845E-01   -0.29845E-01   688   0.343E-01 0.487E-05
CGA:   3    -0.488304372293E+03   -0.77225E-02   -0.77221E-02   688   0.866E-02-0.180E-05
CGA:   4    -0.488306095053E+03   -0.17228E-02   -0.17227E-02   688   0.162E-02-0.284E-05
CGA:   5    -0.488306496966E+03   -0.40191E-03   -0.40195E-03   688   0.410E-03 0.266E-05
CGA:   6    -0.488306608890E+03   -0.11192E-03   -0.11192E-03   688   0.152E-03 0.795E-06
CGA:   7    -0.488306654497E+03   -0.45606E-04   -0.45641E-04   688   0.694E-04-0.913E-06
 136 F= -.49265284E+03 E0= -.49264380E+03  d E =-.116751E-02  mag=     0.0448
       N       E                     dE             d eps       ncg     rms          ort
SDA:   1    -0.487949543976E+03    0.35706E+00    0.00000E+00   688   0.928E+00 0.000E+00
CGA:   2    -0.488218262638E+03   -0.26872E+00   -0.26872E+00   688   0.307E+00 0.279E-04
CGA:   3    -0.488287801824E+03   -0.69539E-01   -0.69532E-01   688   0.778E-01-0.599E-04
CGA:   4    -0.488303139609E+03   -0.15338E-01   -0.15342E-01   688   0.149E-01 0.151E-05
CGA:   5    -0.488306813272E+03   -0.36737E-02   -0.36738E-02   688   0.368E-02 0.769E-05
CGA:   6    -0.488307815436E+03   -0.10022E-02   -0.10022E-02   688   0.133E-02 0.163E-05
CGA:   7    -0.488308215575E+03   -0.40014E-03   -0.40023E-03   688   0.596E-03-0.244E-05
CGA:   8    -0.488308397821E+03   -0.18225E-03   -0.18225E-03   688   0.242E-03-0.537E-07
CGA:   9    -0.488308469341E+03   -0.71520E-04   -0.71507E-04   688   0.724E-04 0.421E-06
 137 F= -.49265437E+03 E0= -.49264530E+03  d E =-.269502E-02  mag=     0.0455
       N       E                     dE             d eps       ncg     rms          ort
SDA:   1    -0.488217013406E+03    0.91384E-01    0.00000E+00   688   0.242E+00 0.000E+00
CGA:   2    -0.488286838870E+03   -0.69825E-01   -0.69826E-01   688   0.798E-01-0.228E-04
CGA:   3    -0.488304857802E+03   -0.18019E-01   -0.18018E-01   688   0.200E-01-0.283E-05
CGA:   4    -0.488308836128E+03   -0.39783E-02   -0.39786E-02   688   0.380E-02-0.317E-05
CGA:   5    -0.488309760489E+03   -0.92436E-03   -0.92445E-03   688   0.920E-03 0.414E-05
CGA:   6    -0.488310010723E+03   -0.25023E-03   -0.25022E-03   688   0.322E-03 0.137E-05
CGA:   7    -0.488310109801E+03   -0.99078E-04   -0.99119E-04   688   0.141E-03-0.948E-06
 138 F= -.49265585E+03 E0= -.49264676E+03  d E =-.147790E-02  mag=     0.0460
       N       E                     dE             d eps       ncg     rms          ort
SDA:   1    -0.488066184365E+03    0.24383E+00    0.00000E+00   688   0.636E+00 0.000E+00
CGA:   2    -0.488250005885E+03   -0.18382E+00   -0.18383E+00   688   0.210E+00-0.952E-04
CGA:   3    -0.488297342364E+03   -0.47336E-01   -0.47335E-01   688   0.535E-01-0.131E-04
CGA:   4    -0.488307844818E+03   -0.10502E-01   -0.10505E-01   688   0.102E-01-0.198E-05
CGA:   5    -0.488310358403E+03   -0.25136E-02   -0.25137E-02   688   0.251E-02 0.629E-05
CGA:   6    -0.488311030192E+03   -0.67179E-03   -0.67178E-03   688   0.919E-03 0.212E-05
CGA:   7    -0.488311299226E+03   -0.26903E-03   -0.26908E-03   688   0.406E-03-0.151E-05
CGA:   8    -0.488311424388E+03   -0.12516E-03   -0.12517E-03   688   0.162E-03-0.197E-06
CGA:   9    -0.488311473238E+03   -0.48850E-04   -0.48843E-04   688   0.490E-04 0.233E-06
 139 F= -.49265695E+03 E0= -.49264783E+03  d E =-.257680E-02  mag=     0.0470
       N       E                     dE             d eps       ncg     rms          ort
SDA:   1    -0.488240764198E+03    0.70660E-01    0.00000E+00   688   0.188E+00 0.000E+00
CGA:   2    -0.488294885868E+03   -0.54122E-01   -0.54120E-01   688   0.630E-01 0.405E-04
CGA:   3    -0.488308833458E+03   -0.13948E-01   -0.13946E-01   688   0.157E-01-0.726E-05
CGA:   4    -0.488312034381E+03   -0.32009E-02   -0.32009E-02   688   0.295E-02-0.509E-05
CGA:   5    -0.488312748072E+03   -0.71369E-03   -0.71373E-03   688   0.733E-03 0.177E-05
CGA:   6    -0.488312943546E+03   -0.19547E-03   -0.19547E-03   688   0.258E-03 0.109E-05
CGA:   7    -0.488313021973E+03   -0.78426E-04   -0.78455E-04   688   0.114E-03-0.730E-06
 140 F= -.49265840E+03 E0= -.49264928E+03  d E =-.145274E-02  mag=     0.0473
       N       E                     dE             d eps       ncg     rms          ort
SDA:   1    -0.488205628752E+03    0.10731E+00    0.00000E+00   688   0.281E+00 0.000E+00
CGA:   2    -0.488286579173E+03   -0.80950E-01   -0.80948E-01   688   0.944E-01 0.831E-04
CGA:   3    -0.488307420439E+03   -0.20841E-01   -0.20838E-01   688   0.240E-01-0.168E-04
CGA:   4    -0.488312232527E+03   -0.48121E-02   -0.48124E-02   688   0.458E-02-0.572E-05
CGA:   5    -0.488313349550E+03   -0.11170E-02   -0.11171E-02   688   0.118E-02 0.205E-05
CGA:   6    -0.488313655762E+03   -0.30621E-03   -0.30622E-03   688   0.431E-03 0.149E-05
CGA:   7    -0.488313782314E+03   -0.12655E-03   -0.12658E-03   688   0.188E-03-0.874E-06
CGA:   8    -0.488313841490E+03   -0.59176E-04   -0.59183E-04   688   0.751E-04-0.144E-06
 141 F= -.49265910E+03 E0= -.49264998E+03  d E =-.215460E-02  mag=     0.0475
       N       E                     dE             d eps       ncg     rms          ort
SDA:   1    -0.488255434569E+03    0.58348E-01    0.00000E+00   688   0.154E+00 0.000E+00
CGA:   2    -0.488300007236E+03   -0.44573E-01   -0.44572E-01   688   0.511E-01 0.870E-05
CGA:   3    -0.488311466040E+03   -0.11459E-01   -0.11458E-01   688   0.129E-01-0.486E-05
CGA:   4    -0.488314042409E+03   -0.25764E-02   -0.25764E-02   688   0.241E-02-0.356E-05
CGA:   5    -0.488314640091E+03   -0.59768E-03   -0.59772E-03   688   0.590E-03 0.217E-05
CGA:   6    -0.488314803951E+03   -0.16386E-03   -0.16384E-03   688   0.207E-03 0.155E-05
CGA:   7    -0.488314869837E+03   -0.65886E-04   -0.65936E-04   688   0.894E-04-0.951E-06
 142 F= -.49266017E+03 E0= -.49265107E+03  d E =-.107149E-02  mag=     0.0476
       N       E                     dE             d eps       ncg     rms          ort
SDA:   1    -0.487780938999E+03    0.53386E+00    0.00000E+00   688   0.139E+01 0.000E+00
CGA:   2    -0.488182292106E+03   -0.40135E+00   -0.40135E+00   688   0.459E+00 0.232E-03
CGA:   3    -0.488285486314E+03   -0.10319E+00   -0.10318E+00   688   0.117E+00-0.130E-03
CGA:   4    -0.488308588111E+03   -0.23102E-01   -0.23111E-01   688   0.222E-01 0.676E-05
CGA:   5    -0.488314050901E+03   -0.54628E-02   -0.54629E-02   688   0.536E-02 0.615E-05
CGA:   6    -0.488315515311E+03   -0.14644E-02   -0.14644E-02   688   0.191E-02 0.292E-05
CGA:   7    -0.488316093235E+03   -0.57792E-03   -0.57799E-03   688   0.834E-03-0.177E-05
CGA:   8    -0.488316350182E+03   -0.25695E-03   -0.25694E-03   688   0.340E-03 0.202E-06
CGA:   9    -0.488316448485E+03   -0.98303E-04   -0.98290E-04   688   0.103E-03 0.619E-06
 143 F= -.49266188E+03 E0= -.49265281E+03  d E =-.277787E-02  mag=     0.0474
       N       E                     dE             d eps       ncg     rms          ort
SDA:   1    -0.488233060924E+03    0.83289E-01    0.00000E+00   688   0.219E+00 0.000E+00
CGA:   2    -0.488296504852E+03   -0.63444E-01   -0.63445E-01   688   0.727E-01-0.249E-04
CGA:   3    -0.488313083235E+03   -0.16578E-01   -0.16577E-01   688   0.182E-01-0.578E-05
CGA:   4    -0.488316662955E+03   -0.35797E-02   -0.35801E-02   688   0.353E-02-0.275E-05
CGA:   5    -0.488317516936E+03   -0.85398E-03   -0.85408E-03   688   0.865E-03 0.422E-05
CGA:   6    -0.488317754011E+03   -0.23707E-03   -0.23706E-03   688   0.309E-03 0.128E-05
CGA:   7    -0.488317849672E+03   -0.95661E-04   -0.95711E-04   688   0.134E-03-0.113E-05
 144 F= -.49266329E+03 E0= -.49265422E+03  d E =-.140899E-02  mag=     0.0477
       N       E                     dE             d eps       ncg     rms          ort
SDA:   1    -0.488268852285E+03    0.48902E-01    0.00000E+00   688   0.127E+00 0.000E+00
CGA:   2    -0.488305765138E+03   -0.36913E-01   -0.36913E-01   688   0.424E-01-0.880E-05
CGA:   3    -0.488315373730E+03   -0.96086E-02   -0.96081E-02   688   0.109E-01-0.211E-05
CGA:   4    -0.488317474420E+03   -0.21007E-02   -0.21008E-02   688   0.216E-02-0.264E-05
CGA:   5    -0.488318002628E+03   -0.52821E-03   -0.52827E-03   688   0.577E-03 0.298E-05
CGA:   6    -0.488318149554E+03   -0.14693E-03   -0.14694E-03   688   0.223E-03 0.130E-05
CGA:   7    -0.488318213751E+03   -0.64197E-04   -0.64218E-04   688   0.938E-04-0.885E-06
 145 F= -.49266366E+03 E0= -.49265458E+03  d E =-.177773E-02  mag=     0.0481
       N       E                     dE             d eps       ncg     rms          ort
SDA:   1    -0.488265401756E+03    0.52748E-01    0.00000E+00   688   0.139E+00 0.000E+00
CGA:   2    -0.488305766861E+03   -0.40365E-01   -0.40364E-01   688   0.468E-01 0.299E-04
CGA:   3    -0.488316228639E+03   -0.10462E-01   -0.10461E-01   688   0.118E-01-0.524E-05
CGA:   4    -0.488318567420E+03   -0.23388E-02   -0.23388E-02   688   0.232E-02-0.398E-05
CGA:   5    -0.488319130455E+03   -0.56303E-03   -0.56308E-03   688   0.599E-03 0.204E-05
CGA:   6    -0.488319288131E+03   -0.15768E-03   -0.15768E-03   688   0.225E-03 0.767E-06
CGA:   7    -0.488319353806E+03   -0.65675E-04   -0.65703E-04   688   0.101E-03-0.948E-06
 146 F= -.49266464E+03 E0= -.49265555E+03  d E =-.985594E-03  mag=     0.0487
       N       E                     dE             d eps       ncg     rms          ort
SDA:   1    -0.488276994942E+03    0.42293E-01    0.00000E+00   688   0.110E+00 0.000E+00
CGA:   2    -0.488308990693E+03   -0.31996E-01   -0.31995E-01   688   0.373E-01 0.215E-04
CGA:   3    -0.488317292352E+03   -0.83017E-02   -0.83009E-02   688   0.945E-02-0.248E-05
CGA:   4    -0.488319157204E+03   -0.18649E-02   -0.18648E-02   688   0.190E-02-0.360E-05
CGA:   5    -0.488319609842E+03   -0.45264E-03   -0.45268E-03   688   0.514E-03 0.169E-05
CGA:   6    -0.488319738131E+03   -0.12829E-03   -0.12830E-03   688   0.197E-03 0.821E-06
CGA:   7    -0.488319794210E+03   -0.56080E-04   -0.56100E-04   688   0.842E-04-0.821E-06
 147 F= -.49266494E+03 E0= -.49265583E+03  d E =-.128757E-02  mag=     0.0492
       N       E                     dE             d eps       ncg     rms          ort
SDA:   1    -0.488298354809E+03    0.21383E-01    0.00000E+00   688   0.576E-01 0.000E+00
CGA:   2    -0.488315301068E+03   -0.16946E-01   -0.16946E-01   688   0.191E-01 0.397E-05
CGA:   3    -0.488319566407E+03   -0.42653E-02   -0.42653E-02   688   0.485E-02 0.172E-05
CGA:   4    -0.488320512474E+03   -0.94607E-03   -0.94600E-03   688   0.973E-03-0.198E-05
CGA:   5    -0.488320747831E+03   -0.23536E-03   -0.23539E-03   688   0.256E-03 0.174E-05
CGA:   6    -0.488320813752E+03   -0.65921E-04   -0.65922E-04   688   0.101E-03 0.685E-06
 148 F= -.49266572E+03 E0= -.49265661E+03  d E =-.775419E-03  mag=     0.0496
