       N       E                     dE             d eps       ncg     rms          rms(c)
DAV:   1     0.264682939571E+04    0.26468E+04   -0.10430E+05  3992   0.115E+03
DAV:   2     0.336957901691E+02   -0.26131E+04   -0.25124E+04  4816   0.293E+02
DAV:   3    -0.502490579948E+03   -0.53619E+03   -0.53208E+03  4048   0.148E+02
DAV:   4    -0.525235810839E+03   -0.22745E+02   -0.22206E+02  4376   0.420E+01
DAV:   5    -0.526147387234E+03   -0.91158E+00   -0.90179E+00  4984   0.679E+00    0.412E+01
DAV:   6    -0.499520992976E+03    0.26626E+02   -0.52300E+01  4392   0.241E+01    0.254E+01
DAV:   7    -0.494608239247E+03    0.49128E+01   -0.40928E+01  4136   0.166E+01    0.162E+01
DAV:   8    -0.492906852508E+03    0.17014E+01   -0.16903E+01  4064   0.123E+01    0.112E+01
DAV:   9    -0.492887670741E+03    0.19182E-01   -0.11782E+01  4672   0.855E+00    0.576E+00
DAV:  10    -0.492325049121E+03    0.56262E+00   -0.63218E+00  4680   0.765E+00    0.310E+00
DAV:  11    -0.492252579029E+03    0.72470E-01   -0.16116E+00  4112   0.342E+00    0.185E+00
DAV:  12    -0.492223107493E+03    0.29472E-01   -0.99640E-01  4192   0.225E+00    0.146E+00
DAV:  13    -0.492182800188E+03    0.40307E-01   -0.51445E-01  4152   0.151E+00    0.652E-01
DAV:  14    -0.492180543866E+03    0.22563E-02   -0.12316E-01  3928   0.738E-01    0.397E-01
DAV:  15    -0.492180184215E+03    0.35965E-03   -0.53387E-02  4472   0.427E-01    0.323E-01
DAV:  16    -0.492179460213E+03    0.72400E-03   -0.31299E-02  4360   0.307E-01    0.211E-01
DAV:  17    -0.492179190884E+03    0.26933E-03   -0.10475E-02  4152   0.190E-01    0.117E-01
DAV:  18    -0.492179122583E+03    0.68301E-04   -0.10464E-03  3728   0.779E-02    0.509E-02
DAV:  19    -0.492179133756E+03   -0.11173E-04   -0.15612E-04  2200   0.335E-02
   1 F= -.49628713E+03 E0= -.49628713E+03  d E =0.000000E+00  mag=     0.0000
