       N       E                     dE             d eps       ncg     rms          rms(c)
DAV:   1     0.255209833920E+04    0.25521E+04   -0.11155E+05  4328   0.107E+03
DAV:   2    -0.234534673567E+03   -0.27866E+04   -0.26580E+04  5488   0.279E+02
DAV:   3    -0.702015465868E+03   -0.46748E+03   -0.46396E+03  4560   0.121E+02
DAV:   4    -0.718893647179E+03   -0.16878E+02   -0.16743E+02  4648   0.283E+01
DAV:   5    -0.719444988599E+03   -0.55134E+00   -0.55035E+00  5264   0.431E+00    0.476E+01
DAV:   6    -0.722339482937E+03   -0.28945E+01   -0.84320E+01  4880   0.286E+01    0.106E+02
DAV:   7    -0.685062386944E+03    0.37277E+02   -0.46590E+01  5240   0.375E+01    0.426E+01
DAV:   8    -0.679124910027E+03    0.59375E+01   -0.50637E+01  5480   0.395E+01    0.312E+01
DAV:   9    -0.661920988839E+03    0.17204E+02   -0.33478E+01  4600   0.149E+01    0.129E+01
DAV:  10    -0.662063139906E+03   -0.14215E+00   -0.96070E+00  4872   0.832E+00    0.101E+01
DAV:  11    -0.662442420797E+03   -0.37928E+00   -0.29101E+00  4832   0.408E+00    0.834E+00
DAV:  12    -0.662139974395E+03    0.30245E+00   -0.14881E+00  4856   0.277E+00    0.413E+00
DAV:  13    -0.662183793180E+03   -0.43819E-01   -0.28159E-01  4384   0.140E+00    0.330E+00
DAV:  14    -0.662211863079E+03   -0.28070E-01   -0.59638E-02  4624   0.598E-01    0.310E+00
DAV:  15    -0.662208697433E+03    0.31656E-02   -0.13838E-02  4720   0.317E-01    0.259E+00
DAV:  16    -0.662201307292E+03    0.73901E-02   -0.67218E-03  5032   0.238E-01    0.214E+00
DAV:  17    -0.662196383517E+03    0.49238E-02   -0.30019E-03  5192   0.178E-01    0.170E+00
DAV:  18    -0.662196051037E+03    0.33248E-03   -0.11899E-03  4144   0.900E-02    0.130E+00
DAV:  19    -0.662195198312E+03    0.85272E-03   -0.39572E-04  3560   0.582E-02    0.963E-01
DAV:  20    -0.662194131326E+03    0.10670E-02   -0.25824E-04  3424   0.514E-02    0.717E-01
DAV:  21    -0.662193346694E+03    0.78463E-03   -0.21402E-04  3208   0.451E-02    0.459E-01
DAV:  22    -0.662192831883E+03    0.51481E-03   -0.18632E-04  3272   0.431E-02    0.161E-01
DAV:  23    -0.662192839640E+03   -0.77570E-05   -0.48693E-05  2600   0.198E-02
   1 F= -.66861849E+03 E0= -.66861849E+03  d E =0.000000E+00  mag=    -1.0191
