  71  71   0   0
  0.4004138E+02  0.1485785E-08  0.1476232E-08  0.1500000E-08  0.3000000E-15
  1.000000000000000E-004
  CAR 
 unknown system                          
      5.28936016    -48.59481427  301     -2.04426769      1.00000000
    -48.595  0.0000E+00  0.0000E+00  0.0000E+00  0.0000E+00
    -48.415  0.0000E+00  0.0000E+00  0.0000E+00  0.0000E+00
    -48.236  0.0000E+00  0.0000E+00  0.0000E+00  0.0000E+00
    -48.056  0.0000E+00  0.0000E+00  0.0000E+00  0.0000E+00
    -47.876  0.0000E+00  0.0000E+00  0.0000E+00  0.0000E+00
    -47.697  0.0000E+00  0.0000E+00  0.0000E+00  0.0000E+00
    -47.517  0.0000E+00  0.0000E+00  0.0000E+00  0.0000E+00
    -47.338  0.0000E+00  0.0000E+00  0.0000E+00  0.0000E+00
    -47.158  0.0000E+00  0.0000E+00  0.0000E+00  0.0000E+00
    -46.978  0.0000E+00  0.0000E+00  0.0000E+00  0.0000E+00
    -46.799  0.0000E+00  0.0000E+00  0.0000E+00  0.0000E+00
    -46.619  0.0000E+00  0.1482E-12  0.0000E+00  0.2662E-13
    -46.439  0.0000E+00  0.2247E-06  0.0000E+00  0.4036E-07
    -46.260  0.0000E+00  0.7372E-03  0.0000E+00  0.1325E-03
    -46.080  0.0000E+00  0.1078E-01  0.0000E+00  0.2068E-02
    -45.901  0.0000E+00  0.1102E-01  0.0000E+00  0.4048E-02
    -45.721  0.0000E+00  0.1806E-01  0.0000E+00  0.7293E-02
    -45.541  0.0000E+00  0.1153E-02  0.0000E+00  0.7500E-02
    -45.362  0.0000E+00  0.5095E-06  0.0000E+00  0.7500E-02
    -45.182  0.0000E+00  0.5331E-12  0.0000E+00  0.7500E-02
    -45.003  0.0000E+00  0.0000E+00  0.0000E+00  0.7500E-02
    -44.823  0.0000E+00  0.0000E+00  0.0000E+00  0.7500E-02
    -44.643  0.0000E+00  0.0000E+00  0.0000E+00  0.7500E-02
    -44.464  0.1255E-13  0.0000E+00  0.2254E-14  0.7500E-02
    -44.284  0.4537E-07  0.0000E+00  0.8150E-08  0.7500E-02
    -44.104  0.3409E-03  0.0000E+00  0.6124E-04  0.7500E-02
    -43.925  0.9683E-02  0.0000E+00  0.1800E-02  0.7500E-02
    -43.745  0.1057E-01  0.0000E+00  0.3699E-02  0.7500E-02
    -43.566  0.1710E-01  0.0000E+00  0.6770E-02  0.7500E-02
    -43.386  0.4050E-02  0.0000E+00  0.7498E-02  0.7500E-02
    -43.206  0.1302E-04  0.0000E+00  0.7500E-02  0.7500E-02
    -43.027  0.1115E-09  0.0000E+00  0.7500E-02  0.7500E-02
    -42.847  0.1545E-17  0.0000E+00  0.7500E-02  0.7500E-02
    -42.668  0.0000E+00  0.0000E+00  0.7500E-02  0.7500E-02
    -42.488  0.0000E+00  0.0000E+00  0.7500E-02  0.7500E-02
    -42.308  0.0000E+00  0.0000E+00  0.7500E-02  0.7500E-02
    -42.129  0.0000E+00  0.0000E+00  0.7500E-02  0.7500E-02
    -41.949  0.0000E+00  0.0000E+00  0.7500E-02  0.7500E-02
    -41.769  0.0000E+00  0.0000E+00  0.7500E-02  0.7500E-02
    -41.590  0.0000E+00  0.0000E+00  0.7500E-02  0.7500E-02
    -41.410  0.0000E+00  0.0000E+00  0.7500E-02  0.7500E-02
    -41.231  0.0000E+00  0.0000E+00  0.7500E-02  0.7500E-02
    -41.051  0.0000E+00  0.0000E+00  0.7500E-02  0.7500E-02
    -40.871  0.0000E+00  0.0000E+00  0.7500E-02  0.7500E-02
    -40.692  0.0000E+00  0.0000E+00  0.7500E-02  0.7500E-02
    -40.512  0.0000E+00  0.0000E+00  0.7500E-02  0.7500E-02
    -40.333  0.0000E+00  0.0000E+00  0.7500E-02  0.7500E-02
    -40.153  0.0000E+00  0.0000E+00  0.7500E-02  0.7500E-02
    -39.973  0.0000E+00  0.0000E+00  0.7500E-02  0.7500E-02
    -39.794  0.0000E+00  0.0000E+00  0.7500E-02  0.7500E-02
    -39.614  0.0000E+00  0.0000E+00  0.7500E-02  0.7500E-02
    -39.435  0.0000E+00  0.0000E+00  0.7500E-02  0.7500E-02
    -39.255  0.0000E+00  0.0000E+00  0.7500E-02  0.7500E-02
    -39.075  0.0000E+00  0.0000E+00  0.7500E-02  0.7500E-02
    -38.896  0.0000E+00  0.0000E+00  0.7500E-02  0.7500E-02
    -38.716  0.0000E+00  0.0000E+00  0.7500E-02  0.7500E-02
    -38.536  0.0000E+00  0.0000E+00  0.7500E-02  0.7500E-02
    -38.357  0.0000E+00  0.0000E+00  0.7500E-02  0.7500E-02
    -38.177  0.0000E+00  0.0000E+00  0.7500E-02  0.7500E-02
    -37.998  0.0000E+00  0.0000E+00  0.7500E-02  0.7500E-02
    -37.818  0.0000E+00  0.0000E+00  0.7500E-02  0.7500E-02
    -37.638  0.0000E+00  0.0000E+00  0.7500E-02  0.7500E-02
    -37.459  0.0000E+00  0.0000E+00  0.7500E-02  0.7500E-02
    -37.279  0.0000E+00  0.0000E+00  0.7500E-02  0.7500E-02
    -37.100  0.0000E+00  0.0000E+00  0.7500E-02  0.7500E-02
    -36.920  0.0000E+00  0.0000E+00  0.7500E-02  0.7500E-02
    -36.740  0.0000E+00  0.0000E+00  0.7500E-02  0.7500E-02
    -36.561  0.0000E+00  0.0000E+00  0.7500E-02  0.7500E-02
    -36.381  0.0000E+00  0.0000E+00  0.7500E-02  0.7500E-02
    -36.201  0.0000E+00  0.0000E+00  0.7500E-02  0.7500E-02
    -36.022  0.0000E+00  0.0000E+00  0.7500E-02  0.7500E-02
    -35.842  0.0000E+00  0.0000E+00  0.7500E-02  0.7500E-02
    -35.663  0.0000E+00  0.0000E+00  0.7500E-02  0.7500E-02
    -35.483  0.0000E+00  0.0000E+00  0.7500E-02  0.7500E-02
    -35.303  0.0000E+00  0.0000E+00  0.7500E-02  0.7500E-02
    -35.124  0.0000E+00  0.0000E+00  0.7500E-02  0.7500E-02
    -34.944  0.0000E+00  0.0000E+00  0.7500E-02  0.7500E-02
    -34.765  0.0000E+00  0.0000E+00  0.7500E-02  0.7500E-02
    -34.585  0.0000E+00  0.0000E+00  0.7500E-02  0.7500E-02
    -34.405  0.0000E+00  0.0000E+00  0.7500E-02  0.7500E-02
    -34.226  0.0000E+00  0.0000E+00  0.7500E-02  0.7500E-02
    -34.046  0.0000E+00  0.0000E+00  0.7500E-02  0.7500E-02
    -33.866  0.0000E+00  0.0000E+00  0.7500E-02  0.7500E-02
    -33.687  0.0000E+00  0.0000E+00  0.7500E-02  0.7500E-02
    -33.507  0.0000E+00  0.0000E+00  0.7500E-02  0.7500E-02
    -33.328  0.0000E+00  0.0000E+00  0.7500E-02  0.7500E-02
    -33.148  0.0000E+00  0.0000E+00  0.7500E-02  0.7500E-02
    -32.968  0.0000E+00  0.0000E+00  0.7500E-02  0.7500E-02
    -32.789  0.0000E+00  0.0000E+00  0.7500E-02  0.7500E-02
    -32.609  0.0000E+00  0.0000E+00  0.7500E-02  0.7500E-02
    -32.430  0.0000E+00  0.0000E+00  0.7500E-02  0.7500E-02
    -32.250  0.0000E+00  0.0000E+00  0.7500E-02  0.7500E-02
    -32.070  0.0000E+00  0.0000E+00  0.7500E-02  0.7500E-02
    -31.891  0.0000E+00  0.0000E+00  0.7500E-02  0.7500E-02
    -31.711  0.0000E+00  0.0000E+00  0.7500E-02  0.7500E-02
    -31.531  0.0000E+00  0.0000E+00  0.7500E-02  0.7500E-02
    -31.352  0.0000E+00  0.0000E+00  0.7500E-02  0.7500E-02
    -31.172  0.0000E+00  0.0000E+00  0.7500E-02  0.7500E-02
    -30.993  0.0000E+00  0.0000E+00  0.7500E-02  0.7500E-02
    -30.813  0.0000E+00  0.0000E+00  0.7500E-02  0.7500E-02
    -30.633  0.0000E+00  0.0000E+00  0.7500E-02  0.7500E-02
    -30.454  0.0000E+00  0.0000E+00  0.7500E-02  0.7500E-02
    -30.274  0.0000E+00  0.0000E+00  0.7500E-02  0.7500E-02
    -30.095  0.0000E+00  0.0000E+00  0.7500E-02  0.7500E-02
    -29.915  0.0000E+00  0.0000E+00  0.7500E-02  0.7500E-02
    -29.735  0.0000E+00  0.0000E+00  0.7500E-02  0.7500E-02
    -29.556  0.0000E+00  0.0000E+00  0.7500E-02  0.7500E-02
    -29.376  0.0000E+00  0.0000E+00  0.7500E-02  0.7500E-02
    -29.197  0.0000E+00  0.0000E+00  0.7500E-02  0.7500E-02
    -29.017  0.0000E+00  0.0000E+00  0.7500E-02  0.7500E-02
    -28.837  0.0000E+00  0.0000E+00  0.7500E-02  0.7500E-02
    -28.658  0.0000E+00  0.0000E+00  0.7500E-02  0.7500E-02
    -28.478  0.0000E+00  0.0000E+00  0.7500E-02  0.7500E-02
    -28.298  0.0000E+00  0.0000E+00  0.7500E-02  0.7500E-02
    -28.119  0.0000E+00  0.0000E+00  0.7500E-02  0.7500E-02
    -27.939  0.0000E+00  0.0000E+00  0.7500E-02  0.7500E-02
    -27.760  0.0000E+00  0.0000E+00  0.7500E-02  0.7500E-02
    -27.580  0.0000E+00  0.0000E+00  0.7500E-02  0.7500E-02
    -27.400  0.0000E+00  0.0000E+00  0.7500E-02  0.7500E-02
    -27.221  0.0000E+00  0.0000E+00  0.7500E-02  0.7500E-02
    -27.041  0.0000E+00  0.0000E+00  0.7500E-02  0.7500E-02
    -26.862  0.0000E+00  0.0000E+00  0.7500E-02  0.7500E-02
    -26.682  0.0000E+00  0.0000E+00  0.7500E-02  0.7500E-02
    -26.502  0.0000E+00  0.0000E+00  0.7500E-02  0.7500E-02
    -26.323  0.0000E+00  0.0000E+00  0.7500E-02  0.7500E-02
    -26.143  0.0000E+00  0.0000E+00  0.7500E-02  0.7500E-02
    -25.963  0.0000E+00  0.0000E+00  0.7500E-02  0.7500E-02
    -25.784  0.0000E+00  0.0000E+00  0.7500E-02  0.7500E-02
    -25.604  0.0000E+00  0.0000E+00  0.7500E-02  0.7500E-02
    -25.425  0.0000E+00  0.0000E+00  0.7500E-02  0.7500E-02
    -25.245  0.0000E+00  0.0000E+00  0.7500E-02  0.7500E-02
    -25.065  0.0000E+00  0.0000E+00  0.7500E-02  0.7500E-02
    -24.886  0.0000E+00  0.0000E+00  0.7500E-02  0.7500E-02
    -24.706  0.1004E-16  0.1004E-16  0.7500E-02  0.7500E-02
    -24.527  0.3722E-09  0.3595E-09  0.7500E-02  0.7500E-02
    -24.347  0.2604E-04  0.2553E-04  0.7505E-02  0.7505E-02
    -24.167  0.4982E-02  0.4950E-02  0.8399E-02  0.8394E-02
    -23.988  0.8708E-02  0.8737E-02  0.9964E-02  0.9963E-02
    -23.808  0.2031E-03  0.2063E-03  0.1000E-01  0.1000E-01
    -23.628  0.1632E-07  0.1682E-07  0.1000E-01  0.1000E-01
    -23.449  0.2668E-14  0.2793E-14  0.1000E-01  0.1000E-01
    -23.269  0.0000E+00  0.0000E+00  0.1000E-01  0.1000E-01
    -23.090  0.0000E+00  0.0000E+00  0.1000E-01  0.1000E-01
    -22.910  0.0000E+00  0.0000E+00  0.1000E-01  0.1000E-01
    -22.730  0.0000E+00  0.0000E+00  0.1000E-01  0.1000E-01
    -22.551  0.0000E+00  0.0000E+00  0.1000E-01  0.1000E-01
    -22.371  0.0000E+00  0.0000E+00  0.1000E-01  0.1000E-01
    -22.192  0.0000E+00  0.0000E+00  0.1000E-01  0.1000E-01
    -22.012  0.2749E-14  0.2584E-14  0.1000E-01  0.1000E-01
    -21.832  0.1247E-07  0.1190E-07  0.1000E-01  0.1000E-01
    -21.653  0.1321E-03  0.1284E-03  0.1002E-01  0.1002E-01
    -21.473  0.6831E-02  0.6765E-02  0.1125E-01  0.1124E-01
    -21.293  0.1261E-01  0.1260E-01  0.1352E-01  0.1350E-01
    -21.114  0.1516E-01  0.1496E-01  0.1624E-01  0.1619E-01
    -20.934  0.1364E-01  0.1370E-01  0.1869E-01  0.1865E-01
    -20.755  0.1048E-01  0.1052E-01  0.2057E-01  0.2054E-01
    -20.575  0.1455E-01  0.1445E-01  0.2318E-01  0.2314E-01
    -20.395  0.1698E-01  0.1693E-01  0.2623E-01  0.2618E-01
    -20.216  0.9472E-02  0.9589E-02  0.2794E-01  0.2790E-01
    -20.036  0.1014E-01  0.9976E-02  0.2976E-01  0.2969E-01
    -19.857  0.1581E-01  0.1587E-01  0.3260E-01  0.3254E-01
    -19.677  0.1628E-01  0.1622E-01  0.3552E-01  0.3546E-01
    -19.497  0.1475E-01  0.1481E-01  0.3817E-01  0.3812E-01
    -19.318  0.9040E-02  0.8908E-02  0.3979E-01  0.3972E-01
    -19.138  0.1368E-01  0.1345E-01  0.4225E-01  0.4213E-01
    -18.959  0.1818E-01  0.1831E-01  0.4552E-01  0.4542E-01
    -18.779  0.1229E-01  0.1248E-01  0.4772E-01  0.4766E-01
    -18.599  0.1436E-01  0.1444E-01  0.5030E-01  0.5026E-01
    -18.420  0.1274E-01  0.1280E-01  0.5259E-01  0.5255E-01
    -18.240  0.1653E-01  0.1562E-01  0.5556E-01  0.5536E-01
    -18.060  0.1597E-01  0.1645E-01  0.5843E-01  0.5831E-01
    -17.881  0.1219E-01  0.1250E-01  0.6062E-01  0.6056E-01
    -17.701  0.7810E-02  0.7775E-02  0.6202E-01  0.6196E-01
    -17.522  0.2053E-01  0.2024E-01  0.6571E-01  0.6559E-01
    -17.342  0.1684E-01  0.1712E-01  0.6873E-01  0.6867E-01
    -17.162  0.1539E-01  0.1508E-01  0.7150E-01  0.7138E-01
    -16.983  0.1481E-01  0.1491E-01  0.7416E-01  0.7405E-01
    -16.803  0.1905E-01  0.1901E-01  0.7758E-01  0.7747E-01
    -16.624  0.1498E-01  0.1533E-01  0.8027E-01  0.8022E-01
    -16.444  0.8622E-02  0.8033E-02  0.8182E-01  0.8166E-01
    -16.264  0.1701E-01  0.1736E-01  0.8487E-01  0.8478E-01
    -16.085  0.1531E-01  0.1525E-01  0.8762E-01  0.8752E-01
    -15.905  0.1418E-01  0.1407E-01  0.9017E-01  0.9005E-01
    -15.725  0.1083E-01  0.1083E-01  0.9212E-01  0.9199E-01
    -15.546  0.7445E-02  0.7733E-02  0.9345E-01  0.9338E-01
    -15.366  0.7706E-02  0.7360E-02  0.9484E-01  0.9470E-01
    -15.187  0.1337E-01  0.1335E-01  0.9724E-01  0.9710E-01
    -15.007  0.1691E-01  0.1695E-01  0.1003E+00  0.1001E+00
    -14.827  0.2007E-01  0.2020E-01  0.1039E+00  0.1038E+00
    -14.648  0.1207E-01  0.1231E-01  0.1061E+00  0.1060E+00
    -14.468  0.1585E-01  0.1569E-01  0.1089E+00  0.1088E+00
    -14.289  0.1704E-01  0.1690E-01  0.1120E+00  0.1118E+00
    -14.109  0.1360E-01  0.1382E-01  0.1144E+00  0.1143E+00
    -13.929  0.1414E-01  0.1389E-01  0.1169E+00  0.1168E+00
    -13.750  0.1881E-01  0.1894E-01  0.1203E+00  0.1202E+00
    -13.570  0.1308E-01  0.1308E-01  0.1227E+00  0.1226E+00
    -13.390  0.1420E-01  0.1397E-01  0.1252E+00  0.1251E+00
    -13.211  0.1496E-01  0.1489E-01  0.1279E+00  0.1278E+00
    -13.031  0.1061E-01  0.1107E-01  0.1298E+00  0.1297E+00
    -12.852  0.1203E-01  0.1188E-01  0.1320E+00  0.1319E+00
    -12.672  0.2216E-01  0.2187E-01  0.1359E+00  0.1358E+00
    -12.492  0.1477E-01  0.1519E-01  0.1386E+00  0.1385E+00
    -12.313  0.9988E-02  0.1011E-01  0.1404E+00  0.1403E+00
    -12.133  0.1073E-01  0.1057E-01  0.1423E+00  0.1422E+00
    -11.954  0.1391E-01  0.1385E-01  0.1448E+00  0.1447E+00
    -11.774  0.2246E-01  0.2224E-01  0.1489E+00  0.1487E+00
    -11.594  0.2436E-01  0.2422E-01  0.1532E+00  0.1531E+00
    -11.415  0.1832E-01  0.1865E-01  0.1565E+00  0.1564E+00
    -11.235  0.8466E-02  0.8731E-02  0.1580E+00  0.1580E+00
    -11.056  0.1587E-01  0.1569E-01  0.1609E+00  0.1608E+00
    -10.876  0.1738E-01  0.1728E-01  0.1640E+00  0.1639E+00
    -10.696  0.1846E-01  0.1870E-01  0.1673E+00  0.1673E+00
    -10.517  0.1545E-01  0.1517E-01  0.1701E+00  0.1700E+00
    -10.337  0.3196E-01  0.3221E-01  0.1758E+00  0.1758E+00
    -10.157  0.2127E-01  0.2127E-01  0.1797E+00  0.1796E+00
     -9.978  0.2249E-01  0.2213E-01  0.1837E+00  0.1836E+00
     -9.798  0.2032E-01  0.2052E-01  0.1874E+00  0.1873E+00
     -9.619  0.2319E-01  0.2318E-01  0.1915E+00  0.1914E+00
     -9.439  0.3387E-01  0.3399E-01  0.1976E+00  0.1975E+00
     -9.259  0.3141E-01  0.3152E-01  0.2032E+00  0.2032E+00
     -9.080  0.2589E-01  0.2572E-01  0.2079E+00  0.2078E+00
     -8.900  0.3814E-01  0.3823E-01  0.2147E+00  0.2147E+00
     -8.721  0.3245E-01  0.3225E-01  0.2206E+00  0.2205E+00
     -8.541  0.4818E-01  0.4766E-01  0.2292E+00  0.2290E+00
     -8.361  0.5266E-01  0.5336E-01  0.2387E+00  0.2386E+00
     -8.182  0.3183E-01  0.3176E-01  0.2444E+00  0.2443E+00
     -8.002  0.2861E-01  0.2836E-01  0.2495E+00  0.2494E+00
     -7.822  0.3082E-01  0.3117E-01  0.2551E+00  0.2550E+00
     -7.643  0.2838E-01  0.2837E-01  0.2602E+00  0.2601E+00
     -7.463  0.3299E-01  0.3316E-01  0.2661E+00  0.2661E+00
     -7.284  0.3461E-01  0.3442E-01  0.2723E+00  0.2723E+00
     -7.104  0.2889E-01  0.2966E-01  0.2775E+00  0.2776E+00
     -6.924  0.3494E-01  0.3436E-01  0.2838E+00  0.2838E+00
     -6.745  0.2189E-01  0.2192E-01  0.2877E+00  0.2877E+00
     -6.565  0.1835E-01  0.1892E-01  0.2910E+00  0.2911E+00
     -6.386  0.1859E-01  0.1944E-01  0.2944E+00  0.2946E+00
     -6.206  0.3742E-01  0.3803E-01  0.3011E+00  0.3014E+00
     -6.026  0.3051E-01  0.2889E-01  0.3066E+00  0.3066E+00
     -5.847  0.2843E-01  0.2857E-01  0.3117E+00  0.3117E+00
     -5.667  0.2282E-01  0.2458E-01  0.3158E+00  0.3161E+00
     -5.487  0.1771E-01  0.1637E-01  0.3189E+00  0.3191E+00
     -5.308  0.1423E-01  0.1575E-01  0.3215E+00  0.3219E+00
     -5.128  0.1917E-01  0.1980E-01  0.3249E+00  0.3255E+00
     -4.949  0.2329E-01  0.3230E-01  0.3291E+00  0.3313E+00
     -4.769  0.3257E-01  0.2754E-01  0.3350E+00  0.3362E+00
     -4.589  0.3761E-01  0.3528E-01  0.3417E+00  0.3426E+00
     -4.410  0.1641E-01  0.1279E-01  0.3447E+00  0.3449E+00
     -4.230  0.2952E-02  0.3553E-02  0.3452E+00  0.3455E+00
     -4.051  0.8879E-02  0.1402E-01  0.3468E+00  0.3480E+00
     -3.871  0.1799E-01  0.2881E-01  0.3500E+00  0.3532E+00
     -3.691  0.1567E-01  0.1259E-01  0.3528E+00  0.3554E+00
     -3.512  0.1872E-01  0.9487E-02  0.3562E+00  0.3572E+00
     -3.332  0.1292E-01  0.1412E-01  0.3585E+00  0.3597E+00
     -3.152  0.7996E-02  0.1707E-01  0.3600E+00  0.3628E+00
     -2.973  0.6942E-02  0.5826E-02  0.3612E+00  0.3638E+00
     -2.793  0.3059E-02  0.9769E-02  0.3618E+00  0.3656E+00
     -2.614  0.6361E-03  0.4617E-02  0.3619E+00  0.3664E+00
     -2.434  0.3329E-03  0.2881E-02  0.3619E+00  0.3669E+00
     -2.254  0.3066E-02  0.3165E-02  0.3625E+00  0.3675E+00
     -2.075  0.6467E-02  0.5365E-02  0.3636E+00  0.3684E+00
     -1.895  0.9201E-02  0.1811E-02  0.3653E+00  0.3688E+00
     -1.716  0.1825E-02  0.5950E-02  0.3656E+00  0.3698E+00
     -1.536  0.2309E-02  0.1922E-01  0.3660E+00  0.3733E+00
     -1.356  0.9323E-02  0.1420E-01  0.3677E+00  0.3758E+00
     -1.177  0.2311E-02  0.9313E-02  0.3681E+00  0.3775E+00
     -0.997  0.5665E-02  0.4189E-02  0.3691E+00  0.3783E+00
     -0.818  0.2760E-01  0.1577E-01  0.3741E+00  0.3811E+00
     -0.638  0.2774E-01  0.1950E-01  0.3791E+00  0.3846E+00
     -0.458  0.2560E-01  0.1412E-01  0.3837E+00  0.3871E+00
     -0.279  0.2557E-01  0.1825E-01  0.3883E+00  0.3904E+00
     -0.099  0.1828E-01  0.1261E-01  0.3916E+00  0.3927E+00
      0.081  0.1090E-01  0.1141E-01  0.3935E+00  0.3947E+00
      0.260  0.1837E-01  0.2051E-01  0.3968E+00  0.3984E+00
      0.440  0.2510E-01  0.1776E-01  0.4013E+00  0.4016E+00
      0.619  0.1640E-01  0.1440E-01  0.4043E+00  0.4042E+00
      0.799  0.6586E-02  0.1169E-01  0.4055E+00  0.4063E+00
      0.979  0.1186E-01  0.1926E-01  0.4076E+00  0.4097E+00
      1.158  0.2216E-01  0.1265E-01  0.4116E+00  0.4120E+00
      1.338  0.1414E-01  0.1710E-01  0.4141E+00  0.4151E+00
      1.517  0.1966E-01  0.1884E-01  0.4176E+00  0.4185E+00
      1.697  0.2149E-01  0.2251E-01  0.4215E+00  0.4225E+00
      1.877  0.2717E-01  0.2739E-01  0.4264E+00  0.4274E+00
      2.056  0.3125E-01  0.3292E-01  0.4320E+00  0.4333E+00
      2.236  0.2625E-01  0.2859E-01  0.4367E+00  0.4385E+00
      2.416  0.2058E-01  0.2232E-01  0.4404E+00  0.4425E+00
      2.595  0.4029E-01  0.3831E-01  0.4476E+00  0.4494E+00
      2.775  0.5444E-01  0.4881E-01  0.4574E+00  0.4581E+00
      2.954  0.1410E-01  0.1026E-01  0.4599E+00  0.4600E+00
      3.134  0.2871E-03  0.1431E-03  0.4600E+00  0.4600E+00
      3.314  0.6181E-07  0.1254E-07  0.4600E+00  0.4600E+00
      3.493  0.3783E-13  0.2690E-14  0.4600E+00  0.4600E+00
      3.673  0.0000E+00  0.0000E+00  0.4600E+00  0.4600E+00
      3.852  0.0000E+00  0.0000E+00  0.4600E+00  0.4600E+00
      4.032  0.0000E+00  0.0000E+00  0.4600E+00  0.4600E+00
      4.212  0.0000E+00  0.0000E+00  0.4600E+00  0.4600E+00
      4.391  0.0000E+00  0.0000E+00  0.4600E+00  0.4600E+00
      4.571  0.0000E+00  0.0000E+00  0.4600E+00  0.4600E+00
      4.751  0.0000E+00  0.0000E+00  0.4600E+00  0.4600E+00
      4.930  0.0000E+00  0.0000E+00  0.4600E+00  0.4600E+00
      5.110  0.0000E+00  0.0000E+00  0.4600E+00  0.4600E+00
      5.289  0.0000E+00  0.0000E+00  0.4600E+00  0.4600E+00
