 vasp.5.4.4.18Apr17-6-g9f103f2a35 (build Jan 14 2022 15:04:31) complex          
  
 executed on             LinuxIFC date 2023.01.23  17:52:24
 running on   48 total cores
 distrk:  each k-point on   48 cores,    1 groups
 distr:  one band on NCORES_PER_BAND=  12 cores,    4 groups


--------------------------------------------------------------------------------------------------------


 INCAR:
 POTCAR:    PAW_PBE C 08Apr2002                   
 POTCAR:    PAW_PBE N 08Apr2002                   
 POTCAR:    PAW_PBE C 08Apr2002                   
 POTCAR:    PAW_PBE Cr_pv 02Aug2007               
 POTCAR:    PAW_PBE C 08Apr2002                   
   SHA256 =  253f7b50bb8d59471dbedb8285d89021f4a42ed1a2c5d38a03a736e69125dd95 C/
   COPYR  = (c) Copyright 08Apr2002 Georg Kresse                                
   COPYR  = This file is part of the software VASP. Any use, copying, and all ot
   COPYR  = If you do not have a valid VASP license, you may not use, copy or di
   VRHFIN =C: s2p2                                                              
   LEXCH  = PE                                                                  
   EATOM  =   147.1560 eV,   10.8157 Ry                                         
                                                                                
   TITEL  = PAW_PBE C 08Apr2002                                                 
   LULTRA =        F    use ultrasoft PP ?                                      
   IUNSCR =        1    unscreen: 0-lin 1-nonlin 2-no                           
   RPACOR =    1.200    partial core radius                                     
   POMASS =   12.011; ZVAL   =    4.000    mass and valenz                      
   RCORE  =    1.500    outmost cutoff radius                                   
   RWIGS  =    1.630; RWIGS  =    0.863    wigner-seitz radius (au A)           
   ENMAX  =  400.000; ENMIN  =  300.000 eV                                      
   ICORE  =        2    local potential                                         
   LCOR   =        T    correct aug charges                                     
   LPAW   =        T    paw PP                                                  
   EAUG   =  644.873                                                            
   DEXC   =    0.000                                                            
   RMAX   =    1.529    core radius for proj-oper                               
   RAUG   =    1.300    factor for augmentation sphere                          
   RDEP   =    1.501    radius for radial grids                                 
   RDEPT  =    1.300    core radius for aug-charge                              
                                                                                
   Atomic configuration                                                         
    4 entries                                                                   
     n  l   j            E        occ.                                          
     1  0  0.50      -273.3789   2.0000                                         
     2  0  0.50       -13.7508   2.0000                                         
     2  1  0.50        -5.2854   2.0000                                         
     3  2  1.50        -5.4423   0.0000                                         
   Description                                                                  
     l       E           TYP  RCUT    TYP  RCUT                                 
     0    -13.7508458     23  1.200                                             
     0     -8.2022199     23  1.200                                             
     1     -5.2854383     23  1.500                                             
     1     34.0145650     23  1.500                                             
     2     -5.4423304      7  1.500                                             
  local pseudopotential read in
  partial core-charges read in
  partial kinetic energy density read in
  atomic valenz-charges read in
  non local Contribution for L=           0  read in
    real space projection operators read in
  non local Contribution for L=           0  read in
    real space projection operators read in
  non local Contribution for L=           1  read in
    real space projection operators read in
  non local Contribution for L=           1  read in
    real space projection operators read in
    PAW grid and wavefunctions read in
 
   number of l-projection  operators is LMAX  =           4
   number of lm-projection operators is LMMAX =           8
 
 POTCAR:    PAW_PBE N 08Apr2002                   
   SHA256 =  e053789ff3a61a86a1b75d8a110fcc91f86041011e7b0817c7c99e4e8a6349d7 N/
   COPYR  = (c) Copyright 08Apr2002 Georg Kresse                                
   COPYR  = This file is part of the software VASP. Any use, copying, and all ot
   COPYR  = If you do not have a valid VASP license, you may not use, copy or di
   VRHFIN =N: s2p3                                                              
   LEXCH  = PE                                                                  
   EATOM  =   264.5486 eV,   19.4438 Ry                                         
                                                                                
   TITEL  = PAW_PBE N 08Apr2002                                                 
   LULTRA =        F    use ultrasoft PP ?                                      
   IUNSCR =        1    unscreen: 0-lin 1-nonlin 2-no                           
   RPACOR =    1.200    partial core radius                                     
   POMASS =   14.001; ZVAL   =    5.000    mass and valenz                      
   RCORE  =    1.500    outmost cutoff radius                                   
   RWIGS  =    1.400; RWIGS  =    0.741    wigner-seitz radius (au A)           
   ENMAX  =  400.000; ENMIN  =  300.000 eV                                      
   ICORE  =        2    local potential                                         
   LCOR   =        T    correct aug charges                                     
   LPAW   =        T    paw PP                                                  
   EAUG   =  627.112                                                            
   DEXC   =    0.000                                                            
   RMAX   =    1.529    core radius for proj-oper                               
   RAUG   =    1.300    factor for augmentation sphere                          
   RDEP   =    1.514    radius for radial grids                                 
   RDEPT  =    1.338    core radius for aug-charge                              
                                                                                
   Atomic configuration                                                         
    4 entries                                                                   
     n  l   j            E        occ.                                          
     1  0  0.50      -384.7179   2.0000                                         
     2  0  0.50       -18.5828   2.0000                                         
     2  1  0.50        -7.0898   3.0000                                         
     3  2  1.50        -6.8029   0.0000                                         
   Description                                                                  
     l       E           TYP  RCUT    TYP  RCUT                                 
     0    -18.5828119     23  1.200                                             
     0    -13.5018863     23  1.200                                             
     1     -7.0897853     23  1.500                                             
     1      9.5240782     23  1.500                                             
     2     -6.8029130      7  1.500                                             
  local pseudopotential read in
  partial core-charges read in
  partial kinetic energy density read in
  atomic valenz-charges read in
  non local Contribution for L=           0  read in
    real space projection operators read in
  non local Contribution for L=           0  read in
    real space projection operators read in
  non local Contribution for L=           1  read in
    real space projection operators read in
  non local Contribution for L=           1  read in
    real space projection operators read in
    PAW grid and wavefunctions read in
 
   number of l-projection  operators is LMAX  =           4
   number of lm-projection operators is LMMAX =           8
 
 POTCAR:    PAW_PBE C 08Apr2002                   
   SHA256 =  253f7b50bb8d59471dbedb8285d89021f4a42ed1a2c5d38a03a736e69125dd95 C/
   COPYR  = (c) Copyright 08Apr2002 Georg Kresse                                
   COPYR  = This file is part of the software VASP. Any use, copying, and all ot
   COPYR  = If you do not have a valid VASP license, you may not use, copy or di
   VRHFIN =C: s2p2                                                              
   LEXCH  = PE                                                                  
   EATOM  =   147.1560 eV,   10.8157 Ry                                         
                                                                                
   TITEL  = PAW_PBE C 08Apr2002                                                 
   LULTRA =        F    use ultrasoft PP ?                                      
   IUNSCR =        1    unscreen: 0-lin 1-nonlin 2-no                           
   RPACOR =    1.200    partial core radius                                     
   POMASS =   12.011; ZVAL   =    4.000    mass and valenz                      
   RCORE  =    1.500    outmost cutoff radius                                   
   RWIGS  =    1.630; RWIGS  =    0.863    wigner-seitz radius (au A)           
   ENMAX  =  400.000; ENMIN  =  300.000 eV                                      
   ICORE  =        2    local potential                                         
   LCOR   =        T    correct aug charges                                     
   LPAW   =        T    paw PP                                                  
   EAUG   =  644.873                                                            
   DEXC   =    0.000                                                            
   RMAX   =    1.529    core radius for proj-oper                               
   RAUG   =    1.300    factor for augmentation sphere                          
   RDEP   =    1.501    radius for radial grids                                 
   RDEPT  =    1.300    core radius for aug-charge                              
                                                                                
   Atomic configuration                                                         
    4 entries                                                                   
     n  l   j            E        occ.                                          
     1  0  0.50      -273.3789   2.0000                                         
     2  0  0.50       -13.7508   2.0000                                         
     2  1  0.50        -5.2854   2.0000                                         
     3  2  1.50        -5.4423   0.0000                                         
   Description                                                                  
     l       E           TYP  RCUT    TYP  RCUT                                 
     0    -13.7508458     23  1.200                                             
     0     -8.2022199     23  1.200                                             
     1     -5.2854383     23  1.500                                             
     1     34.0145650     23  1.500                                             
     2     -5.4423304      7  1.500                                             
  local pseudopotential read in
  partial core-charges read in
  partial kinetic energy density read in
  atomic valenz-charges read in
  non local Contribution for L=           0  read in
    real space projection operators read in
  non local Contribution for L=           0  read in
    real space projection operators read in
  non local Contribution for L=           1  read in
    real space projection operators read in
  non local Contribution for L=           1  read in
    real space projection operators read in
    PAW grid and wavefunctions read in
 
   number of l-projection  operators is LMAX  =           4
   number of lm-projection operators is LMMAX =           8
 
 POTCAR:    PAW_PBE Cr_pv 02Aug2007               
   SHA256 =  c9a7df34d3cdbacf1090e328ef39c0b420964e11c23f63548d1ac9dd218cdba0 Cr
   COPYR  = (c) Copyright 02Aug2007 Georg Kresse                                
   COPYR  = This file is part of the software VASP. Any use, copying, and all ot
   COPYR  = If you do not have a valid VASP license, you may not use, copy or di
   VRHFIN =Cr : p6d5s1                                                          
   LEXCH  = PE                                                                  
   EATOM  =  1647.9177 eV,  121.1185 Ry                                         
                                                                                
   TITEL  = PAW_PBE Cr_pv 02Aug2007                                             
   LULTRA =        F    use ultrasoft PP ?                                      
   IUNSCR =        1    unscreen: 0-lin 1-nonlin 2-no                           
   RPACOR =    2.080    partial core radius                                     
   POMASS =   51.996; ZVAL   =   12.000    mass and valenz                      
   RCORE  =    2.300    outmost cutoff radius                                   
   RWIGS  =    2.500; RWIGS  =    1.323    wigner-seitz radius (au A)           
   ENMAX  =  265.681; ENMIN  =  199.261 eV                                      
   ICORE  =        3    local potential                                         
   LCOR   =        T    correct aug charges                                     
   LPAW   =        T    paw PP                                                  
   EAUG   =  519.424                                                            
   DEXC   =    0.000                                                            
   RMAX   =    2.356    core radius for proj-oper                               
   RAUG   =    1.300    factor for augmentation sphere                          
   RDEP   =    2.447    radius for radial grids                                 
   RDEPT  =    1.882    core radius for aug-charge                              
                                                                                
   Atomic configuration                                                         
    8 entries                                                                   
     n  l   j            E        occ.                                          
     1  0  0.50     -5880.4963   2.0000                                         
     2  0  0.50      -667.0865   2.0000                                         
     2  1  1.50      -560.6250   6.0000                                         
     3  0  0.50       -73.9860   2.0000                                         
     3  1  1.50       -45.4378   6.0000                                         
     3  2  2.50        -2.9137   5.0000                                         
     4  0  0.50        -4.0071   1.0000                                         
     4  3  2.50        -1.3606   0.0000                                         
   Description                                                                  
     l       E           TYP  RCUT    TYP  RCUT                                 
     1    -45.4377911     23  2.000                                             
     1      1.3605826     23  2.000                                             
     2     -2.9136672     23  2.300                                             
     2     -4.2742498     23  2.300                                             
     0     -4.0071320     23  2.300                                             
     0      9.4498803     23  2.300                                             
     3      2.7211652     23  2.300                                             
  local pseudopotential read in
  partial core-charges read in
  partial kinetic energy density read in
  atomic valenz-charges read in
  non local Contribution for L=           1  read in
    real space projection operators read in
  non local Contribution for L=           1  read in
    real space projection operators read in
  non local Contribution for L=           2  read in
    real space projection operators read in
  non local Contribution for L=           2  read in
    real space projection operators read in
  non local Contribution for L=           0  read in
    real space projection operators read in
  non local Contribution for L=           0  read in
    real space projection operators read in
    PAW grid and wavefunctions read in
 
   number of l-projection  operators is LMAX  =           6
   number of lm-projection operators is LMMAX =          18
 
 Optimization of the real space projectors (new method)

 maximal supplied QI-value         = 25.13
 optimisation between [QCUT,QGAM] = [ 10.56, 21.36] = [ 31.20,127.80] Ry 
 Optimized for a Real-space Cutoff    1.32 Angstroem

   l    n(q)    QCUT    max X(q) W(low)/X(q) W(high)/X(q)  e(spline) 
   0      8    10.556   115.676    0.17E-03    0.39E-03    0.26E-06
   0      8    10.556    87.132    0.17E-03    0.39E-03    0.26E-06
   1      8    10.556     4.429    0.24E-03    0.31E-03    0.16E-06
   1      8    10.556     2.733    0.17E-03    0.22E-03    0.19E-06
 Optimization of the real space projectors (new method)

 maximal supplied QI-value         = 25.13
 optimisation between [QCUT,QGAM] = [ 10.56, 21.36] = [ 31.20,127.80] Ry 
 Optimized for a Real-space Cutoff    1.40 Angstroem

   l    n(q)    QCUT    max X(q) W(low)/X(q) W(high)/X(q)  e(spline) 
   0      9    10.556    79.467    0.20E-03    0.22E-03    0.30E-06
   0      9    10.556    66.151    0.20E-03    0.22E-03    0.30E-06
   1      8    10.556    12.181    0.10E-03    0.78E-03    0.19E-05
   1      8    10.556     8.434    0.11E-03    0.81E-03    0.19E-05
 Optimization of the real space projectors (new method)

 maximal supplied QI-value         = 25.13
 optimisation between [QCUT,QGAM] = [ 10.56, 21.36] = [ 31.20,127.80] Ry 
 Optimized for a Real-space Cutoff    1.32 Angstroem

   l    n(q)    QCUT    max X(q) W(low)/X(q) W(high)/X(q)  e(spline) 
   0      8    10.556   115.676    0.17E-03    0.39E-03    0.26E-06
   0      8    10.556    87.132    0.17E-03    0.39E-03    0.26E-06
   1      8    10.556     4.429    0.24E-03    0.31E-03    0.16E-06
   1      8    10.556     2.733    0.17E-03    0.22E-03    0.19E-06
 Optimization of the real space projectors (new method)

 maximal supplied QI-value         = 16.25
 optimisation between [QCUT,QGAM] = [ 10.73, 21.45] = [ 32.22,128.87] Ry 
 Optimized for a Real-space Cutoff    1.53 Angstroem

   l    n(q)    QCUT    max X(q) W(low)/X(q) W(high)/X(q)  e(spline) 
   1      9    10.726     3.262    0.64E-04    0.35E-04    0.11E-06
   1      9    10.726     5.741    0.13E-03    0.48E-04    0.19E-06
   2      9    10.726    60.438    0.12E-03    0.29E-04    0.13E-06
   2      9    10.726    55.380    0.12E-03    0.29E-04    0.13E-06
   0     10    10.726    80.273    0.43E-04    0.74E-05    0.81E-07
   0     10    10.726    36.654    0.34E-04    0.61E-05    0.73E-07
  PAW_PBE C 08Apr2002                   :
 energy of atom  1       EATOM= -147.1560
 kinetic energy error for atom=    0.0132 (will be added to EATOM!!)
  PAW_PBE N 08Apr2002                   :
 energy of atom  2       EATOM= -264.5486
 kinetic energy error for atom=    0.0298 (will be added to EATOM!!)
  PAW_PBE C 08Apr2002                   :
 energy of atom  3       EATOM= -147.1560
 kinetic energy error for atom=    0.0132 (will be added to EATOM!!)
  PAW_PBE Cr_pv 02Aug2007               :
 energy of atom  4       EATOM=-1647.9177
 kinetic energy error for atom=    0.0134 (will be added to EATOM!!)
 
 
 POSCAR: POSCAR-clean                            
  positions in direct lattice
  velocities in cartesian coordinates
 exchange correlation table for  LEXCH =        8
   RHO(1)=    0.500       N(1)  =     2000
   RHO(2)=  100.500       N(2)  =     4000

 VTST: version 3.2, (02/03/18)

 CHAIN: initializing optimizer
 
 OPT: Using VASP Conjugate-Gradient optimizer
 CHAIN: Read ICHAIN            0
 
 POSCAR: POSCAR-clean                            
  positions in direct lattice
  velocities in cartesian coordinates
 


--------------------------------------------------------------------------------------------------------


 ion  position               nearest neighbor table
   1  0.001  0.999  0.498-  60 1.41   2 1.42  70 1.43
   2  0.056  0.111  0.498-   1 1.42  13 1.43  15 1.43
   3  0.167  0.001  0.498-  60 1.41   4 1.42  62 1.42
   4  0.223  0.113  0.498-   3 1.42  15 1.42  17 1.44
   5  0.334  0.002  0.498-   6 1.42  62 1.43  64 1.43
   6  0.390  0.113  0.498-   5 1.42  19 1.42  17 1.43
   7  0.500  1.000  0.498-   8 1.42  64 1.43  66 1.44
   8  0.556  0.111  0.498-   7 1.42  21 1.42  19 1.43
   9  0.666  0.998  0.498-  10 1.42  66 1.43  68 1.44
  10  0.722  0.109  0.498-   9 1.42  23 1.43  21 1.43
  11  0.833  0.998  0.498-  12 1.42  70 1.43  68 1.44
  12  0.888  0.109  0.498-  11 1.42  13 1.42  23 1.43
  13  0.999  0.165  0.498-  14 1.42  12 1.42   2 1.43
  14  0.054  0.276  0.498-  13 1.42  27 1.42  25 1.42
  15  0.168  0.168  0.498-  16 1.42   4 1.42   2 1.43
  16  0.223  0.280  0.500-  15 1.42  27 1.43  29 1.44
  17  0.335  0.170  0.499-  18 1.42   6 1.43   4 1.44
  18  0.390  0.281  0.503-  17 1.42  29 1.44  31 1.44
  19  0.501  0.168  0.498-  20 1.42   6 1.42   8 1.43
  20  0.557  0.280  0.500-  19 1.42  33 1.42  31 1.44
  21  0.667  0.165  0.498-  22 1.42   8 1.42  10 1.43
  22  0.723  0.277  0.498-  21 1.42  35 1.42  33 1.43
  23  0.833  0.165  0.498-  24 1.42  10 1.43  12 1.43
  24  0.888  0.276  0.498-  23 1.42  25 1.42  35 1.42
  25  0.999  0.332  0.498-  24 1.42  14 1.42  26 1.43
  26  0.055  0.444  0.499-  39 1.41  37 1.42  25 1.43
  27  0.165  0.333  0.500-  28 1.42  14 1.42  16 1.43
  28  0.219  0.444  0.502-  41 1.41  27 1.42  39 1.42
  29  0.335  0.338  0.503-  30 1.42  18 1.44  16 1.44
  30  0.388  0.448  0.509-  41 1.41  29 1.42  71 2.00
  31  0.503  0.338  0.503-  32 1.42  18 1.44  20 1.44
  32  0.561  0.449  0.510-  43 1.41  31 1.42  71 2.00
  33  0.668  0.333  0.500-  34 1.42  20 1.42  22 1.43
  34  0.725  0.444  0.501-  43 1.41  33 1.42  45 1.42
  35  0.833  0.332  0.498-  22 1.42  24 1.42  36 1.43
  36  0.890  0.444  0.498-  45 1.41  37 1.42  35 1.43
  37  0.000  0.500  0.498-  36 1.42  26 1.42  38 1.42
  38  0.056  0.612  0.498-  49 1.42  47 1.42  37 1.42
  39  0.165  0.500  0.500-  26 1.41  28 1.42  40 1.42
  40  0.220  0.611  0.500-  49 1.41  51 1.42  39 1.42
  41  0.329  0.499  0.505-  30 1.41  28 1.41  42 1.44
  42  0.385  0.612  0.505-  53 1.41  51 1.41  41 1.44
  43  0.671  0.499  0.505-  32 1.41  34 1.41  44 1.44
  44  0.727  0.612  0.505-  55 1.40  57 1.41  43 1.44
  45  0.835  0.500  0.500-  36 1.41  34 1.42  46 1.42
  46  0.891  0.612  0.500-  47 1.41  57 1.42  45 1.42
  47  0.001  0.668  0.498-  46 1.41  38 1.42  48 1.43
  48  0.057  0.780  0.498-  59 1.42  61 1.42  47 1.43
  49  0.166  0.667  0.499-  40 1.41  38 1.42  50 1.43
  50  0.222  0.779  0.498-  61 1.42  63 1.42  49 1.43
  51  0.331  0.667  0.502-  42 1.41  52 1.42  40 1.42
  52  0.388  0.778  0.500-  51 1.42  65 1.42  63 1.43
  53  0.495  0.663  0.509-  42 1.41  54 1.42  71 2.00
  54  0.553  0.773  0.503-  53 1.42  67 1.44  65 1.44
  55  0.668  0.663  0.510-  44 1.40  56 1.42  71 2.00
  56  0.721  0.773  0.503-  55 1.42  69 1.44  67 1.44
  57  0.837  0.668  0.501-  44 1.41  46 1.42  58 1.42
  58  0.891  0.779  0.500-  69 1.42  57 1.42  59 1.42
  59  0.002  0.835  0.498-  60 1.41  48 1.42  58 1.42
  60  0.057  0.946  0.498-  59 1.41   1 1.41   3 1.41
  61  0.168  0.835  0.498-  50 1.42  62 1.42  48 1.42
  62  0.222  0.946  0.498-  61 1.42   3 1.42   5 1.43
  63  0.333  0.835  0.498-  64 1.42  50 1.42  52 1.43
  64  0.389  0.946  0.498-  63 1.42   7 1.43   5 1.43
  65  0.499  0.831  0.500-  66 1.42  52 1.42  54 1.44
  66  0.555  0.943  0.498-  65 1.42   9 1.43   7 1.44
  67  0.665  0.830  0.503-  68 1.42  54 1.44  56 1.44
  68  0.721  0.941  0.499-  67 1.42   9 1.44  11 1.44
  69  0.833  0.831  0.500-  58 1.42  70 1.42  56 1.44
  70  0.889  0.943  0.498-  69 1.42  11 1.43   1 1.43
  71  0.528  0.556  0.555-  53 2.00  32 2.00  30 2.00  55 2.00
 

IMPORTANT INFORMATION: All symmetrisations will be switched off!
NOSYMM: (Re-)initialisation of all symmetry stuff for point group C_1.

 
 
 KPOINTS: K-Points                                

Automatic generation of k-mesh.
Space group operators:
 irot       det(A)        alpha          n_x          n_y          n_z        tau_x        tau_y        tau_z
    1     1.000000     0.000000     1.000000     0.000000     0.000000     0.000000     0.000000     0.000000
 
 Subroutine IBZKPT returns following result:
 ===========================================
 
 Found      4 irreducible k-points:
 
 Following reciprocal coordinates:
            Coordinates               Weight
  0.000000  0.000000  0.000000      1.000000
  0.500000 -0.000000  0.000000      1.000000
 -0.000000  0.500000  0.000000      1.000000
  0.500000  0.500000  0.000000      1.000000
 
 Following cartesian coordinates:
            Coordinates               Weight
  0.000000  0.000000  0.000000      1.000000
  0.033654  0.019598  0.000000      1.000000
  0.000004  0.039197  0.000000      1.000000
  0.033658  0.058795  0.000000      1.000000
 


--------------------------------------------------------------------------------------------------------




 Dimension of arrays:
   k-points           NKPTS =      4   k-points in BZ     NKDIM =      4   number of bands    NBANDS=    184
   number of dos      NEDOS =    301   number of ions     NIONS =     71
   non local maximal  LDIM  =      6   non local SUM 2l+1 LMDIM =     18
   total plane-waves  NPLWV = ******
   max r-space proj   IRMAX =   6644   max aug-charges    IRDMAX=  15616
   dimension x,y,z NGX =   108 NGY =  108 NGZ =  108
   dimension x,y,z NGXF=   216 NGYF=  216 NGZF=  216
   support grid    NGXF=   216 NGYF=  216 NGZF=  216
   ions per type =              59   1  10   1
   NGX,Y,Z   is equivalent  to a cutoff of  12.08, 12.16, 11.97 a.u.
   NGXF,Y,Z  is equivalent  to a cutoff of  24.17, 24.32, 23.94 a.u.

 SYSTEM =  unknown system                          
 POSCAR =  POSCAR-clean                            

 Startparameter for this run:
   NWRITE =      2    write-flag & timer
   PREC   = accura    normal or accurate (medium, high low for compatibility)
   ISTART =      0    job   : 0-new  1-cont  2-samecut
   ICHARG =      2    charge: 1-file 2-atom 10-const
   ISPIN  =      2    spin polarized calculation?
   LNONCOLLINEAR =      F non collinear calculations
   LSORBIT =      F    spin-orbit coupling
   INIWAV =      1    electr: 0-lowe 1-rand  2-diag
   LASPH  =      F    aspherical Exc in radial PAW
   METAGGA=      F    non-selfconsistent MetaGGA calc.

 Electronic Relaxation 1
   ENCUT  =  440.0 eV  32.34 Ry    5.69 a.u.  25.41 25.25 25.66*2*pi/ulx,y,z
   ENINI  =  440.0     initial cutoff
   ENAUG  =  644.9 eV  augmentation charge cutoff
   NELM   =     50;   NELMIN=  2; NELMDL= -5     # of ELM steps 
   EDIFF  = 0.1E-04   stopping-criterion for ELM
   LREAL  =      T    real-space projection
   NLSPLINE    = F    spline interpolate recip. space projectors
   LCOMPAT=      F    compatible to vasp.4.4
   GGA_COMPAT  = T    GGA compatible to vasp.4.4-vasp.4.6
   LMAXPAW     = -100 max onsite density
   LMAXMIX     =    2 max onsite mixed and CHGCAR
   VOSKOWN=      0    Vosko Wilk Nusair interpolation
   ROPT   =   -0.00025  -0.00025  -0.00025  -0.00025
 Ionic relaxation
   EDIFFG = -.5E-01   stopping-criterion for IOM
   NSW    =    400    number of steps for IOM
   NBLOCK =      1;   KBLOCK =    400    inner block; outer block 
   IBRION =      2    ionic relax: 0-MD 1-quasi-New 2-CG
   NFREE  =      1    steps in history (QN), initial steepest desc. (CG)
   ISIF   =      2    stress and relaxation
   IWAVPR =     11    prediction:  0-non 1-charg 2-wave 3-comb
   ISYM   =      0    0-nonsym 1-usesym 2-fastsym
   LCORR  =      T    Harris-Foulkes like correction to forces

   POTIM  = 0.3000    time-step for ionic-motion
   TEIN   =    0.0    initial temperature
   TEBEG  =    0.0;   TEEND  =   0.0 temperature during run
   SMASS  =  -3.00    Nose mass-parameter (am)
   estimated Nose-frequenzy (Omega)   =  0.10E-29 period in steps =****** mass=  -0.504E-26a.u.
   SCALEE = 1.0000    scale energy and forces
   NPACO  =    256;   APACO  = 16.0  distance and # of slots for P.C.
   PSTRESS=    0.0 pullay stress

  Mass of Ions in am
   POMASS =  12.01 14.00 12.01 52.00
  Ionic Valenz
   ZVAL   =   4.00  5.00  4.00 12.00
  Atomic Wigner-Seitz radii
   RWIGS  =  -1.00 -1.00 -1.00 -1.00
  virtual crystal weights 
   VCA    =   1.00  1.00  1.00  1.00
   NELECT =     293.0000    total number of electrons
   NUPDOWN=      -1.0000    fix difference up-down

 DOS related values:
   EMIN   =  10.00;   EMAX   =-10.00  energy-range for DOS
   EFERMI =   0.00
   ISMEAR =     0;   SIGMA  =   0.10  broadening in eV -4-tet -1-fermi 0-gaus

 Electronic relaxation 2 (details)
   IALGO  =     68    algorithm
   LDIAG  =      T    sub-space diagonalisation (order eigenvalues)
   LSUBROT=      F    optimize rotation matrix (better conditioning)
   TURBO    =      0    0=normal 1=particle mesh
   IRESTART =      0    0=no restart 2=restart with 2 vectors
   NREBOOT  =      0    no. of reboots
   NMIN     =      0    reboot dimension
   EREF     =   0.00    reference energy to select bands
   IMIX   =      4    mixing-type and parameters
     AMIX     =   0.40;   BMIX     =  1.00
     AMIX_MAG =   1.60;   BMIX_MAG =  1.00
     AMIN     =   0.10
     WC   =   100.;   INIMIX=   1;  MIXPRE=   1;  MAXMIX= -45

 Intra band minimization:
   WEIMIN = 0.0010     energy-eigenvalue tresh-hold
   EBREAK =  0.14E-07  absolut break condition
   DEPER  =   0.30     relativ break condition  

   TIME   =   0.40     timestep for ELM

  volume/ion in A,a.u.               =      40.04       270.21
  Fermi-wavevector in a.u.,A,eV,Ry     =   0.767553  1.450464  8.015699  0.589137
  Thomas-Fermi vector in A             =   1.868134
 
 Write flags
   LWAVE        =      F    write WAVECAR
   LDOWNSAMPLE  =      F    k-point downsampling of WAVECAR
   LCHARG       =      F    write CHGCAR
   LVTOT        =      F    write LOCPOT, total local potential
   LVHAR        =      F    write LOCPOT, Hartree potential only
   LELF         =      F    write electronic localiz. function (ELF)
   LORBIT       =      0    0 simple, 1 ext, 2 COOP (PROOUT), +10 PAW based schemes


 Dipole corrections
   LMONO  =      F    monopole corrections only (constant potential shift)
   LDIPOL =      F    correct potential (dipole corrections)
   IDIPOL =      0    1-x, 2-y, 3-z, 4-all directions 
   EPSILON=  1.0000000 bulk dielectric constant

 Exchange correlation treatment:
   GGA     =    --    GGA type
   LEXCH   =     8    internal setting for exchange type
   VOSKOWN=      0    Vosko Wilk Nusair interpolation
   LHFCALC =     F    Hartree Fock is set to
   LHFONE  =     F    Hartree Fock one center treatment
   AEXX    =    0.0000 exact exchange contribution

 Linear response parameters
   LEPSILON=     F    determine dielectric tensor
   LRPA    =     F    only Hartree local field effects (RPA)
   LNABLA  =     F    use nabla operator in PAW spheres
   LVEL    =     F    velocity operator in full k-point grid
   LINTERFAST=   F  fast interpolation
   KINTER  =     0    interpolate to denser k-point grid
   CSHIFT  =0.1000    complex shift for real part using Kramers Kronig
   OMEGAMAX=  -1.0    maximum frequency
   DEG_THRESHOLD= 0.2000000E-02 threshold for treating states as degnerate
   RTIME   =   -0.100 relaxation time in fs
  (WPLASMAI=    0.000 imaginary part of plasma frequency in eV, 0.658/RTIME)
   DFIELD  = 0.0000000 0.0000000 0.0000000 field for delta impulse in time
 
 Orbital magnetization related:
   ORBITALMAG=     F  switch on orbital magnetization
   LCHIMAG   =     F  perturbation theory with respect to B field
   DQ        =  0.001000  dq finite difference perturbation B field
   LLRAUG    =     F  two centre corrections for induced B field



--------------------------------------------------------------------------------------------------------


 conjugate gradient relaxation of ions
 charge density and potential will be updated during run
 spin polarized calculation
 RMM-DIIS sequential band-by-band and
  variant of blocked Davidson during initial phase
 perform sub-space diagonalisation
    before iterative eigenvector-optimisation
 modified Broyden-mixing scheme, WC =      100.0
 initial mixing is a Kerker type mixing with AMIX =  0.4000 and BMIX =      1.0000
 Hartree-type preconditioning will be used
 using additional bands           37
 real space projection scheme for non local part
 use partial core corrections
 calculate Harris-corrections to forces 
   (improved forces if not selfconsistent)
 use gradient corrections 
 use of overlap-Matrix (Vanderbilt PP)
 Gauss-broadening in eV      SIGMA  =   0.10


--------------------------------------------------------------------------------------------------------


  energy-cutoff  :      440.00
  volume of cell :     2842.94
      direct lattice vectors                 reciprocal lattice vectors
    14.857851351 -0.001371368  0.000000000     0.067308101  0.039196736  0.000000000
    -7.428925675 12.756850017  0.000000000     0.000007236  0.078393471  0.000000000
     0.000000000  0.000000000 15.000000000     0.000000000  0.000000000  0.066666667

  length of vectors
    14.857851414 14.762322278 15.000000000     0.077889438  0.078393471  0.066666667


 
 k-points in units of 2pi/SCALE and weight: K-Points                                
   0.00000000  0.00000000  0.00000000       0.250
   0.03365405  0.01959837  0.00000000       0.250
   0.00000362  0.03919674  0.00000000       0.250
   0.03365767  0.05879510  0.00000000       0.250
 
 k-points in reciprocal lattice and weights: K-Points                                
   0.00000000  0.00000000  0.00000000       0.250
   0.50000000 -0.00000000  0.00000000       0.250
  -0.00000000  0.50000000  0.00000000       0.250
   0.50000000  0.50000000  0.00000000       0.250
 
 position of ions in fractional coordinates (direct lattice) 
   0.00057525  0.99935132  0.49767315
   0.05611699  0.11070999  0.49772555
   0.16689192  0.00148773  0.49759831
   0.22253984  0.11263856  0.49828444
   0.33369295  0.00207701  0.49772471
   0.38984653  0.11330516  0.49838244
   0.49986893  0.99981306  0.49773325
   0.55573466  0.11133694  0.49766068
   0.66594100  0.99776086  0.49825781
   0.72163643  0.10916153  0.49753798
   0.83298605  0.99788201  0.49835611
   0.88808162  0.10911030  0.49773269
   0.99899097  0.16484362  0.49781151
   0.05442566  0.27641140  0.49848548
   0.16750482  0.16831560  0.49837984
   0.22305466  0.27958155  0.50005611
   0.33472164  0.16959957  0.49942457
   0.39049053  0.28105399  0.50252665
   0.50081822  0.16808611  0.49842606
   0.55678753  0.27969503  0.50003769
   0.66662422  0.16548728  0.49752154
   0.72257466  0.27675701  0.49802765
   0.83262781  0.16486102  0.49761686
   0.88832826  0.27627524  0.49775897
   0.99910890  0.33206011  0.49831495
   0.05453593  0.44388471  0.49877620
   0.16530603  0.33279291  0.50002490
   0.21919537  0.44383103  0.50173506
   0.33538934  0.33779484  0.50338402
   0.38761297  0.44846427  0.50944072
   0.50259274  0.33775310  0.50347481
   0.56129573  0.44861709  0.50964380
   0.66767955  0.33293706  0.49966947
   0.72490068  0.44401088  0.50128630
   0.83332728  0.33223918  0.49791065
   0.88952976  0.44396540  0.49824621
   0.00002323  0.50005898  0.49826019
   0.05574767  0.61170222  0.49826510
   0.16452737  0.49981214  0.50035362
   0.22027233  0.61136101  0.50033005
   0.32900803  0.49922750  0.50516363
   0.38526613  0.61181742  0.50516860
   0.67063055  0.49946349  0.50521124
   0.72721685  0.61230200  0.50517656
   0.83544527  0.49994546  0.49958597
   0.89129924  0.61160905  0.49956047
   0.00112768  0.66789324  0.49824101
   0.05690792  0.77995624  0.49789803
   0.16612090  0.66729448  0.49878006
   0.22239332  0.77905982  0.49831292
   0.33091877  0.66726179  0.50169457
   0.38816837  0.77834756  0.50001767
   0.49466427  0.66255012  0.50947550
   0.55324533  0.77330381  0.50337466
   0.66848765  0.66257143  0.50983560
   0.72074908  0.77344056  0.50347461
   0.83719822  0.66781763  0.50118632
   0.89103873  0.77923415  0.49967326
   0.00190015  0.83546990  0.49809324
   0.05667965  0.94564178  0.49757493
   0.16763009  0.83478101  0.49774131
   0.22231522  0.94600294  0.49761512
   0.33328092  0.83456518  0.49849587
   0.38884244  0.94569015  0.49782033
   0.49901058  0.83149086  0.50006545
   0.55492971  0.94302018  0.49838816
   0.66516164  0.82983680  0.50250573
   0.72103514  0.94096439  0.49939886
   0.83254210  0.83131467  0.50002556
   0.88922112  0.94288949  0.49838781
   0.52787909  0.55556995  0.55486084
 
 position of ions in cartesian coordinates  (Angst):
  -7.41555971 12.74857413  7.46509729
   0.01132162  1.41223383  7.46588318
   2.46860321  0.01874982  7.46397471
   2.46968034  1.43660804  7.47426667
   4.94253034  0.02603850  7.46587058
   4.95054621  1.44488232  7.47573658
  -0.00055859 12.75377975  7.46599880
   7.42990914  1.41954655  7.46491016
   2.48216111 12.72737240  7.47386720
   9.91101391  1.39156766  7.46306967
   4.96319153 12.72868886  7.47534159
  12.38441234  1.39068581  7.46599035
  13.61824836  2.10151534  7.46717269
  -1.24479134  3.52606416  7.47728227
   1.23835755  2.14694720  7.47569761
   1.23712239  3.56627405  7.50084167
   3.71330180  2.16309725  7.49136853
   3.71392101  3.58482807  7.53789975
   6.19238340  2.14356246  7.47639092
   6.19483270  3.56726398  7.50056529
   8.67521086  2.11018225  7.46282308
   8.67989966  3.52955669  7.47041470
  11.14631989  2.10196551  7.46425291
  11.14622106  3.52318359  7.46638455
  12.37776163  4.23467088  7.47472422
  -2.48729981  5.66249582  7.48164296
  -0.01620142  4.24516257  7.50037346
  -0.04041546  5.66158531  7.52602586
   2.47371215  4.30873822  7.55076031
   2.42748818  5.72045983  7.64161086
   4.95830552  4.30797642  7.55212209
   5.00690549  5.72217123  7.64465704
   7.44691878  4.24631250  7.49504208
   7.47194275  5.66318614  7.51929451
   9.91327270  4.23718262  7.46865982
   9.91831494  5.66238021  7.47369320
  -3.71455588  6.37917738  7.47390279
  -3.71599978  7.80331707  7.47397654
  -1.26854411  6.37580291  7.50530426
  -1.26898194  7.79873864  7.50495068
   1.17962845  6.36811913  7.57745449
   1.17908068  7.80433476  7.57752903
   6.25365190  6.37066120  7.57816855
   6.25613377  7.81004754  7.57764835
   8.69886398  6.37658349  7.49378949
   8.69919348  7.80098262  7.49340700
  -4.94497440  8.52021238  7.47361519
  -4.94870754  9.94970674  7.46847040
  -2.48908143  8.51234775  7.48170097
  -2.48329057  9.93804426  7.47469383
  -0.04029646  8.51170483  7.52541860
  -0.01493825  9.92873078  7.50026512
   2.42761266  8.45137413  7.64213249
   2.47522037  9.86416203  7.55061985
   5.01009613  8.45140766  7.64753402
   4.96295030  9.86567677  7.55211909
   7.47779910  8.51810126  7.51779480
   7.45004842  9.93935121  7.49509892
  -6.17841169 10.65796159  7.47139866
  -6.18296478 12.06333267  7.46362401
  -3.71090313 10.64894622  7.46611964
  -3.72465905 12.06771275  7.46422677
  -1.24808433 10.64596580  7.47743800
  -1.24809866 12.06349416  7.46730491
   1.23714125 10.60651986  7.50098176
   1.23943635 12.02920596  7.47582233
   3.71807690 10.58519137  7.53758591
   3.72267842 12.00275274  7.49098290
   6.19401185 10.60381479  7.50038343
   6.20725923 12.02708036  7.47581718
   3.71586114  7.08659865  8.32291255
 


--------------------------------------------------------------------------------------------------------


 k-point  1 :   0.0000 0.0000 0.0000  plane waves:   59585
 k-point  2 :   0.5000-0.0000 0.0000  plane waves:   59554
 k-point  3 :  -0.0000 0.5000 0.0000  plane waves:   59630
 k-point  4 :   0.5000 0.5000 0.0000  plane waves:   59554

 maximum and minimum number of plane-waves per node :      4990     4933

 maximum number of plane-waves:     59630
 maximum index in each direction: 
   IXMAX=   25   IYMAX=   25   IZMAX=   25
   IXMIN=  -25   IYMIN=  -25   IZMIN=  -25


 real space projection operators:
  total allocation   :      18897.89 KBytes
  max/ min on nodes  :       1623.03       1539.61


 parallel 3D FFT for wavefunctions:
    minimum data exchange during FFTs selected (reduces bandwidth)
 parallel 3D FFT for charge:
    minimum data exchange during FFTs selected (reduces bandwidth)


 total amount of memory used by VASP MPI-rank0   111625. kBytes
=======================================================================

   base      :      30000. kBytes
   nonlr-proj:       9916. kBytes
   fftplans  :      10852. kBytes
   grid      :      30996. kBytes
   one-center:        186. kBytes
   wavefun   :      29675. kBytes
 
     INWAV:  cpu time    0.0000: real time    0.0000
 Broyden mixing: mesh for mixing (old mesh)
   NGX = 51   NGY = 51   NGZ = 51
  (NGX  =216   NGY  =216   NGZ  =216)
  gives a total of 132651 points

 initial charge density was supplied:
 charge density of overlapping atoms calculated
 number of electron     293.0000000 magnetization       1.0000000
 keeping initial charge density in first step


--------------------------------------------------------------------------------------------------------


 Maximum index for non-local projection operator          550
 Maximum index for augmentation-charges          326 (set IRDMAX)


--------------------------------------------------------------------------------------------------------


 First call to EWALD:  gamma=   0.125
 Maximum number of real-space cells 3x 3x 3
 Maximum number of reciprocal cells 3x 3x 3

    FEWALD:  cpu time    0.0049: real time    0.0051


--------------------------------------- Iteration      1(   1)  ---------------------------------------


    POTLOK:  cpu time    0.3785: real time    0.4108
    SETDIJ:  cpu time    0.0130: real time    0.0131
     EDDAV:  cpu time   11.6491: real time   11.7740
       DOS:  cpu time    0.0014: real time    0.0014
    --------------------------------------------
      LOOP:  cpu time   12.0420: real time   12.1994

 eigenvalue-minimisations  :  3368
 total energy-change (2. order) : 0.2466688E+04  (-0.1079343E+05)
 number of electron     293.0000000 magnetization       1.0000000
 augmentation part      293.0000000 magnetization       1.0000000

 Free energy of the ion-electron system (eV)
  ---------------------------------------------------
  alpha Z        PSCENC =       157.24145127
  Ewald energy   TEWEN  =     30444.92037145
  -Hartree energ DENC   =    -39607.24006143
  -exchange      EXHF   =         0.00000000
  -V(xc)+E(xc)   XCENC  =       982.92441483
  PAW double counting   =      9000.30529238    -9089.18527416
  entropy T*S    EENTRO =        -0.11195449
  eigenvalues    EBANDS =     -1487.44355951
  atomic energy  EATOM  =     12065.27733323
  Solvation  Ediel_sol  =         0.00000000
  ---------------------------------------------------
  free energy    TOTEN  =      2466.68801356 eV

  energy without entropy =     2466.79996806  energy(sigma->0) =     2466.74399081


--------------------------------------------------------------------------------------------------------




--------------------------------------- Iteration      1(   2)  ---------------------------------------


     EDDAV:  cpu time   14.8524: real time   15.1926
       DOS:  cpu time    0.0009: real time    0.0009
    --------------------------------------------
      LOOP:  cpu time   14.8533: real time   15.1935

 eigenvalue-minimisations  :  4216
 total energy-change (2. order) :-0.2697874E+04  (-0.2578340E+04)
 number of electron     293.0000000 magnetization       1.0000000
 augmentation part      293.0000000 magnetization       1.0000000

 Free energy of the ion-electron system (eV)
  ---------------------------------------------------
  alpha Z        PSCENC =       157.24145127
  Ewald energy   TEWEN  =     30444.92037145
  -Hartree energ DENC   =    -39607.24006143
  -exchange      EXHF   =         0.00000000
  -V(xc)+E(xc)   XCENC  =       982.92441483
  PAW double counting   =      9000.30529238    -9089.18527416
  entropy T*S    EENTRO =        -0.01435490
  eigenvalues    EBANDS =     -4185.41520513
  atomic energy  EATOM  =     12065.27733323
  Solvation  Ediel_sol  =         0.00000000
  ---------------------------------------------------
  free energy    TOTEN  =      -231.18603247 eV

  energy without entropy =     -231.17167757  energy(sigma->0) =     -231.17885502


--------------------------------------------------------------------------------------------------------




--------------------------------------- Iteration      1(   3)  ---------------------------------------


     EDDAV:  cpu time   12.6081: real time   12.7648
       DOS:  cpu time    0.0009: real time    0.0009
    --------------------------------------------
      LOOP:  cpu time   12.6091: real time   12.7657

 eigenvalue-minimisations  :  3568
 total energy-change (2. order) :-0.4561571E+03  (-0.4533982E+03)
 number of electron     293.0000000 magnetization       1.0000000
 augmentation part      293.0000000 magnetization       1.0000000

 Free energy of the ion-electron system (eV)
  ---------------------------------------------------
  alpha Z        PSCENC =       157.24145127
  Ewald energy   TEWEN  =     30444.92037145
  -Hartree energ DENC   =    -39607.24006143
  -exchange      EXHF   =         0.00000000
  -V(xc)+E(xc)   XCENC  =       982.92441483
  PAW double counting   =      9000.30529238    -9089.18527416
  entropy T*S    EENTRO =        -0.03795458
  eigenvalues    EBANDS =     -4641.54868879
  atomic energy  EATOM  =     12065.27733323
  Solvation  Ediel_sol  =         0.00000000
  ---------------------------------------------------
  free energy    TOTEN  =      -687.34311581 eV

  energy without entropy =     -687.30516123  energy(sigma->0) =     -687.32413852


--------------------------------------------------------------------------------------------------------




--------------------------------------- Iteration      1(   4)  ---------------------------------------


     EDDAV:  cpu time   12.8330: real time   13.0167
       DOS:  cpu time    0.0010: real time    0.0010
    --------------------------------------------
      LOOP:  cpu time   12.8339: real time   13.0177

 eigenvalue-minimisations  :  3552
 total energy-change (2. order) :-0.1666511E+02  (-0.1652375E+02)
 number of electron     293.0000000 magnetization       1.0000000
 augmentation part      293.0000000 magnetization       1.0000000

 Free energy of the ion-electron system (eV)
  ---------------------------------------------------
  alpha Z        PSCENC =       157.24145127
  Ewald energy   TEWEN  =     30444.92037145
  -Hartree energ DENC   =    -39607.24006143
  -exchange      EXHF   =         0.00000000
  -V(xc)+E(xc)   XCENC  =       982.92441483
  PAW double counting   =      9000.30529238    -9089.18527416
  entropy T*S    EENTRO =        -0.03811150
  eigenvalues    EBANDS =     -4658.21364163
  atomic energy  EATOM  =     12065.27733323
  Solvation  Ediel_sol  =         0.00000000
  ---------------------------------------------------
  free energy    TOTEN  =      -704.00822557 eV

  energy without entropy =     -703.97011407  energy(sigma->0) =     -703.98916982


--------------------------------------------------------------------------------------------------------




--------------------------------------- Iteration      1(   5)  ---------------------------------------


     EDDAV:  cpu time   14.3465: real time   14.5112
       DOS:  cpu time    0.0010: real time    0.0010
    CHARGE:  cpu time    0.4787: real time    0.4868
    MIXING:  cpu time    0.0074: real time    0.0089
    --------------------------------------------
      LOOP:  cpu time   14.8337: real time   15.0080

 eigenvalue-minimisations  :  4064
 total energy-change (2. order) :-0.5413598E+00  (-0.5395051E+00)
 number of electron     292.9999986 magnetization       0.7753959
 augmentation part       11.6633128 magnetization       0.7589844

 Broyden mixing:
  rms(total) = 0.46857E+01    rms(broyden)= 0.46852E+01
  rms(prec ) = 0.54433E+01
  weight for this iteration     100.00

 Free energy of the ion-electron system (eV)
  ---------------------------------------------------
  alpha Z        PSCENC =       157.24145127
  Ewald energy   TEWEN  =     30444.92037145
  -Hartree energ DENC   =    -39607.24006143
  -exchange      EXHF   =         0.00000000
  -V(xc)+E(xc)   XCENC  =       982.92441483
  PAW double counting   =      9000.30529238    -9089.18527416
  entropy T*S    EENTRO =        -0.03825912
  eigenvalues    EBANDS =     -4658.75485385
  atomic energy  EATOM  =     12065.27733323
  Solvation  Ediel_sol  =         0.00000000
  ---------------------------------------------------
  free energy    TOTEN  =      -704.54958541 eV

  energy without entropy =     -704.51132629  energy(sigma->0) =     -704.53045585


--------------------------------------------------------------------------------------------------------




--------------------------------------- Iteration      1(   6)  ---------------------------------------


    POTLOK:  cpu time    0.4064: real time    0.4150
    SETDIJ:  cpu time    0.0120: real time    0.0137
    EDDIAG:  cpu time    2.0608: real time    2.0872
  RMM-DIIS:  cpu time   11.6316: real time   11.7299
    ORTHCH:  cpu time    0.2360: real time    0.2373
       DOS:  cpu time    0.0009: real time    0.0009
    CHARGE:  cpu time    0.4564: real time    0.4665
    MIXING:  cpu time    0.0087: real time    0.0121
    --------------------------------------------
      LOOP:  cpu time   14.8128: real time   14.9626

 eigenvalue-minimisations  :  4100
 total energy-change (2. order) :-0.2672938E+02  (-0.5238023E+02)
 number of electron     292.9999987 magnetization       0.7163017
 augmentation part       17.3126366 magnetization       1.0250676

 Broyden mixing:
  rms(total) = 0.83896E+01    rms(broyden)= 0.83892E+01
  rms(prec ) = 0.92600E+01
  weight for this iteration     100.00

 eigenvalues of (default mixing * dielectric matrix)
  average eigenvalue GAMMA=   0.2158
  0.2158

 Free energy of the ion-electron system (eV)
  ---------------------------------------------------
  alpha Z        PSCENC =       157.24145127
  Ewald energy   TEWEN  =     30444.92037145
  -Hartree energ DENC   =    -39900.52459755
  -exchange      EXHF   =         0.00000000
  -V(xc)+E(xc)   XCENC  =       996.74075305
  PAW double counting   =     15331.65699729   -15420.29637187
  entropy T*S    EENTRO =        -0.05064988
  eigenvalues    EBANDS =     -4406.24425643
  atomic energy  EATOM  =     12065.27733323
  Solvation  Ediel_sol  =         0.00000000
  ---------------------------------------------------
  free energy    TOTEN  =      -731.27896945 eV

  energy without entropy =     -731.22831957  energy(sigma->0) =     -731.25364451


--------------------------------------------------------------------------------------------------------




--------------------------------------- Iteration      1(   7)  ---------------------------------------


    POTLOK:  cpu time    0.4170: real time    0.4212
    SETDIJ:  cpu time    0.0123: real time    0.0124
    EDDIAG:  cpu time    2.0462: real time    2.0664
  RMM-DIIS:  cpu time    8.7302: real time    8.7997
    ORTHCH:  cpu time    0.6665: real time    0.7353
       DOS:  cpu time    0.0009: real time    0.0009
    CHARGE:  cpu time    0.4506: real time    0.4586
    MIXING:  cpu time    0.0086: real time    0.0094
    --------------------------------------------
      LOOP:  cpu time   12.3322: real time   12.5039

 eigenvalue-minimisations  :  3054
 total energy-change (2. order) : 0.6864355E+02  (-0.5940624E+01)
 number of electron     292.9999985 magnetization       0.6168233
 augmentation part       15.2652464 magnetization       0.6331436

 Broyden mixing:
  rms(total) = 0.32239E+01    rms(broyden)= 0.32235E+01
  rms(prec ) = 0.38664E+01
  weight for this iteration     100.00

 eigenvalues of (default mixing * dielectric matrix)
  average eigenvalue GAMMA=   0.4648
  0.4926  0.4369

 Free energy of the ion-electron system (eV)
  ---------------------------------------------------
  alpha Z        PSCENC =       157.24145127
  Ewald energy   TEWEN  =     30444.92037145
  -Hartree energ DENC   =    -40022.24996489
  -exchange      EXHF   =         0.00000000
  -V(xc)+E(xc)   XCENC  =      1001.33661885
  PAW double counting   =     16958.62889440   -17054.04274866
  entropy T*S    EENTRO =        -0.00010425
  eigenvalues    EBANDS =     -4213.74727561
  atomic energy  EATOM  =     12065.27733323
  Solvation  Ediel_sol  =         0.00000000
  ---------------------------------------------------
  free energy    TOTEN  =      -662.63542421 eV

  energy without entropy =     -662.63531996  energy(sigma->0) =     -662.63537208


--------------------------------------------------------------------------------------------------------




--------------------------------------- Iteration      1(   8)  ---------------------------------------


    POTLOK:  cpu time    0.3936: real time    0.3980
    SETDIJ:  cpu time    0.0124: real time    0.0124
    EDDIAG:  cpu time    2.0225: real time    2.0378
  RMM-DIIS:  cpu time    8.8485: real time    8.9134
    ORTHCH:  cpu time    0.4541: real time    0.4784
       DOS:  cpu time    0.0011: real time    0.0011
    CHARGE:  cpu time    0.4559: real time    0.4629
    MIXING:  cpu time    0.0085: real time    0.0090
    --------------------------------------------
      LOOP:  cpu time   12.1965: real time   12.3130

 eigenvalue-minimisations  :  3111
 total energy-change (2. order) : 0.1884457E+00  (-0.2248924E+01)
 number of electron     292.9999985 magnetization       0.3432330
 augmentation part       11.2364611 magnetization       0.2993322

 Broyden mixing:
  rms(total) = 0.28401E+01    rms(broyden)= 0.28393E+01
  rms(prec ) = 0.34749E+01
  weight for this iteration     100.00

 eigenvalues of (default mixing * dielectric matrix)
  average eigenvalue GAMMA=   0.8553
  1.8865  0.3397  0.3397

 Free energy of the ion-electron system (eV)
  ---------------------------------------------------
  alpha Z        PSCENC =       157.24145127
  Ewald energy   TEWEN  =     30444.92037145
  -Hartree energ DENC   =    -40203.51040123
  -exchange      EXHF   =         0.00000000
  -V(xc)+E(xc)   XCENC  =      1008.05959436
  PAW double counting   =     19952.40103760   -20051.84291264
  entropy T*S    EENTRO =        -0.03197337
  eigenvalues    EBANDS =     -4034.96147922
  atomic energy  EATOM  =     12065.27733323
  Solvation  Ediel_sol  =         0.00000000
  ---------------------------------------------------
  free energy    TOTEN  =      -662.44697856 eV

  energy without entropy =     -662.41500519  energy(sigma->0) =     -662.43099187


--------------------------------------------------------------------------------------------------------




--------------------------------------- Iteration      1(   9)  ---------------------------------------


    POTLOK:  cpu time    0.3882: real time    0.3924
    SETDIJ:  cpu time    0.0124: real time    0.0124
    EDDIAG:  cpu time    2.1091: real time    2.1314
  RMM-DIIS:  cpu time    8.3766: real time    8.4342
    ORTHCH:  cpu time    0.1829: real time    0.1838
       DOS:  cpu time    0.0011: real time    0.0011
    CHARGE:  cpu time    0.4599: real time    0.4669
    MIXING:  cpu time    0.0075: real time    0.0075
    --------------------------------------------
      LOOP:  cpu time   11.5377: real time   11.6296

 eigenvalue-minimisations  :  2970
 total energy-change (2. order) : 0.1511343E+02  (-0.2035755E+01)
 number of electron     292.9999987 magnetization       0.2545961
 augmentation part       12.1808070 magnetization       0.2702127

 Broyden mixing:
  rms(total) = 0.11677E+01    rms(broyden)= 0.11671E+01
  rms(prec ) = 0.13168E+01
  weight for this iteration     100.00

 eigenvalues of (default mixing * dielectric matrix)
  average eigenvalue GAMMA=   0.9148
  2.2314  0.7251  0.3515  0.3515

 Free energy of the ion-electron system (eV)
  ---------------------------------------------------
  alpha Z        PSCENC =       157.24145127
  Ewald energy   TEWEN  =     30444.92037145
  -Hartree energ DENC   =    -40512.57436541
  -exchange      EXHF   =         0.00000000
  -V(xc)+E(xc)   XCENC  =      1021.01224566
  PAW double counting   =     28497.86341325   -28600.07345836
  entropy T*S    EENTRO =        -0.00370430
  eigenvalues    EBANDS =     -3720.99683486
  atomic energy  EATOM  =     12065.27733323
  Solvation  Ediel_sol  =         0.00000000
  ---------------------------------------------------
  free energy    TOTEN  =      -647.33354807 eV

  energy without entropy =     -647.32984377  energy(sigma->0) =     -647.33169592


--------------------------------------------------------------------------------------------------------




--------------------------------------- Iteration      1(  10)  ---------------------------------------


    POTLOK:  cpu time    0.4324: real time    0.4369
    SETDIJ:  cpu time    0.0117: real time    0.0117
    EDDIAG:  cpu time    2.0834: real time    2.1004
  RMM-DIIS:  cpu time    8.5808: real time    8.6422
    ORTHCH:  cpu time    0.3118: real time    0.3133
       DOS:  cpu time    0.0009: real time    0.0009
    CHARGE:  cpu time    0.4475: real time    0.4536
    MIXING:  cpu time    0.0084: real time    0.0085
    --------------------------------------------
      LOOP:  cpu time   11.8770: real time   11.9675

 eigenvalue-minimisations  :  2997
 total energy-change (2. order) :-0.4448845E+00  (-0.3121005E+00)
 number of electron     292.9999986 magnetization       0.1994984
 augmentation part       13.7830854 magnetization       0.2275980

 Broyden mixing:
  rms(total) = 0.14631E+01    rms(broyden)= 0.14612E+01
  rms(prec ) = 0.18197E+01
  weight for this iteration     100.00

 eigenvalues of (default mixing * dielectric matrix)
  average eigenvalue GAMMA=   0.9261
  2.3521  1.1017  0.3478  0.3478  0.4812

 Free energy of the ion-electron system (eV)
  ---------------------------------------------------
  alpha Z        PSCENC =       157.24145127
  Ewald energy   TEWEN  =     30444.92037145
  -Hartree energ DENC   =    -40555.31216772
  -exchange      EXHF   =         0.00000000
  -V(xc)+E(xc)   XCENC  =      1021.90691737
  PAW double counting   =     30031.82241490   -30132.86105232
  entropy T*S    EENTRO =        -0.00110852
  eigenvalues    EBANDS =     -3680.77259223
  atomic energy  EATOM  =     12065.27733323
  Solvation  Ediel_sol  =         0.00000000
  ---------------------------------------------------
  free energy    TOTEN  =      -647.77843258 eV

  energy without entropy =     -647.77732405  energy(sigma->0) =     -647.77787831


--------------------------------------------------------------------------------------------------------




--------------------------------------- Iteration      1(  11)  ---------------------------------------


    POTLOK:  cpu time    0.3994: real time    0.4029
    SETDIJ:  cpu time    0.0125: real time    0.0128
    EDDIAG:  cpu time    2.0478: real time    2.0663
  RMM-DIIS:  cpu time    8.7458: real time    8.8125
    ORTHCH:  cpu time    0.1536: real time    0.1545
       DOS:  cpu time    0.0010: real time    0.0010
    CHARGE:  cpu time    0.4987: real time    0.5077
    MIXING:  cpu time    0.0076: real time    0.0076
    --------------------------------------------
      LOOP:  cpu time   11.8664: real time   11.9652

 eigenvalue-minimisations  :  3107
 total energy-change (2. order) : 0.1082271E+01  (-0.4123580E-01)
 number of electron     292.9999987 magnetization       0.1362150
 augmentation part       12.5455387 magnetization       0.1156616

 Broyden mixing:
  rms(total) = 0.76824E+00    rms(broyden)= 0.76559E+00
  rms(prec ) = 0.81512E+00
  weight for this iteration     100.00

 eigenvalues of (default mixing * dielectric matrix)
  average eigenvalue GAMMA=   0.9666
  2.1109  2.0018  0.6306  0.3458  0.3458  0.3650

 Free energy of the ion-electron system (eV)
  ---------------------------------------------------
  alpha Z        PSCENC =       157.24145127
  Ewald energy   TEWEN  =     30444.92037145
  -Hartree energ DENC   =    -40588.38056459
  -exchange      EXHF   =         0.00000000
  -V(xc)+E(xc)   XCENC  =      1022.32784015
  PAW double counting   =     30704.88488562   -30805.23698991
  entropy T*S    EENTRO =        -0.03165909
  eigenvalues    EBANDS =     -3647.69882998
  atomic energy  EATOM  =     12065.27733323
  Solvation  Ediel_sol  =         0.00000000
  ---------------------------------------------------
  free energy    TOTEN  =      -646.69616185 eV

  energy without entropy =     -646.66450276  energy(sigma->0) =     -646.68033230


--------------------------------------------------------------------------------------------------------




--------------------------------------- Iteration      1(  12)  ---------------------------------------


    POTLOK:  cpu time    0.4227: real time    0.4269
    SETDIJ:  cpu time    0.0125: real time    0.0126
    EDDIAG:  cpu time    2.0292: real time    2.0437
  RMM-DIIS:  cpu time    8.2418: real time    8.2992
    ORTHCH:  cpu time    0.2312: real time    0.2320
       DOS:  cpu time    0.0012: real time    0.0012
    CHARGE:  cpu time    0.4875: real time    0.4946
    MIXING:  cpu time    0.0091: real time    0.0092
    --------------------------------------------
      LOOP:  cpu time   11.4351: real time   11.5192

 eigenvalue-minimisations  :  2944
 total energy-change (2. order) : 0.1034379E+00  (-0.1610338E-01)
 number of electron     292.9999986 magnetization       0.1588039
 augmentation part       12.9372286 magnetization      -0.1953084

 Broyden mixing:
  rms(total) = 0.66124E+00    rms(broyden)= 0.65998E+00
  rms(prec ) = 0.69070E+00
  weight for this iteration     100.00

 eigenvalues of (default mixing * dielectric matrix)
  average eigenvalue GAMMA=   0.8590
  2.1140  2.1140  0.5385  0.3475  0.3475  0.3771  0.1745

 Free energy of the ion-electron system (eV)
  ---------------------------------------------------
  alpha Z        PSCENC =       157.24145127
  Ewald energy   TEWEN  =     30444.92037145
  -Hartree energ DENC   =    -40612.96174670
  -exchange      EXHF   =         0.00000000
  -V(xc)+E(xc)   XCENC  =      1021.88368354
  PAW double counting   =     31122.16454935   -31221.04258723
  entropy T*S    EENTRO =        -0.05224918
  eigenvalues    EBANDS =     -3624.02352963
  atomic energy  EATOM  =     12065.27733323
  Solvation  Ediel_sol  =         0.00000000
  ---------------------------------------------------
  free energy    TOTEN  =      -646.59272391 eV

  energy without entropy =     -646.54047473  energy(sigma->0) =     -646.56659932


--------------------------------------------------------------------------------------------------------




--------------------------------------- Iteration      1(  13)  ---------------------------------------


    POTLOK:  cpu time    0.3837: real time    0.3873
    SETDIJ:  cpu time    0.0124: real time    0.0125
    EDDIAG:  cpu time    2.0430: real time    2.0579
  RMM-DIIS:  cpu time    8.4210: real time    8.4814
    ORTHCH:  cpu time    0.2537: real time    0.2545
       DOS:  cpu time    0.0010: real time    0.0010
    CHARGE:  cpu time    0.4884: real time    0.4949
    MIXING:  cpu time    0.0095: real time    0.0095
    --------------------------------------------
      LOOP:  cpu time   11.6127: real time   11.6991

 eigenvalue-minimisations  :  2971
 total energy-change (2. order) :-0.1085877E+00  (-0.3110002E-02)
 number of electron     292.9999986 magnetization       0.0467703
 augmentation part       12.9754596 magnetization      -0.4241603

 Broyden mixing:
  rms(total) = 0.72880E+00    rms(broyden)= 0.72857E+00
  rms(prec ) = 0.76328E+00
  weight for this iteration     100.00

 eigenvalues of (default mixing * dielectric matrix)
  average eigenvalue GAMMA=   0.8758
  2.1782  2.1782  0.6697  0.3465  0.3465  0.5488  0.3256  0.4128

 Free energy of the ion-electron system (eV)
  ---------------------------------------------------
  alpha Z        PSCENC =       157.24145127
  Ewald energy   TEWEN  =     30444.92037145
  -Hartree energ DENC   =    -40615.80515706
  -exchange      EXHF   =         0.00000000
  -V(xc)+E(xc)   XCENC  =      1021.91137791
  PAW double counting   =     31131.47142341   -31230.24413883
  entropy T*S    EENTRO =        -0.02873694
  eigenvalues    EBANDS =     -3621.44523606
  atomic energy  EATOM  =     12065.27733323
  Solvation  Ediel_sol  =         0.00000000
  ---------------------------------------------------
  free energy    TOTEN  =      -646.70131163 eV

  energy without entropy =     -646.67257468  energy(sigma->0) =     -646.68694315


--------------------------------------------------------------------------------------------------------




--------------------------------------- Iteration      1(  14)  ---------------------------------------


    POTLOK:  cpu time    0.4008: real time    0.4044
    SETDIJ:  cpu time    0.0122: real time    0.0122
    EDDIAG:  cpu time    2.0893: real time    2.1039
  RMM-DIIS:  cpu time    8.3982: real time    8.4583
    ORTHCH:  cpu time    0.2937: real time    0.2952
       DOS:  cpu time    0.0011: real time    0.0011
    CHARGE:  cpu time    0.4482: real time    0.4548
    MIXING:  cpu time    0.0093: real time    0.0093
    --------------------------------------------
      LOOP:  cpu time   11.6527: real time   11.7394

 eigenvalue-minimisations  :  2961
 total energy-change (2. order) : 0.2408489E+00  (-0.3800448E-02)
 number of electron     292.9999986 magnetization       0.0077113
 augmentation part       13.0393655 magnetization      -0.2970277

 Broyden mixing:
  rms(total) = 0.69160E+00    rms(broyden)= 0.69147E+00
  rms(prec ) = 0.74723E+00
  weight for this iteration     100.00

 eigenvalues of (default mixing * dielectric matrix)
  average eigenvalue GAMMA=   0.8325
  2.2114  2.2114  0.6908  0.5290  0.3462  0.3462  0.3299  0.4140  0.4140

 Free energy of the ion-electron system (eV)
  ---------------------------------------------------
  alpha Z        PSCENC =       157.24145127
  Ewald energy   TEWEN  =     30444.92037145
  -Hartree energ DENC   =    -40618.88650797
  -exchange      EXHF   =         0.00000000
  -V(xc)+E(xc)   XCENC  =      1021.94319359
  PAW double counting   =     31227.09477723   -31325.74453740
  entropy T*S    EENTRO =        -0.06261728
  eigenvalues    EBANDS =     -3618.24392683
  atomic energy  EATOM  =     12065.27733323
  Solvation  Ediel_sol  =         0.00000000
  ---------------------------------------------------
  free energy    TOTEN  =      -646.46046271 eV

  energy without entropy =     -646.39784543  energy(sigma->0) =     -646.42915407


--------------------------------------------------------------------------------------------------------




--------------------------------------- Iteration      1(  15)  ---------------------------------------


    POTLOK:  cpu time    0.3989: real time    0.4017
    SETDIJ:  cpu time    0.0117: real time    0.0120
    EDDIAG:  cpu time    2.0079: real time    2.0225
  RMM-DIIS:  cpu time    8.4584: real time    8.5223
    ORTHCH:  cpu time    0.1964: real time    0.1970
       DOS:  cpu time    0.0010: real time    0.0010
    CHARGE:  cpu time    0.4681: real time    0.4739
    MIXING:  cpu time    0.0095: real time    0.0095
    --------------------------------------------
      LOOP:  cpu time   11.5519: real time   11.6399

 eigenvalue-minimisations  :  3012
 total energy-change (2. order) :-0.2557541E-01  (-0.7736859E-03)
 number of electron     292.9999986 magnetization       0.0435709
 augmentation part       13.0316110 magnetization       0.0949426

 Broyden mixing:
  rms(total) = 0.54129E+00    rms(broyden)= 0.54010E+00
  rms(prec ) = 0.60683E+00
  weight for this iteration     100.00

 eigenvalues of (default mixing * dielectric matrix)
  average eigenvalue GAMMA=   0.8149
  2.2125  2.2125  0.4616  0.7210  0.7210  0.3461  0.3461  0.3937  0.3937  0.3406

 Free energy of the ion-electron system (eV)
  ---------------------------------------------------
  alpha Z        PSCENC =       157.24145127
  Ewald energy   TEWEN  =     30444.92037145
  -Hartree energ DENC   =    -40620.41837159
  -exchange      EXHF   =         0.00000000
  -V(xc)+E(xc)   XCENC  =      1021.96680306
  PAW double counting   =     31224.38525008   -31323.07059982
  entropy T*S    EENTRO =        -0.08075599
  eigenvalues    EBANDS =     -3616.70751982
  atomic energy  EATOM  =     12065.27733323
  Solvation  Ediel_sol  =         0.00000000
  ---------------------------------------------------
  free energy    TOTEN  =      -646.48603812 eV

  energy without entropy =     -646.40528213  energy(sigma->0) =     -646.44566013


--------------------------------------------------------------------------------------------------------




--------------------------------------- Iteration      1(  16)  ---------------------------------------


    POTLOK:  cpu time    0.3999: real time    0.4038
    SETDIJ:  cpu time    0.0111: real time    0.0130
    EDDIAG:  cpu time    2.0069: real time    2.0337
  RMM-DIIS:  cpu time    8.2837: real time    8.3436
    ORTHCH:  cpu time    0.2393: real time    0.2402
       DOS:  cpu time    0.0011: real time    0.0010
    CHARGE:  cpu time    0.4483: real time    0.4547
    MIXING:  cpu time    0.0097: real time    0.0102
    --------------------------------------------
      LOOP:  cpu time   11.3999: real time   11.5002

 eigenvalue-minimisations  :  2944
 total energy-change (2. order) :-0.4086682E-01  (-0.3159602E-02)
 number of electron     292.9999986 magnetization       0.0126945
 augmentation part       12.9522993 magnetization      -0.0577227

 Broyden mixing:
  rms(total) = 0.43682E+00    rms(broyden)= 0.43676E+00
  rms(prec ) = 0.48356E+00
  weight for this iteration     100.00

 eigenvalues of (default mixing * dielectric matrix)
  average eigenvalue GAMMA=   0.7813
  2.2069  2.2069  0.4769  0.7597  0.7597  0.3466  0.3466  0.4511  0.4511  0.3371
  0.2516

 Free energy of the ion-electron system (eV)
  ---------------------------------------------------
  alpha Z        PSCENC =       157.24145127
  Ewald energy   TEWEN  =     30444.92037145
  -Hartree energ DENC   =    -40638.54940350
  -exchange      EXHF   =         0.00000000
  -V(xc)+E(xc)   XCENC  =      1022.23029508
  PAW double counting   =     31193.81572804   -31292.51799435
  entropy T*S    EENTRO =        -0.07865141
  eigenvalues    EBANDS =     -3598.86603476
  atomic energy  EATOM  =     12065.27733323
  Solvation  Ediel_sol  =         0.00000000
  ---------------------------------------------------
  free energy    TOTEN  =      -646.52690495 eV

  energy without entropy =     -646.44825353  energy(sigma->0) =     -646.48757924


--------------------------------------------------------------------------------------------------------




--------------------------------------- Iteration      1(  17)  ---------------------------------------


    POTLOK:  cpu time    0.3873: real time    0.3922
    SETDIJ:  cpu time    0.0120: real time    0.0120
    EDDIAG:  cpu time    2.0693: real time    2.0885
  RMM-DIIS:  cpu time    8.4940: real time    8.5585
    ORTHCH:  cpu time    0.2016: real time    0.2022
       DOS:  cpu time    0.0021: real time    0.0027
    CHARGE:  cpu time    0.4655: real time    0.4730
    MIXING:  cpu time    0.0103: real time    0.0104
    --------------------------------------------
      LOOP:  cpu time   11.6421: real time   11.7395

 eigenvalue-minimisations  :  3030
 total energy-change (2. order) : 0.9193924E-02  (-0.4215818E-02)
 number of electron     292.9999987 magnetization       0.0114533
 augmentation part       12.6996067 magnetization      -0.1647707

 Broyden mixing:
  rms(total) = 0.34566E+00    rms(broyden)= 0.34518E+00
  rms(prec ) = 0.35697E+00
  weight for this iteration     100.00

 eigenvalues of (default mixing * dielectric matrix)
  average eigenvalue GAMMA=   0.7282
  2.2053  2.2053  0.4751  0.7765  0.7765  0.3465  0.3465  0.4331  0.4331  0.3230
  0.3230  0.0943

 Free energy of the ion-electron system (eV)
  ---------------------------------------------------
  alpha Z        PSCENC =       157.24145127
  Ewald energy   TEWEN  =     30444.92037145
  -Hartree energ DENC   =    -40664.84249102
  -exchange      EXHF   =         0.00000000
  -V(xc)+E(xc)   XCENC  =      1022.54808602
  PAW double counting   =     31122.98105494   -31221.61735998
  entropy T*S    EENTRO =        -0.05371877
  eigenvalues    EBANDS =     -3572.97243816
  atomic energy  EATOM  =     12065.27733323
  Solvation  Ediel_sol  =         0.00000000
  ---------------------------------------------------
  free energy    TOTEN  =      -646.51771102 eV

  energy without entropy =     -646.46399225  energy(sigma->0) =     -646.49085164


--------------------------------------------------------------------------------------------------------




--------------------------------------- Iteration      1(  18)  ---------------------------------------


    POTLOK:  cpu time    0.3853: real time    0.3894
    SETDIJ:  cpu time    0.0122: real time    0.0123
    EDDIAG:  cpu time    2.0199: real time    2.0330
  RMM-DIIS:  cpu time    8.5067: real time    8.5637
    ORTHCH:  cpu time    0.2219: real time    0.2225
       DOS:  cpu time    0.0010: real time    0.0010
    CHARGE:  cpu time    0.4667: real time    0.4739
    MIXING:  cpu time    0.0091: real time    0.0092
    --------------------------------------------
      LOOP:  cpu time   11.6229: real time   11.7050

 eigenvalue-minimisations  :  3007
 total energy-change (2. order) :-0.2521312E-01  (-0.1385927E-02)
 number of electron     292.9999986 magnetization       0.0154336
 augmentation part       12.8223470 magnetization      -0.2716459

 Broyden mixing:
  rms(total) = 0.41962E+00    rms(broyden)= 0.41934E+00
  rms(prec ) = 0.42872E+00
  weight for this iteration     100.00

 eigenvalues of (default mixing * dielectric matrix)
  average eigenvalue GAMMA=   0.8082
  2.2033  2.2033  0.9635  0.4975  0.7626  0.7626  0.6867  0.6867  0.3463  0.3463
  0.3535  0.3470  0.3470

 Free energy of the ion-electron system (eV)
  ---------------------------------------------------
  alpha Z        PSCENC =       157.24145127
  Ewald energy   TEWEN  =     30444.92037145
  -Hartree energ DENC   =    -40673.53164222
  -exchange      EXHF   =         0.00000000
  -V(xc)+E(xc)   XCENC  =      1022.60246943
  PAW double counting   =     31106.79997899   -31205.34511810
  entropy T*S    EENTRO =        -0.04180625
  eigenvalues    EBANDS =     -3564.46596194
  atomic energy  EATOM  =     12065.27733323
  Solvation  Ediel_sol  =         0.00000000
  ---------------------------------------------------
  free energy    TOTEN  =      -646.54292414 eV

  energy without entropy =     -646.50111789  energy(sigma->0) =     -646.52202101


--------------------------------------------------------------------------------------------------------




--------------------------------------- Iteration      1(  19)  ---------------------------------------


    POTLOK:  cpu time    0.4037: real time    0.4071
    SETDIJ:  cpu time    0.0117: real time    0.0118
    EDDIAG:  cpu time    2.0559: real time    2.0707
  RMM-DIIS:  cpu time    8.5454: real time    8.6033
    ORTHCH:  cpu time    0.1887: real time    0.1896
       DOS:  cpu time    0.0010: real time    0.0010
    CHARGE:  cpu time    0.4501: real time    0.4567
    MIXING:  cpu time    0.0102: real time    0.0102
    --------------------------------------------
      LOOP:  cpu time   11.6667: real time   11.7505

 eigenvalue-minimisations  :  3046
 total energy-change (2. order) :-0.2923974E-02  (-0.6692077E-03)
 number of electron     292.9999986 magnetization       0.0186470
 augmentation part       12.8124814 magnetization      -0.2734962

 Broyden mixing:
  rms(total) = 0.41753E+00    rms(broyden)= 0.41750E+00
  rms(prec ) = 0.42514E+00
  weight for this iteration     100.00

 eigenvalues of (default mixing * dielectric matrix)
  average eigenvalue GAMMA=   0.7494
  2.2019  2.2019  0.9039  0.4992  0.7691  0.7691  0.6793  0.6793  0.3463  0.3463
  0.3537  0.3472  0.3472  0.0466

 Free energy of the ion-electron system (eV)
  ---------------------------------------------------
  alpha Z        PSCENC =       157.24145127
  Ewald energy   TEWEN  =     30444.92037145
  -Hartree energ DENC   =    -40674.91584981
  -exchange      EXHF   =         0.00000000
  -V(xc)+E(xc)   XCENC  =      1022.61498787
  PAW double counting   =     31103.68292527   -31202.19954545
  entropy T*S    EENTRO =        -0.03772113
  eigenvalues    EBANDS =     -3563.12980082
  atomic energy  EATOM  =     12065.27733323
  Solvation  Ediel_sol  =         0.00000000
  ---------------------------------------------------
  free energy    TOTEN  =      -646.54584812 eV

  energy without entropy =     -646.50812699  energy(sigma->0) =     -646.52698755


--------------------------------------------------------------------------------------------------------




--------------------------------------- Iteration      1(  20)  ---------------------------------------


    POTLOK:  cpu time    0.4003: real time    0.4092
    SETDIJ:  cpu time    0.0123: real time    0.0125
    EDDIAG:  cpu time    2.0422: real time    2.0616
  RMM-DIIS:  cpu time    8.1012: real time    8.1563
    ORTHCH:  cpu time    0.1680: real time    0.1688
       DOS:  cpu time    0.0009: real time    0.0009
    CHARGE:  cpu time    0.4517: real time    0.4587
    MIXING:  cpu time    0.0100: real time    0.0100
    --------------------------------------------
      LOOP:  cpu time   11.1866: real time   11.2780

 eigenvalue-minimisations  :  2865
 total energy-change (2. order) :-0.2598200E-02  (-0.1670213E-03)
 number of electron     292.9999986 magnetization       0.0394420
 augmentation part       12.8186423 magnetization      -0.2575521

 Broyden mixing:
  rms(total) = 0.42238E+00    rms(broyden)= 0.42238E+00
  rms(prec ) = 0.43080E+00
  weight for this iteration     100.00

 eigenvalues of (default mixing * dielectric matrix)
  average eigenvalue GAMMA=   0.7712
  2.2063  2.2063  1.2508  0.4970  0.7600  0.7600  0.7518  0.7518  0.3463  0.3463
  0.3550  0.3550  0.3512  0.3311  0.2992

 Free energy of the ion-electron system (eV)
  ---------------------------------------------------
  alpha Z        PSCENC =       157.24145127
  Ewald energy   TEWEN  =     30444.92037145
  -Hartree energ DENC   =    -40675.09302863
  -exchange      EXHF   =         0.00000000
  -V(xc)+E(xc)   XCENC  =      1022.61838002
  PAW double counting   =     31102.75297022   -31201.26926768
  entropy T*S    EENTRO =        -0.03688387
  eigenvalues    EBANDS =     -3562.95977233
[...]
  Hartree 40004.99902 39977.49226-39213.23545     3.35638    -0.95697    -1.90020
  E(xc)   -1111.04392 -1110.71392 -1150.17221     0.00576    -0.00082    -0.00294
  Local  -83751.05836-83738.73399 86082.95348    -8.02423     2.13693     4.42154
  n-local  -289.29769  -286.51448  -269.93628    -0.07219    -0.00574     0.00508
  augment    66.58667    64.95503    65.45079    -0.01468     0.01180     0.01133
  Kinetic  4383.21449  4370.34253  4984.74623    -0.08095     0.06693     0.09582
  Fock        0.00000     0.00000     0.00000     0.00000     0.00000     0.00000
  vdW        -1.51675    -1.67140    -0.04129     0.00084     0.00028     0.00053
  -------------------------------------------------------------------------------------
  Total      -1.69359    -1.86866    -3.51999     0.05222     0.00170     0.00058
  in kB      -0.95445    -1.05311    -1.98374     0.02943     0.00096     0.00033
  external pressure =       -1.33 kB  Pullay stress =        0.00 kB


 VOLUME and BASIS-vectors are now :
 -----------------------------------------------------------------------------
  energy-cutoff  :      440.00
  volume of cell :     2842.94
      direct lattice vectors                 reciprocal lattice vectors
    14.857851351 -0.001371368  0.000000000     0.067308101  0.039196736  0.000000000
    -7.428925675 12.756850017  0.000000000     0.000007236  0.078393471  0.000000000
     0.000000000  0.000000000 15.000000000     0.000000000  0.000000000  0.066666667

  length of vectors
    14.857851414 14.762322278 15.000000000     0.077889438  0.078393471  0.066666667


 FORCES acting on ions
    electron-ion (+dipol)            ewald-force                    non-local-force                 convergence-correction
 -----------------------------------------------------------------------------------------------
   0.249E+02 -.131E+02 0.773E+01   -.304E+02 0.161E+02 -.776E+01   0.551E+01 -.304E+01 0.363E-01   -.792E-05 0.157E-04 -.321E-04
   0.504E+01 -.866E+01 0.770E+01   -.529E+01 0.101E+02 -.773E+01   0.239E+00 -.146E+01 0.296E-01   0.143E-04 -.953E-05 -.331E-04
   -.229E+02 -.128E+02 0.710E+01   0.283E+02 0.161E+02 -.710E+01   -.541E+01 -.324E+01 0.386E-02   0.604E-05 0.179E-04 -.108E-04
   -.876E+01 -.810E+01 0.739E+01   0.913E+01 0.958E+01 -.738E+01   -.374E+00 -.150E+01 -.773E-02   0.117E-04 0.301E-04 -.642E-04
   -.382E+01 0.817E+00 0.671E+01   0.440E+01 -.397E+00 -.674E+01   -.588E+00 -.418E+00 0.235E-01   0.985E-05 0.201E-04 -.112E-04
   -.170E+01 -.118E+01 0.700E+01   0.193E+01 0.143E+01 -.701E+01   -.228E+00 -.258E+00 0.546E-02   -.111E-04 0.210E-04 -.653E-04
   -.268E+01 0.458E+00 0.763E+01   0.285E+01 -.452E+00 -.766E+01   -.189E+00 0.816E-02 0.277E-01   0.194E-04 0.108E-04 -.300E-04
   0.104E+01 -.275E+00 0.781E+01   -.103E+01 0.331E+00 -.784E+01   0.788E-02 -.698E-01 0.256E-01   -.745E-05 -.164E-04 -.307E-04
   -.128E+01 -.296E+00 0.754E+01   0.123E+01 0.232E+00 -.755E+01   0.629E-01 0.700E-01 0.122E-01   -.307E-06 -.346E-04 -.596E-04
   0.111E+01 -.565E+00 0.738E+01   -.120E+01 0.459E+00 -.741E+01   0.800E-01 0.977E-01 0.262E-01   -.107E-04 -.242E-04 -.813E-05
   0.574E+01 -.149E+00 0.706E+01   -.639E+01 0.337E+00 -.707E+01   0.648E+00 -.181E+00 0.120E-01   -.159E-04 -.393E-04 -.620E-04
   0.398E+01 -.228E+01 0.660E+01   -.426E+01 0.231E+01 -.662E+01   0.275E+00 -.366E-01 0.159E-01   -.134E-05 -.144E-04 -.107E-04
   0.273E+01 0.263E+00 0.685E+01   -.331E+01 0.327E-01 -.687E+01   0.600E+00 -.292E+00 0.833E-02   -.166E-05 0.102E-04 -.201E-04
   0.334E+01 0.217E+01 0.647E+01   -.341E+01 -.199E+01 -.650E+01   0.558E-01 -.178E+00 0.213E-01   0.122E-04 0.146E-04 -.447E-04
   0.189E+01 -.365E+01 0.869E+01   -.183E+01 0.463E+01 -.871E+01   -.742E-01 -.101E+01 0.234E-01   0.208E-04 0.403E-04 -.826E-04
   -.160E+01 0.309E+01 0.102E+02   0.214E+01 -.234E+01 -.103E+02   -.544E+00 -.762E+00 0.648E-01   0.531E-04 0.113E-04 -.175E-03
   -.977E+00 0.304E+01 0.713E+01   0.154E+01 -.229E+01 -.715E+01   -.579E+00 -.772E+00 0.161E-01   0.218E-05 0.396E-04 -.121E-03
   -.162E+01 0.586E+01 0.574E+01   0.171E+01 -.497E+01 -.533E+01   -.899E-01 -.905E+00 -.424E+00   -.193E-05 0.120E-03 -.249E-03
   -.310E+01 0.425E+01 0.824E+01   0.320E+01 -.403E+01 -.826E+01   -.101E+00 -.250E+00 0.157E-01   -.181E-04 0.393E-04 -.824E-04
   0.999E+00 0.658E+01 0.981E+01   -.145E+01 -.628E+01 -.990E+01   0.467E+00 -.302E+00 0.824E-01   -.632E-04 0.197E-05 -.175E-03
   -.171E+01 0.404E+01 0.782E+01   0.172E+01 -.406E+01 -.783E+01   -.173E-01 0.210E-01 0.946E-02   -.372E-05 -.558E-05 -.167E-04
   -.138E+01 0.322E+01 0.801E+01   0.134E+01 -.327E+01 -.804E+01   0.497E-01 0.498E-01 0.329E-01   -.175E-04 0.154E-04 -.411E-04
   0.805E+00 0.186E+01 0.597E+01   -.981E+00 -.184E+01 -.596E+01   0.186E+00 -.334E-01 -.158E-01   0.420E-05 0.278E-06 0.768E-05
   0.938E+00 0.154E+01 0.598E+01   -.992E+00 -.151E+01 -.601E+01   0.435E-01 -.970E-02 0.208E-01   0.335E-05 -.341E-05 0.115E-04
   0.174E+01 0.200E+01 0.521E+01   -.177E+01 -.196E+01 -.520E+01   0.525E-01 -.405E-01 -.193E-01   0.182E-04 0.313E-04 -.136E-04
   0.422E+01 0.470E+01 0.555E+01   -.417E+01 -.469E+01 -.558E+01   -.673E-01 0.484E-03 0.281E-01   0.224E-04 -.983E-05 -.353E-04
   0.450E+01 0.777E+01 0.682E+01   -.437E+01 -.765E+01 -.679E+01   -.135E+00 -.124E+00 -.325E-01   0.180E-04 0.438E-04 -.134E-03
   0.117E+02 0.560E+01 0.569E+01   -.115E+02 -.538E+01 -.582E+01   -.227E+00 -.220E+00 0.120E+00   0.293E-04 0.692E-04 -.175E-03
   -.160E+01 0.159E+02 0.124E+02   0.195E+01 -.147E+02 -.126E+02   -.372E+00 -.116E+01 0.219E+00   0.106E-03 0.327E-04 -.287E-03
   -.780E+01 0.335E+02 0.256E+02   0.141E+02 -.298E+02 -.247E+02   -.633E+01 -.370E+01 -.891E+00   0.149E-03 0.139E-03 -.329E-03
   0.119E+01 0.169E+02 0.117E+02   -.136E+01 -.159E+02 -.119E+02   0.183E+00 -.104E+01 0.241E+00   -.104E-03 0.323E-04 -.287E-03
   0.749E+01 0.349E+02 0.242E+02   -.137E+02 -.313E+02 -.233E+02   0.624E+01 -.357E+01 -.889E+00   -.153E-03 0.142E-03 -.322E-03
   -.436E+01 0.101E+02 0.780E+01   0.417E+01 -.101E+02 -.777E+01   0.193E+00 0.601E-01 -.321E-01   -.873E-05 0.438E-04 -.132E-03
   -.114E+02 0.738E+01 0.705E+01   0.111E+02 -.733E+01 -.716E+01   0.282E+00 -.424E-01 0.109E+00   -.213E-04 0.586E-04 -.172E-03
   -.199E+01 0.294E+01 0.661E+01   0.190E+01 -.299E+01 -.659E+01   0.906E-01 0.556E-01 -.188E-01   -.152E-04 0.301E-04 -.111E-04
   -.373E+01 0.529E+01 0.753E+01   0.369E+01 -.536E+01 -.757E+01   0.445E-01 0.729E-01 0.417E-01   -.263E-04 -.160E-04 -.325E-04
   -.768E+00 0.957E+00 0.640E+01   0.786E+00 -.104E+01 -.642E+01   -.120E-01 0.982E-01 0.181E-01   0.121E-04 0.453E-06 -.179E-04
   0.185E-01 0.152E+01 0.636E+01   0.129E+00 -.171E+01 -.638E+01   -.147E+00 0.177E+00 0.120E-01   0.576E-05 -.926E-06 -.170E-04
   0.460E+01 0.229E+00 0.371E+01   -.455E+01 -.237E+00 -.368E+01   -.489E-01 0.118E-01 -.386E-01   0.741E-04 0.259E-04 -.103E-03
   0.432E+01 -.127E+00 0.386E+01   -.419E+01 0.678E-01 -.383E+01   -.145E+00 0.553E-01 -.367E-01   0.720E-04 -.198E-04 -.103E-03
   0.249E+02 0.796E+01 0.143E+02   -.240E+02 -.840E+01 -.148E+02   -.877E+00 0.415E+00 0.548E+00   0.594E-04 0.183E-03 -.278E-03
   0.249E+02 -.864E+01 0.142E+02   -.240E+02 0.913E+01 -.148E+02   -.874E+00 -.467E+00 0.556E+00   0.599E-04 -.175E-03 -.275E-03
   -.244E+02 0.865E+01 0.132E+02   0.235E+02 -.922E+01 -.137E+02   0.891E+00 0.558E+00 0.529E+00   -.755E-04 0.185E-03 -.275E-03
   -.250E+02 -.601E+01 0.135E+02   0.239E+02 0.630E+01 -.140E+02   0.106E+01 -.279E+00 0.502E+00   -.768E-04 -.186E-03 -.273E-03
   -.508E+01 0.135E+01 0.653E+01   0.501E+01 -.155E+01 -.649E+01   0.879E-01 0.207E+00 -.268E-01   -.710E-04 0.108E-04 -.990E-04
   -.510E+01 0.404E+01 0.663E+01   0.504E+01 -.437E+01 -.660E+01   0.694E-01 0.314E+00 -.264E-01   -.661E-04 -.108E-04 -.989E-04
   -.612E+01 -.154E+01 0.754E+01   0.611E+01 0.891E+00 -.758E+01   0.247E-01 0.656E+00 0.451E-01   -.271E-04 0.632E-05 -.316E-04
   -.625E+01 0.709E+01 0.672E+01   0.723E+01 -.804E+01 -.671E+01   -.993E+00 0.941E+00 -.894E-02   -.193E-04 -.258E-04 -.112E-04
   0.169E+01 -.312E+01 0.547E+01   -.155E+01 0.296E+01 -.550E+01   -.144E+00 0.159E+00 0.246E-01   0.312E-04 0.110E-04 -.340E-04
   -.183E+01 -.902E+00 0.521E+01   0.232E+01 0.675E+00 -.519E+01   -.480E+00 0.222E+00 -.254E-01   0.279E-04 -.320E-04 -.128E-04
   0.112E+02 -.631E+01 0.598E+01   -.109E+02 0.620E+01 -.610E+01   -.292E+00 0.113E+00 0.115E+00   0.314E-04 -.573E-04 -.173E-03
   0.376E+01 -.960E+01 0.687E+01   -.344E+01 0.963E+01 -.683E+01   -.336E+00 -.193E-01 -.374E-01   0.177E-04 -.486E-04 -.129E-03
   -.710E+01 -.344E+02 0.255E+02   0.133E+02 0.308E+02 -.246E+02   -.628E+01 0.363E+01 -.905E+00   0.142E-03 -.131E-03 -.317E-03
   -.308E+00 -.175E+02 0.124E+02   0.480E+00 0.165E+02 -.127E+02   -.183E+00 0.100E+01 0.242E+00   0.901E-04 -.238E-04 -.277E-03
   0.967E+01 -.334E+02 0.227E+02   -.161E+02 0.296E+02 -.217E+02   0.647E+01 0.383E+01 -.979E+00   -.161E-03 -.146E-03 -.321E-03
   0.489E+01 -.155E+02 0.117E+02   -.558E+01 0.142E+02 -.119E+02   0.711E+00 0.124E+01 0.198E+00   -.116E-03 -.200E-04 -.281E-03
   -.921E+01 -.356E+01 0.756E+01   0.892E+01 0.280E+01 -.769E+01   0.294E+00 0.777E+00 0.126E+00   -.225E-04 -.590E-04 -.170E-03
   -.239E+00 0.460E-01 0.755E+01   -.101E+01 -.982E+00 -.747E+01   0.126E+01 0.947E+00 -.752E-01   -.927E-05 -.474E-04 -.129E-03
   -.154E+01 0.237E+02 0.746E+01   0.150E+01 -.300E+02 -.744E+01   0.480E-01 0.622E+01 -.184E-01   -.125E-04 -.229E-04 -.406E-04
   -.202E+01 -.485E+01 0.947E+01   0.219E+01 0.512E+01 -.958E+01   -.179E+00 -.274E+00 0.114E+00   -.688E-05 -.831E-05 -.195E-04
   -.702E+01 0.203E+01 0.613E+01   0.775E+01 -.241E+01 -.615E+01   -.734E+00 0.378E+00 0.207E-01   0.162E-05 0.110E-04 0.106E-04
   -.105E+02 -.384E+01 0.606E+01   0.119E+02 0.348E+01 -.605E+01   -.139E+01 0.351E+00 -.145E-01   0.137E-05 -.548E-05 0.622E-05
   -.615E+00 -.217E+01 0.637E+01   0.859E+00 0.220E+01 -.639E+01   -.247E+00 -.374E-01 0.201E-01   0.188E-04 -.215E-04 -.416E-04
   -.159E+00 -.496E+01 0.682E+01   0.378E+00 0.498E+01 -.683E+01   -.204E+00 -.293E-01 0.395E-02   0.309E-05 -.282E-05 -.181E-04
   -.195E+01 -.657E+01 0.101E+02   0.244E+01 0.635E+01 -.102E+02   -.512E+00 0.235E+00 0.974E-01   0.673E-04 -.174E-04 -.166E-03
   0.219E+01 -.538E+01 0.860E+01   -.213E+01 0.524E+01 -.862E+01   -.742E-01 0.179E+00 0.182E-01   0.274E-04 -.337E-04 -.766E-04
   0.214E+01 -.618E+01 0.586E+01   -.232E+01 0.551E+01 -.547E+01   0.188E+00 0.690E+00 -.403E+00   0.550E-05 -.112E-03 -.243E-03
   0.191E+01 -.727E+01 0.731E+01   -.215E+01 0.686E+01 -.734E+01   0.235E+00 0.443E+00 0.242E-01   0.236E-05 -.504E-04 -.116E-03
   0.852E+01 -.357E+01 0.987E+01   -.975E+01 0.288E+01 -.996E+01   0.127E+01 0.706E+00 0.808E-01   -.742E-04 -.227E-05 -.170E-03
   0.861E+01 -.556E+01 0.842E+01   -.101E+02 0.500E+01 -.844E+01   0.146E+01 0.587E+00 0.107E-01   -.391E-04 -.436E-04 -.795E-04
   0.101E+01 0.496E+00 -.629E+03   -.957E+00 -.479E+00 0.611E+03   -.488E-01 -.173E-01 0.180E+02   0.265E-04 0.484E-05 -.103E-02
 -----------------------------------------------------------------------------------------------
   0.159E+00 0.143E+00 -.176E+02   -.810E-14 -.567E-12 -.114E-12   -.159E+00 -.145E+00 0.176E+02   0.959E-05 -.859E-05 -.875E-02
 
 
 POSITION                                       TOTAL-FORCE (eV/Angst)
 -----------------------------------------------------------------------------------
     -7.41552     12.74868      7.46509         0.011081      0.014543      0.001690
      0.01133      1.41208      7.46587        -0.002664     -0.023700      0.000191
      2.46859      0.01881      7.46396        -0.002914      0.007242      0.004067
      2.46971      1.43655      7.47426        -0.001084     -0.019231      0.006174
      4.94259      0.02613      7.46585        -0.008559      0.003694     -0.003720
      4.95048      1.44482      7.47572         0.004622     -0.010554     -0.000694
     -0.00053     12.75386      7.46598        -0.011622      0.015603      0.000721
      7.42991      1.41942      7.46490         0.012052     -0.015982     -0.001110
      2.48216     12.72741      7.47386         0.009710      0.005603      0.002400
      9.91101      1.39153      7.46305        -0.008995     -0.010238     -0.000454
      4.96317     12.72875      7.47533        -0.001138      0.005389     -0.002037
     12.38438      1.39065      7.46596        -0.001665     -0.009840     -0.005251
     13.61821      2.10159      7.46716         0.016035      0.004781     -0.003878
     -1.24475      3.52603      7.47726        -0.011639      0.009361     -0.000933
      1.23838      2.14702      7.47570        -0.011293     -0.038473      0.001185
      1.23709      3.56621      7.50083        -0.011058     -0.016010     -0.003293
      3.71333      2.16305      7.49138        -0.010128     -0.023928     -0.002358
      3.71391      3.58479      7.53785         0.000517     -0.007889     -0.012697
      6.19236      2.14361      7.47638        -0.002245     -0.033588     -0.002805
      6.19483      3.56721      7.50054         0.015092     -0.004454     -0.005657
      8.67524      2.11026      7.46281        -0.008467     -0.000956      0.001034
      8.67984      3.52952      7.47040         0.005498     -0.002483      0.004318
     11.14636      2.10201      7.46424         0.010542     -0.008439     -0.003346
     11.14620      3.52307      7.46637        -0.010012      0.016485     -0.007283
     12.37781      4.23480      7.47471         0.022184     -0.001662     -0.005076
     -2.48738      5.66240      7.48161        -0.015409      0.004552     -0.003570
     -0.01621      4.24523      7.50035        -0.009558     -0.010944      0.000116
     -0.04046      5.66143      7.52608        -0.009569     -0.000117     -0.009229
      2.47383      4.30875      7.55069        -0.007628      0.002643      0.020508
      2.42828      5.72100      7.64151        -0.019892     -0.029264      0.022731
      4.95820      4.30803      7.55204        -0.000269      0.008172      0.010398
      5.00610      5.72271      7.64461         0.012351     -0.011460     -0.000509
      7.44699      4.24638      7.49502        -0.003080     -0.005563      0.002598
      7.47200      5.66302      7.51936         0.002527     -0.003352     -0.003884
      9.91325      4.23728      7.46865        -0.001035      0.005794     -0.000602
      9.91835      5.66228      7.47367         0.003964     -0.000358      0.002518
     -3.71451      6.37924      7.47388         0.006624      0.011837     -0.005438
     -3.71602      7.80320      7.47396         0.000978     -0.008807     -0.004964
     -1.26851      6.37588      7.50528        -0.005946      0.002253     -0.002858
     -1.26894      7.79867      7.50493        -0.025553     -0.001920     -0.002799
      1.17968      6.36845      7.57758         0.012646     -0.032130      0.010031
      1.17911      7.80405      7.57763         0.010741      0.026948      0.007892
      6.25356      6.37100      7.57827        -0.014596     -0.022222      0.001661
      6.25613      7.80974      7.57776        -0.012870      0.020392      0.008240
      8.69884      6.37667      7.49378         0.015406      0.011326      0.005307
      8.69915      7.80095      7.49339         0.017192     -0.010632      0.002536
     -4.94498      8.52029      7.47360         0.018965      0.004761      0.001842
     -4.94873      9.94964      7.46846        -0.020238      0.000843     -0.000298
     -2.48909      8.51249      7.48167        -0.005188     -0.005115     -0.003666
     -2.48329      9.93797      7.47467         0.009539     -0.003329     -0.005544
     -0.04030      8.51181      7.52547        -0.005996      0.000742     -0.006291
     -0.01501      9.92863      7.50025        -0.010027      0.016646      0.000119
      2.42839      8.45083      7.64208        -0.012959      0.017023      0.014176
      2.47532      9.86418      7.55055         0.002192     -0.008365      0.017086
      5.00930      8.45085      7.64742         0.013881      0.024524      0.023447
      4.96280      9.86572      7.55204         0.009926     -0.015271      0.018018
      7.47785      8.51819      7.51785         0.001799      0.010774     -0.005442
      7.45012      9.93924      7.49508         0.013551      0.023115      0.002063
     -6.17841     10.65802      7.47139         0.006957     -0.005096      0.007505
     -6.18299     12.06327      7.46362        -0.009295     -0.000844      0.004967
     -3.71087     10.64903      7.46610        -0.003819     -0.000907     -0.004996
     -3.72471     12.06760      7.46421        -0.007574      0.002353     -0.003458
     -1.24808     10.64600      7.47742        -0.002824      0.001171      0.000647
     -1.24809     12.06344      7.46729         0.016516     -0.010024     -0.003860
      1.23720     10.60657      7.50098        -0.016784      0.011211     -0.003447
      1.23943     12.02922      7.47581        -0.008020      0.033735     -0.000788
      3.71811     10.58519      7.53753         0.001474      0.009062     -0.012850
      3.72267     12.00276      7.49099        -0.004431      0.031052     -0.006378
      6.19395     10.60389      7.50038         0.029477      0.017527     -0.008194
      6.20726     12.02705      7.47581         0.019402      0.031734     -0.005856
      3.71588      7.08656      8.32373         0.002603      0.000259     -0.040671
 -----------------------------------------------------------------------------------
    total drift:                               -0.000109     -0.002659      0.001325


--------------------------------------------------------------------------------------------------------



  FREE ENERGIE OF THE ION-ELECTRON SYSTEM (eV)
  ---------------------------------------------------
  free  energy   TOTEN  =      -653.53517554 eV

  energy  without entropy=     -653.50900323  energy(sigma->0) =     -653.52208939
 
 d Force = 0.9450806E-03[ 0.383E-03, 0.151E-02]  d Energy = 0.9822357E-03-0.372E-04
 d Force =-0.1177918E+01[-0.118E+01,-0.118E+01]  d Ewald  =-0.1177918E+01-0.975E-07


--------------------------------------------------------------------------------------------------------


    POTLOK:  cpu time    0.4066: real time    0.4087


--------------------------------------------------------------------------------------------------------


 stress matrix after NEB project (eV)
     -1.69359      0.05222      0.00058
      0.05222     -1.86866      0.00170
      0.00058      0.00170     -3.51999
  FORCES: max atom, RMS     0.042057    0.020970
  FORCE total and by dimension    0.176694    0.040671
  Stress total and by dimension    4.330812    3.519992


--------------------------------------------------------------------------------------------------------


  
 reached required accuracy - stopping structural energy minimisation
     LOOP+:  cpu time  114.1048: real time  114.9213
    4ORBIT:  cpu time    0.0000: real time    0.0000

 total amount of memory used by VASP MPI-rank0   111625. kBytes
=======================================================================

   base      :      30000. kBytes
   nonlr-proj:       9916. kBytes
   fftplans  :      10852. kBytes
   grid      :      30996. kBytes
   one-center:        186. kBytes
   wavefun   :      29675. kBytes
 
  
  
 General timing and accounting informations for this job:
 ========================================================
  
                  Total CPU time used (sec):     1373.559
                            User time (sec):     1363.664
                          System time (sec):        9.895
                         Elapsed time (sec):     1389.778
  
                   Maximum memory used (kb):      486524.
                   Average memory used (kb):           0.
  
                          Minor page faults:      1797124
                          Major page faults:            0
                 Voluntary context switches:        11859
