 running on   48 total cores
 distrk:  each k-point on   48 cores,    1 groups
 distr:  one band on   12 cores,    4 groups
 using from now: INCAR     
 vasp.5.4.4.18Apr17-6-g9f103f2a35 (build Jan 14 2022 15:04:31) complex          
  
 POSCAR found type information on POSCAR  C  N  C  Cr
 POSCAR found :  4 types and      71 ions
 scaLAPACK will be used
 LDA part: xc-table for Pade appr. of Perdew
 POSCAR found type information on POSCAR  C  N  C  Cr
 POSCAR found :  4 types and      71 ions


 VERY BAD NEWS! internal error in subroutine IBZKPT:
 Reciprocal lattice and k-lattice belong to different class of lattices. Often results are still useful...      96


 VERY BAD NEWS! internal error in subroutine IBZKPT:
 Reciprocal lattice and k-lattice belong to different class of lattices. Often results are still useful...      96


 VERY BAD NEWS! internal error in subroutine IBZKPT:
 Reciprocal lattice and k-lattice belong to different class of lattices. Often results are still useful...      96


 VERY BAD NEWS! internal error in subroutine IBZKPT:
 Reciprocal lattice and k-lattice belong to different class of lattices. Often results are still useful...      96


 VERY BAD NEWS! internal error in subroutine IBZKPT:
 Reciprocal lattice and k-lattice belong to different class of lattices. Often results are still useful...      96


 VERY BAD NEWS! internal error in subroutine IBZKPT:
 Reciprocal lattice and k-lattice belong to different class of lattices. Often results are still useful...      96


 VERY BAD NEWS! internal error in subroutine IBZKPT:
 Reciprocal lattice and k-lattice belong to different class of lattices. Often results are still useful...      96


 VERY BAD NEWS! internal error in subroutine IBZKPT:
 Reciprocal lattice and k-lattice belong to different class of lattices. Often results are still useful...      96


 VERY BAD NEWS! internal error in subroutine IBZKPT:
 Reciprocal lattice and k-lattice belong to different class of lattices. Often results are still useful...      96


 VERY BAD NEWS! internal error in subroutine IBZKPT:
 Reciprocal lattice and k-lattice belong to different class of lattices. Often results are still useful...      96


 VERY BAD NEWS! internal error in subroutine IBZKPT:
 Reciprocal lattice and k-lattice belong to different class of lattices. Often results are still useful...      96


 VERY BAD NEWS! internal error in subroutine IBZKPT:
 Reciprocal lattice and k-lattice belong to different class of lattices. Often results are still useful...      96


 VERY BAD NEWS! internal error in subroutine IBZKPT:
 Reciprocal lattice and k-lattice belong to different class of lattices. Often results are still useful...      96


 VERY BAD NEWS! internal error in subroutine IBZKPT:
 Reciprocal lattice and k-lattice belong to different class of lattices. Often results are still useful...      96


 VERY BAD NEWS! internal error in subroutine IBZKPT:
 Reciprocal lattice and k-lattice belong to different class of lattices. Often results are still useful...      96


 VERY BAD NEWS! internal error in subroutine IBZKPT:
 Reciprocal lattice and k-lattice belong to different class of lattices. Often results are still useful...      96


 VERY BAD NEWS! internal error in subroutine IBZKPT:
 Reciprocal lattice and k-lattice belong to different class of lattices. Often results are still useful...      96


 VERY BAD NEWS! internal error in subroutine IBZKPT:
 Reciprocal lattice and k-lattice belong to different class of lattices. Often results are still useful...      96


 VERY BAD NEWS! internal error in subroutine IBZKPT:
 Reciprocal lattice and k-lattice belong to different class of lattices. Often results are still useful...      96


 VERY BAD NEWS! internal error in subroutine IBZKPT:
 Reciprocal lattice and k-lattice belong to different class of lattices. Often results are still useful...      96


 VERY BAD NEWS! internal error in subroutine IBZKPT:
 Reciprocal lattice and k-lattice belong to different class of lattices. Often results are still useful...      96


 VERY BAD NEWS! internal error in subroutine IBZKPT:
 Reciprocal lattice and k-lattice belong to different class of lattices. Often results are still useful...      96


 VERY BAD NEWS! internal error in subroutine IBZKPT:
 Reciprocal lattice and k-lattice belong to different class of lattices. Often results are still useful...      96


 VERY BAD NEWS! internal error in subroutine IBZKPT:
 Reciprocal lattice and k-lattice belong to different class of lattices. Often results are still useful...      96


 VERY BAD NEWS! internal error in subroutine IBZKPT:
 Reciprocal lattice and k-lattice belong to different class of lattices. Often results are still useful...      96


 VERY BAD NEWS! internal error in subroutine IBZKPT:
 Reciprocal lattice and k-lattice belong to different class of lattices. Often results are still useful...      96


 VERY BAD NEWS! internal error in subroutine IBZKPT:
 Reciprocal lattice and k-lattice belong to different class of lattices. Often results are still useful...      96


 VERY BAD NEWS! internal error in subroutine IBZKPT:
 Reciprocal lattice and k-lattice belong to different class of lattices. Often results are still useful...      96


 VERY BAD NEWS! internal error in subroutine IBZKPT:
 Reciprocal lattice and k-lattice belong to different class of lattices. Often results are still useful...      96


 VERY BAD NEWS! internal error in subroutine IBZKPT:
 Reciprocal lattice and k-lattice belong to different class of lattices. Often results are still useful...      96


 VERY BAD NEWS! internal error in subroutine IBZKPT:
 Reciprocal lattice and k-lattice belong to different class of lattices. Often results are still useful...      96


 VERY BAD NEWS! internal error in subroutine IBZKPT:
 Reciprocal lattice and k-lattice belong to different class of lattices. Often results are still useful...      96


 VERY BAD NEWS! internal error in subroutine IBZKPT:
 Reciprocal lattice and k-lattice belong to different class of lattices. Often results are still useful...      96


 VERY BAD NEWS! internal error in subroutine IBZKPT:
 Reciprocal lattice and k-lattice belong to different class of lattices. Often results are still useful...      96


 VERY BAD NEWS! internal error in subroutine IBZKPT:
 Reciprocal lattice and k-lattice belong to different class of lattices. Often results are still useful...      96


 VERY BAD NEWS! internal error in subroutine IBZKPT:
 Reciprocal lattice and k-lattice belong to different class of lattices. Often results are still useful...      96


 VERY BAD NEWS! internal error in subroutine IBZKPT:
 Reciprocal lattice and k-lattice belong to different class of lattices. Often results are still useful...      96


 VERY BAD NEWS! internal error in subroutine IBZKPT:
 Reciprocal lattice and k-lattice belong to different class of lattices. Often results are still useful...      96


 VERY BAD NEWS! internal error in subroutine IBZKPT:
 Reciprocal lattice and k-lattice belong to different class of lattices. Often results are still useful...      96


 VERY BAD NEWS! internal error in subroutine IBZKPT:
 Reciprocal lattice and k-lattice belong to different class of lattices. Often results are still useful...      96


 VERY BAD NEWS! internal error in subroutine IBZKPT:
 Reciprocal lattice and k-lattice belong to different class of lattices. Often results are still useful...      96


 VERY BAD NEWS! internal error in subroutine IBZKPT:
 Reciprocal lattice and k-lattice belong to different class of lattices. Often results are still useful...      96


 VERY BAD NEWS! internal error in subroutine IBZKPT:
 Reciprocal lattice and k-lattice belong to different class of lattices. Often results are still useful...      96


 VERY BAD NEWS! internal error in subroutine IBZKPT:
 Reciprocal lattice and k-lattice belong to different class of lattices. Often results are still useful...      96


 VERY BAD NEWS! internal error in subroutine IBZKPT:
 Reciprocal lattice and k-lattice belong to different class of lattices. Often results are still useful...      96


 VERY BAD NEWS! internal error in subroutine IBZKPT:
 Reciprocal lattice and k-lattice belong to different class of lattices. Often results are still useful...      96


 VERY BAD NEWS! internal error in subroutine IBZKPT:
 Reciprocal lattice and k-lattice belong to different class of lattices. Often results are still useful...      96


 VERY BAD NEWS! internal error in subroutine IBZKPT:
 Reciprocal lattice and k-lattice belong to different class of lattices. Often results are still useful...      96
 POSCAR, INCAR and KPOINTS ok, starting setup
 FFT: planning ...
 WAVECAR not read
 entering main loop
       N       E                     dE             d eps       ncg     rms          rms(c)
DAV:   1     0.250745284825E+04    0.25075E+04   -0.10742E+05  3328   0.107E+03
DAV:   2    -0.221172369243E+03   -0.27286E+04   -0.26071E+04  4224   0.281E+02
DAV:   3    -0.686857688739E+03   -0.46569E+03   -0.46285E+03  3568   0.123E+02
DAV:   4    -0.703973773050E+03   -0.17116E+02   -0.16969E+02  3544   0.288E+01
DAV:   5    -0.704530251764E+03   -0.55648E+00   -0.55459E+00  4048   0.439E+00    0.468E+01
RMM:   6    -0.730243773868E+03   -0.25714E+02   -0.51901E+02  4138   0.394E+01    0.830E+01
RMM:   7    -0.662850340006E+03    0.67393E+02   -0.65498E+01  3038   0.140E+01    0.324E+01
RMM:   8    -0.662633650511E+03    0.21669E+00   -0.24692E+01  3111   0.721E+00    0.285E+01
RMM:   9    -0.647410097360E+03    0.15224E+02   -0.20105E+01  2972   0.842E+00    0.120E+01
RMM:  10    -0.647815717102E+03   -0.40562E+00   -0.34446E+00  2988   0.324E+00    0.146E+01
RMM:  11    -0.646723184194E+03    0.10925E+01   -0.43003E-01  3133   0.109E+00    0.772E+00
RMM:  12    -0.646654946632E+03    0.68238E-01   -0.17578E-01  2944   0.983E-01    0.709E+00
RMM:  13    -0.646734418253E+03   -0.79472E-01   -0.32212E-02  2987   0.399E-01    0.729E+00
RMM:  14    -0.646497239077E+03    0.23718E+00   -0.31865E-02  2969   0.411E-01    0.729E+00
RMM:  15    -0.646595676120E+03   -0.98437E-01   -0.11446E-02  2993   0.199E-01    0.761E+00
RMM:  16    -0.646502659577E+03    0.93017E-01   -0.43557E-02  2966   0.326E-01    0.601E+00
RMM:  17    -0.646249297717E+03    0.25336E+00   -0.54911E-01  2948   0.114E+00    0.517E+00
RMM:  18    -0.645281665033E+03    0.96763E+00   -0.62929E-01  3032   0.106E+00    0.604E+00
RMM:  19    -0.645714301460E+03   -0.43264E+00   -0.70803E-02  3087   0.413E-01    0.570E+00
RMM:  20    -0.645721751332E+03   -0.74499E-02   -0.13876E-02  3390   0.176E-01    0.585E+00
RMM:  21    -0.645542882825E+03    0.17887E+00   -0.29802E-02  2966   0.220E-01    0.651E+00
RMM:  22    -0.646313452814E+03   -0.77057E+00   -0.22788E-01  2946   0.649E-01    0.752E+00
RMM:  23    -0.646675560752E+03   -0.36211E+00   -0.51127E-01  2963   0.783E-01    0.741E+00
RMM:  24    -0.646432548830E+03    0.24301E+00   -0.87530E-02  2944   0.515E-01    0.665E+00
RMM:  25    -0.646433196681E+03   -0.64785E-03   -0.62736E-02  2994   0.353E-01    0.445E+00
RMM:  26    -0.646403304530E+03    0.29892E-01   -0.10495E-01  2970   0.963E-01    0.196E+00
RMM:  27    -0.646584446788E+03   -0.18114E+00   -0.16066E-01  2957   0.411E-01    0.484E+00
RMM:  28    -0.646560356417E+03    0.24090E-01   -0.35043E-02  2983   0.531E-01    0.590E+00
RMM:  29    -0.646430768373E+03    0.12959E+00   -0.33928E-02  2967   0.350E-01    0.118E+00
RMM:  30    -0.646558365239E+03   -0.12760E+00   -0.21150E-02  3024   0.387E-01    0.334E+00
RMM:  31    -0.646545820664E+03    0.12545E-01   -0.10120E-02  2966   0.339E-01    0.340E+00
RMM:  32    -0.646521482979E+03    0.24338E-01   -0.15756E-02  2964   0.239E-01    0.124E+00
RMM:  33    -0.646620106276E+03   -0.98623E-01   -0.17167E-02  2951   0.323E-01    0.406E+00
RMM:  34    -0.646591220350E+03    0.28886E-01   -0.87466E-03  3001   0.325E-01    0.465E+00
RMM:  35    -0.646635226648E+03   -0.44006E-01   -0.81867E-03  2982   0.122E-01    0.536E+00
RMM:  36    -0.646594644519E+03    0.40582E-01   -0.24624E-03  2992   0.108E-01    0.529E+00
RMM:  37    -0.646622368810E+03   -0.27724E-01   -0.28397E-03  2977   0.802E-02    0.547E+00
RMM:  38    -0.646633686712E+03   -0.11318E-01   -0.37671E-03  2950   0.889E-02    0.579E+00
RMM:  39    -0.646645928383E+03   -0.12242E-01   -0.24108E-03  2980   0.651E-02    0.597E+00
RMM:  40    -0.646602310150E+03    0.43618E-01   -0.10087E-03  2872   0.602E-02    0.594E+00
RMM:  41    -0.646497358958E+03    0.10495E+00   -0.10864E-02  2972   0.151E-01    0.463E+00
RMM:  42    -0.646507605213E+03   -0.10246E-01   -0.12726E-02  3026   0.158E-01    0.227E+00
RMM:  43    -0.646568765414E+03   -0.61160E-01   -0.12783E-02  2966   0.240E-01    0.123E+00
RMM:  44    -0.646599173552E+03   -0.30408E-01   -0.89940E-03  3000   0.232E-01    0.126E+00
RMM:  45    -0.646599859938E+03   -0.68639E-03   -0.14884E-03  2897   0.513E-02    0.154E+00
RMM:  46    -0.646642157649E+03   -0.42298E-01   -0.13764E-02  2956   0.188E-01    0.243E+00
RMM:  47    -0.646649269191E+03   -0.71115E-02   -0.11889E-02  2996   0.186E-01    0.263E+00
RMM:  48    -0.646648172996E+03    0.10962E-02   -0.66411E-03  3020   0.102E-01    0.262E+00
RMM:  49    -0.646655370376E+03   -0.71974E-02   -0.99962E-04  2932   0.545E-02    0.266E+00
RMM:  50    -0.646634598799E+03    0.20772E-01   -0.27147E-03  2960   0.912E-02
   1 F= -.65303437E+03 E0= -.65301394E+03  d E =-.653034E+03  mag=    -0.1194
 curvature:   0.00 expect dE= 0.000E+00 dE for cont linesearch  0.000E+00
 trial: gam= 0.00000 g(F)=  0.272E-01 g(S)=  0.000E+00 ort = 0.000E+00 (trialstep = 0.100E+01)
 search vector abs. value=  0.272E-01
 bond charge predicted
       N       E                     dE             d eps       ncg     rms          rms(c)
DAV:   1    -0.646636011895E+03    0.19358E-01   -0.21040E+00  3280   0.373E+00    0.247E+00
RMM:   2    -0.646797011774E+03   -0.16100E+00   -0.26693E-01  2982   0.998E-01    0.436E+00
RMM:   3    -0.646814612518E+03   -0.17601E-01   -0.22201E-01  3119   0.685E-01    0.508E+00
RMM:   4    -0.646790688099E+03    0.23924E-01   -0.23111E-02  3230   0.251E-01    0.457E+00
RMM:   5    -0.646735417629E+03    0.55270E-01   -0.95443E-03  2972   0.191E-01    0.456E+00
RMM:   6    -0.646786393245E+03   -0.50976E-01   -0.51261E-02  2988   0.333E-01    0.424E+00
RMM:   7    -0.646722742220E+03    0.63651E-01   -0.25032E-02  2979   0.258E-01    0.409E+00
RMM:   8    -0.646684552206E+03    0.38190E-01   -0.27034E-02  2980   0.220E-01    0.352E+00
RMM:   9    -0.646725852071E+03   -0.41300E-01   -0.34027E-03  2967   0.109E-01    0.349E+00
RMM:  10    -0.646821217078E+03   -0.95365E-01   -0.20309E-01  2990   0.647E-01    0.307E+00
RMM:  11    -0.644129126141E+03    0.26921E+01   -0.28281E+00  2968   0.266E+00    0.765E+00
RMM:  12    -0.646855292339E+03   -0.27262E+01   -0.17485E+00  2969   0.180E+00    0.195E+00
RMM:  13    -0.646867403803E+03   -0.12111E-01   -0.81035E-02  3227   0.391E-01    0.182E+00
RMM:  14    -0.646902376589E+03   -0.34973E-01   -0.14815E-02  3106   0.155E-01    0.195E+00
RMM:  15    -0.646908966009E+03   -0.65894E-02   -0.64198E-03  3071   0.101E-01    0.207E+00
RMM:  16    -0.646626409392E+03    0.28256E+00   -0.42958E-01  2980   0.949E-01    0.310E+00
RMM:  17    -0.646717500618E+03   -0.91091E-01   -0.70596E-02  3515   0.303E-01    0.259E+00
RMM:  18    -0.646762800156E+03   -0.45300E-01   -0.73383E-03  3050   0.139E-01    0.271E+00
RMM:  19    -0.646923899528E+03   -0.16110E+00   -0.90480E-02  2974   0.433E-01    0.252E+00
RMM:  20    -0.647003266410E+03   -0.79367E-01   -0.35140E-02  3074   0.243E-01    0.218E+00
RMM:  21    -0.647093279407E+03   -0.90013E-01   -0.64142E-02  3013   0.359E-01    0.113E+00
RMM:  22    -0.647105210212E+03   -0.11931E-01   -0.16544E-02  3372   0.144E-01    0.996E-01
RMM:  23    -0.647102772768E+03    0.24374E-02   -0.17384E-03  3044   0.482E-02    0.107E+00
RMM:  24    -0.647120501984E+03   -0.17729E-01   -0.35337E-03  3005   0.846E-02    0.802E-01
RMM:  25    -0.647130958597E+03   -0.10457E-01   -0.53235E-03  3033   0.974E-02    0.610E-01
RMM:  26    -0.647127797313E+03    0.31613E-02   -0.74043E-03  3040   0.118E-01    0.685E-01
RMM:  27    -0.647130363323E+03   -0.25660E-02   -0.14686E-03  2971   0.430E-02    0.700E-01
RMM:  28    -0.647134027902E+03   -0.36646E-02   -0.12766E-03  2866   0.550E-02    0.588E-01
RMM:  29    -0.647138292789E+03   -0.42649E-02   -0.47895E-03  2982   0.105E-01    0.512E-01
RMM:  30    -0.647140713129E+03   -0.24203E-02   -0.68183E-04  2932   0.357E-02    0.429E-01
RMM:  31    -0.647141646181E+03   -0.93305E-03   -0.17113E-04  2384   0.204E-02    0.376E-01
RMM:  32    -0.647142642285E+03   -0.99610E-03   -0.41451E-04  2780   0.329E-02    0.302E-01
RMM:  33    -0.647143642910E+03   -0.10006E-02   -0.13760E-04  2297   0.168E-02    0.242E-01
RMM:  34    -0.647143935944E+03   -0.29303E-03   -0.13351E-04  2289   0.178E-02    0.208E-01
RMM:  35    -0.647143991244E+03   -0.55300E-04   -0.15841E-05  1846   0.682E-03    0.190E-01
RMM:  36    -0.647144327352E+03   -0.33611E-03   -0.33038E-05  1906   0.102E-02    0.151E-01
RMM:  37    -0.647144571934E+03   -0.24458E-03   -0.57669E-05  2017   0.110E-02    0.103E-01
RMM:  38    -0.647144673424E+03   -0.10149E-03   -0.45187E-05  1963   0.952E-03    0.762E-02
RMM:  39    -0.647144701634E+03   -0.28211E-04   -0.50073E-05  2046   0.966E-03    0.493E-02
RMM:  40    -0.647144694406E+03    0.72286E-05   -0.25117E-05  1905   0.716E-03
   2 F= -.65354498E+03 E0= -.65352775E+03  d E =-.510611E+00  mag=    -1.5962
 trial-energy change:   -0.510611  1 .order   -0.000136   -0.027235    0.026964
 step:   0.9913(harm=  0.5025)  dis= 0.01071  next Energy=  -653.545098 (dE=-0.511E+00)
 bond charge predicted
       N       E                     dE             d eps       ncg     rms          rms(c)
DAV:   1    -0.647144938125E+03   -0.23649E-03   -0.15950E-04  3264   0.329E-02    0.318E-02
RMM:   2    -0.647144986150E+03   -0.48025E-04   -0.96466E-05  1992   0.152E-02    0.538E-02
RMM:   3    -0.647144955904E+03    0.30246E-04   -0.36130E-05  1886   0.112E-02    0.129E-02
RMM:   4    -0.647144940314E+03    0.15590E-04   -0.54028E-06  1633   0.423E-03    0.899E-03
RMM:   5    -0.647144920454E+03    0.19860E-04   -0.33833E-06  1509   0.343E-03    0.423E-03
RMM:   6    -0.647144928842E+03   -0.83880E-05   -0.12972E-06  1071   0.228E-03
   3 F= -.65354521E+03 E0= -.65352797E+03  d E =-.510841E+00  mag=    -1.5988
 curvature:  -0.01 expect dE=-0.394E-03 dE for cont linesearch -0.228E-03
 ZBRENT: interpolating
 opt :   0.5008  next Energy=  -653.551754 (dE=-0.517E+00)
 bond charge predicted
       N       E                     dE             d eps       ncg     rms          rms(c)
DAV:   1    -0.647154406566E+03   -0.94861E-02   -0.50381E-01  3152   0.182E+00    0.250E-01
RMM:   2    -0.647156676021E+03   -0.22695E-02   -0.22763E-02  2976   0.338E-01    0.523E-01
RMM:   3    -0.647154080169E+03    0.25959E-02   -0.27790E-03  3303   0.101E-01    0.146E-01
RMM:   4    -0.647153260890E+03    0.81928E-03   -0.55512E-04  3001   0.426E-02    0.966E-02
RMM:   5    -0.647152880261E+03    0.38063E-03   -0.35933E-04  2908   0.362E-02    0.310E-02
RMM:   6    -0.647153478127E+03   -0.59787E-03   -0.46479E-05  2014   0.130E-02    0.147E-02
RMM:   7    -0.647154218224E+03   -0.74010E-03   -0.31348E-05  1981   0.783E-03    0.741E-03
RMM:   8    -0.647154612805E+03   -0.39458E-03   -0.16792E-05  1815   0.492E-03    0.411E-03
RMM:   9    -0.647154860854E+03   -0.24805E-03   -0.11319E-05  1369   0.352E-03    0.256E-03
RMM:  10    -0.647154954344E+03   -0.93490E-04   -0.51700E-06  1271   0.271E-03    0.151E-03
RMM:  11    -0.647154982416E+03   -0.28072E-04   -0.26659E-06  1183   0.230E-03    0.601E-04
RMM:  12    -0.647154988824E+03   -0.64081E-05   -0.62052E-07   881   0.167E-03
   4 F= -.65355503E+03 E0= -.65353814E+03  d E =-.520663E+00  mag=    -1.6728
 curvature:  -0.25 expect dE=-0.277E-02 dE for cont linesearch -0.159E-02
 ZBRENT: interpolating
 opt :   0.1797  next Energy=  -653.557829 (dE=-0.523E+00)
 bond charge predicted
       N       E                     dE             d eps       ncg     rms          rms(c)
DAV:   1    -0.647157702303E+03   -0.27199E-02   -0.21616E-01  3144   0.119E+00    0.160E-01
RMM:   2    -0.647158542910E+03   -0.84061E-03   -0.94003E-03  2976   0.218E-01    0.328E-01
RMM:   3    -0.647157521645E+03    0.10213E-02   -0.11087E-03  3257   0.643E-02    0.945E-02
RMM:   4    -0.647157165613E+03    0.35603E-03   -0.22782E-04  2897   0.274E-02    0.635E-02
RMM:   5    -0.647156965745E+03    0.19987E-03   -0.15414E-04  2750   0.237E-02    0.199E-02
RMM:   6    -0.647157237726E+03   -0.27198E-03   -0.18509E-05  1868   0.874E-03    0.909E-03
RMM:   7    -0.647157578873E+03   -0.34115E-03   -0.12540E-05  1818   0.540E-03    0.479E-03
RMM:   8    -0.647157761173E+03   -0.18230E-03   -0.72064E-06  1468   0.346E-03    0.247E-03
RMM:   9    -0.647157890095E+03   -0.12892E-03   -0.54975E-06  1307   0.274E-03    0.152E-03
RMM:  10    -0.647157931876E+03   -0.41782E-04   -0.22076E-06  1110   0.208E-03    0.926E-04
RMM:  11    -0.647157947988E+03   -0.16111E-04   -0.13821E-06  1059   0.189E-03    0.412E-04
RMM:  12    -0.647157950264E+03   -0.22757E-05   -0.30050E-07   676   0.149E-03
   5 F= -.65355782E+03 E0= -.65354139E+03  d E =-.523453E+00  mag=    -1.7180
 curvature:  -0.44 expect dE=-0.670E-03 dE for cont linesearch -0.279E-03
 ZBRENT: interpolating
 opt :   0.0720  next Energy=  -653.558108 (dE=-0.524E+00)
 bond charge predicted
       N       E                     dE             d eps       ncg     rms          rms(c)
DAV:   1    -0.647158268615E+03   -0.32063E-03   -0.24335E-02  3296   0.400E-01    0.529E-02
RMM:   2    -0.647158323809E+03   -0.55194E-04   -0.10383E-03  2974   0.727E-02    0.108E-01
RMM:   3    -0.647158206505E+03    0.11730E-03   -0.11670E-04  2193   0.213E-02    0.312E-02
RMM:   4    -0.647158156867E+03    0.49638E-04   -0.25067E-05  1896   0.106E-02    0.206E-02
RMM:   5    -0.647158123815E+03    0.33052E-04   -0.19339E-05  1844   0.908E-03    0.656E-03
RMM:   6    -0.647158171429E+03   -0.47614E-04   -0.29297E-06  1735   0.443E-03    0.318E-03
RMM:   7    -0.647158232559E+03   -0.61130E-04   -0.18483E-06  1394   0.262E-03    0.167E-03
RMM:   8    -0.647158262526E+03   -0.29968E-04   -0.69963E-07   902   0.181E-03    0.989E-04
RMM:   9    -0.647158285251E+03   -0.22725E-04   -0.74071E-07   872   0.170E-03    0.559E-04
RMM:  10    -0.647158298037E+03   -0.12786E-04   -0.50995E-07   762   0.158E-03    0.307E-04
RMM:  11    -0.647158302180E+03   -0.41431E-05   -0.21559E-07   626   0.151E-03
   6 F= -.65355811E+03 E0= -.65354187E+03  d E =-.523745E+00  mag=    -1.7322
 curvature:  -0.45 expect dE=-0.282E-03 dE for cont linesearch -0.195E-04
 trial: gam= 0.06288 g(F)=  0.628E-03 g(S)=  0.000E+00 ort =-0.109E-02 (trialstep = 0.814E+00)
 search vector abs. value=  0.599E-03
 reached required accuracy - stopping structural energy minimisation
