       N       E                     dE             d eps       ncg     rms          rms(c)
DAV:   1     0.303158905584E+04    0.30316E+04   -0.12361E+05  4160   0.131E+03
DAV:   2     0.880454778872E+01   -0.30228E+04   -0.29228E+04  4320   0.377E+02
DAV:   3    -0.380327460706E+03   -0.38913E+03   -0.38449E+03  4024   0.154E+02
DAV:   4    -0.393430246545E+03   -0.13103E+02   -0.12718E+02  4080   0.379E+01
DAV:   5    -0.393881596328E+03   -0.45135E+00   -0.44606E+00  4288   0.558E+00    0.707E+01
DAV:   6    -0.311888807930E+03    0.81993E+02   -0.75097E+01  4816   0.472E+01    0.495E+01
DAV:   7    -0.273456012413E+03    0.38433E+02   -0.15950E+02  4088   0.415E+01    0.251E+01
DAV:   8    -0.272901002488E+03    0.55501E+00   -0.16779E+01  4240   0.162E+01    0.172E+01
DAV:   9    -0.272676561684E+03    0.22444E+00   -0.67685E+00  5280   0.186E+01    0.506E+00
DAV:  10    -0.272430174979E+03    0.24639E+00   -0.40921E+00  5408   0.152E+01    0.253E+00
DAV:  11    -0.272329901726E+03    0.10027E+00   -0.57625E-01  3808   0.318E+00    0.148E+00
DAV:  12    -0.272310104928E+03    0.19797E-01   -0.17096E-01  4568   0.165E+00    0.555E-01
DAV:  13    -0.272309335569E+03    0.76936E-03   -0.22773E-02  4080   0.578E-01    0.373E-01
DAV:  14    -0.272309148313E+03    0.18726E-03   -0.31989E-03  4664   0.209E-01    0.273E-01
DAV:  15    -0.272309023770E+03    0.12454E-03   -0.12324E-03  4696   0.221E-01    0.118E-01
DAV:  16    -0.272309058391E+03   -0.34621E-04   -0.45259E-04  3272   0.897E-02
   1 F= -.27749522E+03 E0= -.27749522E+03  d E =0.000000E+00  mag=     0.0000
