       N       E                     dE             d eps       ncg     rms          rms(c)
DAV:   1     0.258758033085E+04    0.25876E+04   -0.10006E+05  4176   0.110E+03
DAV:   2     0.106858485228E+03   -0.24807E+04   -0.23730E+04  4936   0.274E+02
DAV:   3    -0.492210832165E+03   -0.59907E+03   -0.59450E+03  4076   0.146E+02
DAV:   4    -0.519668706763E+03   -0.27458E+02   -0.26713E+02  4240   0.432E+01
DAV:   5    -0.520826569232E+03   -0.11579E+01   -0.11461E+01  4960   0.782E+00    0.418E+01
DAV:   6    -0.496917843436E+03    0.23909E+02   -0.12757E+02  4416   0.270E+01    0.269E+01
DAV:   7    -0.492735281314E+03    0.41826E+01   -0.48840E+01  4376   0.216E+01    0.203E+01
DAV:   8    -0.486009344516E+03    0.67259E+01   -0.11829E+01  4272   0.142E+01    0.161E+01
DAV:   9    -0.486932220152E+03   -0.92288E+00   -0.60488E+01  4392   0.104E+01    0.118E+01
DAV:  10    -0.487203823363E+03   -0.27160E+00   -0.98459E+00  3912   0.659E+00    0.848E+00
DAV:  11    -0.488569447461E+03   -0.13656E+01   -0.36874E+01  4368   0.654E+00    0.881E+00
DAV:  12    -0.486128917299E+03    0.24405E+01   -0.99954E-01  4152   0.490E+00    0.673E+00
DAV:  13    -0.486574724506E+03   -0.44581E+00   -0.20127E+01  4536   0.458E+00    0.691E+00
DAV:  14    -0.485627551571E+03    0.94717E+00   -0.53713E-01  4184   0.291E+00    0.604E+00
DAV:  15    -0.485685456914E+03   -0.57905E-01   -0.75558E+00  4456   0.203E+00    0.575E+00
DAV:  16    -0.485454514579E+03    0.23094E+00   -0.12128E-01  4000   0.104E+00    0.520E+00
DAV:  17    -0.485307512034E+03    0.14700E+00   -0.14541E-01  4736   0.824E-01    0.345E+00
DAV:  18    -0.485550749499E+03   -0.24324E+00   -0.50434E+00  4880   0.135E+00    0.593E+00
DAV:  19    -0.485393481826E+03    0.15727E+00   -0.56617E-02  3952   0.748E-01    0.567E+00
DAV:  20    -0.485236136678E+03    0.15735E+00   -0.11004E+00  4808   0.761E-01    0.293E+00
DAV:  21    -0.485249034702E+03   -0.12898E-01   -0.14613E-02  3712   0.353E-01    0.294E+00
DAV:  22    -0.485235395643E+03    0.13639E-01   -0.43122E-02  3544   0.994E-02    0.247E+00
DAV:  23    -0.485234561633E+03    0.83401E-03   -0.11493E-01  4488   0.251E-01    0.300E+00
DAV:  24    -0.485234144695E+03    0.41694E-03   -0.53515E-02  3872   0.174E-01    0.277E+00
DAV:  25    -0.485230291482E+03    0.38532E-02   -0.21519E-02  4184   0.166E-01    0.231E+00
DAV:  26    -0.485268731555E+03   -0.38440E-01   -0.24679E-01  4552   0.222E-01    0.441E+00
DAV:  27    -0.485227481944E+03    0.41250E-01   -0.33003E-01  4184   0.245E-01    0.184E+00
DAV:  28    -0.485233620696E+03   -0.61388E-02   -0.36463E-02  3496   0.134E-01    0.218E+00
DAV:  29    -0.485231400793E+03    0.22199E-02   -0.25504E-03  2656   0.527E-02    0.196E+00
DAV:  30    -0.485233392276E+03   -0.19915E-02   -0.11464E-02  2896   0.532E-02    0.220E+00
DAV:  31    -0.485231647636E+03    0.17446E-02   -0.20063E-03  2600   0.480E-02    0.196E+00
DAV:  32    -0.485231969803E+03   -0.32217E-03   -0.19479E-03  2536   0.389E-02    0.204E+00
DAV:  33    -0.485228651948E+03    0.33179E-02   -0.66531E-03  3056   0.654E-02    0.139E+00
DAV:  34    -0.485229224247E+03   -0.57230E-03   -0.34481E-03  3192   0.735E-02    0.145E+00
DAV:  35    -0.485227630566E+03    0.15937E-02   -0.99833E-03  2848   0.650E-02    0.614E-01
DAV:  36    -0.485229724778E+03   -0.20942E-02   -0.10078E-02  2528   0.554E-02    0.134E+00
DAV:  37    -0.485227830438E+03    0.18943E-02   -0.57574E-03  2264   0.440E-02    0.605E-01
DAV:  38    -0.485228526365E+03   -0.69593E-03   -0.80387E-04  2232   0.313E-02    0.789E-01
DAV:  39    -0.485227798816E+03    0.72755E-03   -0.28686E-03  2688   0.375E-02    0.371E-01
DAV:  40    -0.485228096131E+03   -0.29731E-03   -0.18994E-04  2200   0.295E-02    0.377E-01
DAV:  41    -0.485228071589E+03    0.24542E-04   -0.22423E-04  2304   0.188E-02
   1 F= -.48902215E+03 E0= -.48902215E+03  d E =0.000000E+00  mag=    -0.0187
