       N       E                     dE             d eps       ncg     rms          ort
DAV:   1     0.261072695536E+04    0.26107E+04   -0.10211E+05   688   0.114E+03
DAV:   2     0.114121653012E+03   -0.24966E+04   -0.23850E+04   688   0.274E+02
DAV:   3    -0.492014325290E+03   -0.60614E+03   -0.60139E+03   688   0.147E+02
DAV:   4    -0.519700408543E+03   -0.27686E+02   -0.26925E+02   688   0.435E+01
DAV:   5    -0.520889824688E+03   -0.11894E+01   -0.11751E+01   688   0.788E+00
SDA:   6    -0.433868547886E+03    0.87021E+02   -0.11751E+01   688   0.379E+03 0.000E+00
CGA:   7    -0.461670798215E+03   -0.27802E+02   -0.47150E+02   688   0.722E+02 0.619E+02
CGA:   8    -0.467959589782E+03   -0.62888E+01   -0.79904E+01   688   0.546E+02-0.180E+02
CGA:   9    -0.473879310315E+03   -0.59197E+01   -0.42764E+01   688   0.281E+02-0.144E+02
CGA:  10    -0.476270777126E+03   -0.23915E+01   -0.83726E+00   688   0.957E+02 0.852E+02
CGA:  11    -0.469400025332E+03    0.68708E+01   -0.64358E+01   688   0.494E+02-0.204E+02
CGA:  12    -0.474726260218E+03   -0.53262E+01   -0.36948E+01   688   0.262E+02-0.232E+02
CGA:  13    -0.483784939444E+03   -0.90587E+01   -0.68190E+00   688   0.291E+02 0.115E+03
CGA:  14    -0.483207404240E+03    0.57754E+00   -0.11509E+01   688   0.661E+02-0.394E+02
CGA:  15    -0.479077809184E+03    0.41296E+01   -0.36569E+01   688   0.186E+03-0.818E+02
CGA:  16    -0.473134117734E+03    0.59437E+01   -0.12226E+02   688   0.532E+02-0.332E+02
CGA:  17    -0.476001329860E+03   -0.28672E+01   -0.29459E+01   688   0.653E+02-0.593E+02
CGA:  18    -0.474940140790E+03    0.10612E+01   -0.35294E+01   688   0.109E+03-0.999E+02
CGA:  19    -0.475383731931E+03   -0.44359E+00   -0.68666E+01   688   0.344E+02-0.320E+02
CGA:  20    -0.484665599572E+03   -0.92819E+01   -0.11795E+01   688   0.255E+01 0.229E+02
CGA:  21    -0.484728021977E+03   -0.62422E-01   -0.80574E-01   688   0.213E+01-0.477E+00
CGA:  22    -0.485096560029E+03   -0.36854E+00   -0.31635E+00   688   0.344E+01 0.657E+00
CGA:  23    -0.485300184014E+03   -0.20362E+00   -0.16533E+00   688   0.100E+01 0.152E+01
CGA:  24    -0.485388486012E+03   -0.88302E-01   -0.53914E-01   688   0.611E+00 0.971E+00
CGA:  25    -0.485476738785E+03   -0.88253E-01   -0.88524E-01   688   0.675E+00-0.404E-01
CGA:  26    -0.485265453117E+03    0.21129E+00    0.60658E+02   688   0.914E+01-0.105E+01
CGA:  27    -0.485850968488E+03   -0.58552E+00   -0.11783E+01   688   0.191E+00 0.421E+00
CGA:  28    -0.485904970888E+03   -0.54002E-01   -0.54689E-01   688   0.133E+00-0.902E-02
CGA:  29    -0.485951542472E+03   -0.46572E-01   -0.43504E-01   688   0.516E-01 0.195E-01
CGA:  30    -0.485973903608E+03   -0.22361E-01   -0.20943E-01   688   0.164E-01 0.877E-02
CGA:  31    -0.485983300973E+03   -0.93974E-02   -0.94680E-02   688   0.106E-01-0.284E-03
CGA:  32    -0.485988463728E+03   -0.51628E-02   -0.49996E-02   688   0.409E-02 0.629E-03
CGA:  33    -0.485990353655E+03   -0.18899E-02   -0.18922E-02   688   0.176E-02-0.117E-04
CGA:  34    -0.485991238146E+03   -0.88449E-03   -0.89005E-03   688   0.106E-02-0.182E-04
CGA:  35    -0.485991776272E+03   -0.53813E-03   -0.53959E-03   688   0.551E-03-0.899E-06
CGA:  36    -0.485992041872E+03   -0.26560E-03   -0.26227E-03   688   0.285E-03 0.154E-04
CGA:  37    -0.485992164411E+03   -0.12254E-03   -0.12208E-03   688   0.120E-03 0.195E-05
CGA:  38    -0.485992219338E+03   -0.54928E-04   -0.54885E-04   688   0.554E-04 0.474E-06
   1 F= -.48979033E+03 E0= -.48979014E+03  d E =-.489790E+03  mag=    -1.9993
       N       E                     dE             d eps       ncg     rms          ort
SDA:   1    -0.485806878479E+03    0.18529E+00    0.00000E+00   688   0.418E+00 0.000E+00
CGA:   2    -0.485944641100E+03   -0.13776E+00   -0.13776E+00   688   0.156E+00 0.135E-03
CGA:   3    -0.485980465850E+03   -0.35825E-01   -0.35815E-01   688   0.369E-01 0.475E-04
CGA:   4    -0.485987772089E+03   -0.73062E-02   -0.73080E-02   688   0.800E-02-0.461E-06
CGA:   5    -0.485989623021E+03   -0.18509E-02   -0.18508E-02   688   0.215E-02-0.194E-05
CGA:   6    -0.485990229774E+03   -0.60675E-03   -0.60669E-03   688   0.845E-03-0.228E-05
CGA:   7    -0.485990520503E+03   -0.29073E-03   -0.29078E-03   688   0.412E-03-0.117E-05
CGA:   8    -0.485990664674E+03   -0.14417E-03   -0.14419E-03   688   0.178E-03-0.228E-06
CGA:   9    -0.485990722346E+03   -0.57672E-04   -0.57677E-04   688   0.567E-04-0.236E-06
   2 F= -.48978887E+03 E0= -.48978879E+03  d E =0.145854E-02  mag=    -1.9997
       N       E                     dE             d eps       ncg     rms          ort
SDA:   1    -0.485943528712E+03    0.47136E-01    0.00000E+00   688   0.122E+00 0.000E+00
CGA:   2    -0.485983495970E+03   -0.39967E-01   -0.39970E-01   688   0.452E-01-0.713E-04
CGA:   3    -0.485993886126E+03   -0.10390E-01   -0.10393E-01   688   0.107E-01 0.137E-05
CGA:   4    -0.485996006620E+03   -0.21205E-02   -0.21205E-02   688   0.228E-02 0.298E-05
CGA:   5    -0.485996539404E+03   -0.53278E-03   -0.53293E-03   688   0.609E-03 0.245E-05
CGA:   6    -0.485996707601E+03   -0.16820E-03   -0.16822E-03   688   0.237E-03 0.120E-05
CGA:   7    -0.485996785911E+03   -0.78310E-04   -0.78291E-04   688   0.115E-03 0.576E-06
   3 F= -.48979492E+03 E0= -.48979480E+03  d E =-.459019E-02  mag=    -1.9996
       N       E                     dE             d eps       ncg     rms          ort
SDA:   1    -0.485920514629E+03    0.76193E-01    0.00000E+00   688   0.180E+00 0.000E+00
CGA:   2    -0.485979841483E+03   -0.59327E-01   -0.59330E-01   688   0.656E-01-0.654E-04
CGA:   3    -0.485994833385E+03   -0.14992E-01   -0.14995E-01   688   0.144E-01 0.160E-05
CGA:   4    -0.485997772810E+03   -0.29394E-02   -0.29396E-02   688   0.334E-02 0.522E-05
CGA:   5    -0.485998499076E+03   -0.72627E-03   -0.72654E-03   688   0.899E-03 0.391E-05
CGA:   6    -0.485998735950E+03   -0.23687E-03   -0.23685E-03   688   0.346E-03-0.100E-05
CGA:   7    -0.485998839671E+03   -0.10372E-03   -0.10372E-03   688   0.166E-03-0.312E-06
CGA:   8    -0.485998892977E+03   -0.53306E-04   -0.53301E-04   688   0.686E-04 0.183E-06
   4 F= -.48979710E+03 E0= -.48979703E+03  d E =-.218077E-02  mag=    -1.9997
       N       E                     dE             d eps       ncg     rms          ort
SDA:   1    -0.485992781090E+03    0.60586E-02    0.00000E+00   688   0.151E-01 0.000E+00
CGA:   2    -0.485997793761E+03   -0.50127E-02   -0.50128E-02   688   0.550E-02-0.305E-05
CGA:   3    -0.485999059069E+03   -0.12653E-02   -0.12653E-02   688   0.120E-02 0.137E-05
CGA:   4    -0.485999301081E+03   -0.24201E-03   -0.24191E-03   688   0.308E-03-0.124E-05
CGA:   5    -0.485999365015E+03   -0.63934E-04   -0.63839E-04   688   0.738E-04-0.120E-05
   5 F= -.48979755E+03 E0= -.48979747E+03  d E =-.263271E-02  mag=    -1.9997
       N       E                     dE             d eps       ncg     rms          ort
SDA:   1    -0.485951730669E+03    0.47570E-01    0.00000E+00   688   0.117E+00 0.000E+00
CGA:   2    -0.485991230371E+03   -0.39500E-01   -0.39501E-01   688   0.391E-01-0.147E-04
CGA:   3    -0.486000442090E+03   -0.92117E-02   -0.92119E-02   688   0.763E-02 0.954E-06
CGA:   4    -0.486002127382E+03   -0.16853E-02   -0.16853E-02   688   0.181E-02 0.506E-06
CGA:   5    -0.486002518941E+03   -0.39156E-03   -0.39158E-03   688   0.543E-03 0.448E-06
CGA:   6    -0.486002658615E+03   -0.13967E-03   -0.13964E-03   688   0.214E-03-0.185E-05
CGA:   7    -0.486002722933E+03   -0.64319E-04   -0.64326E-04   688   0.101E-03-0.306E-06
   6 F= -.48980089E+03 E0= -.48980081E+03  d E =-.333621E-02  mag=    -1.9997
       N       E                     dE             d eps       ncg     rms          ort
SDA:   1    -0.485958031409E+03    0.44627E-01    0.00000E+00   688   0.105E+00 0.000E+00
CGA:   2    -0.485993485452E+03   -0.35454E-01   -0.35455E-01   688   0.348E-01-0.126E-04
CGA:   3    -0.486001681373E+03   -0.81959E-02   -0.81961E-02   688   0.707E-02 0.133E-05
CGA:   4    -0.486003203559E+03   -0.15222E-02   -0.15222E-02   688   0.180E-02-0.803E-07
CGA:   5    -0.486003600356E+03   -0.39680E-03   -0.39684E-03   688   0.534E-03 0.832E-06
CGA:   6    -0.486003749248E+03   -0.14889E-03   -0.14890E-03   688   0.223E-03-0.217E-05
CGA:   7    -0.486003818914E+03   -0.69666E-04   -0.69673E-04   688   0.114E-03-0.202E-06
   7 F= -.48980196E+03 E0= -.48980189E+03  d E =-.440700E-02  mag=    -1.9997
       N       E                     dE             d eps       ncg     rms          ort
SDA:   1    -0.485932141500E+03    0.71608E-01    0.00000E+00   688   0.176E+00 0.000E+00
CGA:   2    -0.485991025053E+03   -0.58884E-01   -0.58885E-01   688   0.547E-01-0.154E-04
CGA:   3    -0.486003903213E+03   -0.12878E-01   -0.12878E-01   688   0.113E-01 0.210E-05
CGA:   4    -0.486006348248E+03   -0.24450E-02   -0.24451E-02   688   0.280E-02 0.120E-05
CGA:   5    -0.486006953898E+03   -0.60565E-03   -0.60571E-03   688   0.873E-03 0.126E-05
CGA:   6    -0.486007176022E+03   -0.22212E-03   -0.22211E-03   688   0.344E-03-0.108E-05
CGA:   7    -0.486007281498E+03   -0.10548E-03   -0.10546E-03   688   0.170E-03 0.385E-06
CGA:   8    -0.486007335490E+03   -0.53992E-04   -0.53965E-04   688   0.668E-04 0.595E-06
   8 F= -.48980523E+03 E0= -.48980513E+03  d E =-.326440E-02  mag=    -1.9997
       N       E                     dE             d eps       ncg     rms          ort
SDA:   1    -0.485962549915E+03    0.44732E-01    0.00000E+00   688   0.107E+00 0.000E+00
CGA:   2    -0.485998368518E+03   -0.35819E-01   -0.35819E-01   688   0.336E-01-0.829E-05
CGA:   3    -0.486006232499E+03   -0.78640E-02   -0.78640E-02   688   0.693E-02 0.309E-07
CGA:   4    -0.486007773829E+03   -0.15413E-02   -0.15415E-02   688   0.148E-02 0.232E-05
CGA:   5    -0.486008134560E+03   -0.36073E-03   -0.36073E-03   688   0.448E-03 0.508E-07
CGA:   6    -0.486008257190E+03   -0.12263E-03   -0.12263E-03   688   0.195E-03-0.565E-06
CGA:   7    -0.486008315457E+03   -0.58267E-04   -0.58252E-04   688   0.101E-03 0.578E-06
   9 F= -.48980600E+03 E0= -.48980589E+03  d E =-.404193E-02  mag=    -1.9996
       N       E                     dE             d eps       ncg     rms          ort
SDA:   1    -0.485948467794E+03    0.59789E-01    0.00000E+00   688   0.150E+00 0.000E+00
CGA:   2    -0.485997598099E+03   -0.49130E-01   -0.49132E-01   688   0.457E-01-0.198E-04
CGA:   3    -0.486008418179E+03   -0.10820E-01   -0.10820E-01   688   0.974E-02 0.358E-05
CGA:   4    -0.486010485307E+03   -0.20671E-02   -0.20672E-02   688   0.228E-02 0.675E-06
CGA:   5    -0.486010993517E+03   -0.50821E-03   -0.50823E-03   688   0.691E-03 0.420E-06
CGA:   6    -0.486011166728E+03   -0.17321E-03   -0.17319E-03   688   0.277E-03-0.994E-06
CGA:   7    -0.486011248848E+03   -0.82119E-04   -0.82111E-04   688   0.133E-03 0.317E-06
  10 F= -.48980881E+03 E0= -.48980869E+03  d E =-.280364E-02  mag=    -1.9996
       N       E                     dE             d eps       ncg     rms          ort
SDA:   1    -0.485829122697E+03    0.18204E+00    0.00000E+00   688   0.440E+00 0.000E+00
CGA:   2    -0.485973242630E+03   -0.14412E+00   -0.14413E+00   688   0.134E+00-0.689E-04
CGA:   3    -0.486004960629E+03   -0.31718E-01   -0.31719E-01   688   0.282E-01 0.926E-05
CGA:   4    -0.486011017947E+03   -0.60573E-02   -0.60573E-02   688   0.647E-02 0.833E-06
CGA:   5    -0.486012490684E+03   -0.14727E-02   -0.14728E-02   688   0.188E-02 0.169E-05
CGA:   6    -0.486012993933E+03   -0.50325E-03   -0.50325E-03   688   0.717E-03-0.241E-05
CGA:   7    -0.486013225558E+03   -0.23162E-03   -0.23155E-03   688   0.348E-03 0.145E-05
CGA:   8    -0.486013335717E+03   -0.11016E-03   -0.11015E-03   688   0.142E-03 0.231E-06
CGA:   9    -0.486013378646E+03   -0.42928E-04   -0.42937E-04   688   0.441E-04-0.311E-06
  11 F= -.48981070E+03 E0= -.48981057E+03  d E =-.469838E-02  mag=    -1.9995
       N       E                     dE             d eps       ncg     rms          ort
SDA:   1    -0.485993908649E+03    0.19427E-01    0.00000E+00   688   0.514E-01 0.000E+00
CGA:   2    -0.486010708038E+03   -0.16799E-01   -0.16800E-01   688   0.152E-01-0.579E-05
CGA:   3    -0.486014300144E+03   -0.35921E-02   -0.35922E-02   688   0.322E-02 0.992E-06
CGA:   4    -0.486014996044E+03   -0.69590E-03   -0.69595E-03   688   0.690E-03 0.766E-06
CGA:   5    -0.486015147887E+03   -0.15184E-03   -0.15186E-03   688   0.212E-03 0.288E-06
CGA:   6    -0.486015200355E+03   -0.52468E-04   -0.52452E-04   688   0.780E-04-0.681E-06
  12 F= -.48981246E+03 E0= -.48981233E+03  d E =-.175301E-02  mag=    -1.9995
       N       E                     dE             d eps       ncg     rms          ort
SDA:   1    -0.485827831822E+03    0.18732E+00    0.00000E+00   688   0.462E+00 0.000E+00
CGA:   2    -0.485978868449E+03   -0.15104E+00   -0.15104E+00   688   0.136E+00-0.885E-04
CGA:   3    -0.486011202274E+03   -0.32334E-01   -0.32335E-01   688   0.285E-01 0.100E-04
CGA:   4    -0.486017453181E+03   -0.62509E-02   -0.62510E-02   688   0.615E-02 0.341E-05
CGA:   5    -0.486018855574E+03   -0.14024E-02   -0.14024E-02   688   0.190E-02 0.663E-06
CGA:   6    -0.486019316773E+03   -0.46120E-03   -0.46115E-03   688   0.750E-03-0.181E-05
CGA:   7    -0.486019542275E+03   -0.22550E-03   -0.22548E-03   688   0.357E-03 0.560E-06
CGA:   8    -0.486019657651E+03   -0.11538E-03   -0.11535E-03   688   0.143E-03 0.518E-06
CGA:   9    -0.486019702843E+03   -0.45192E-04   -0.45214E-04   688   0.446E-04-0.511E-06
  13 F= -.48981674E+03 E0= -.48981662E+03  d E =-.604094E-02  mag=    -1.9996
       N       E                     dE             d eps       ncg     rms          ort
SDA:   1    -0.485256582125E+03    0.76308E+00    0.00000E+00   688   0.185E+01 0.000E+00
CGA:   2    -0.485860949095E+03   -0.60437E+00   -0.60442E+00   688   0.546E+00-0.657E-03
CGA:   3    -0.485989942828E+03   -0.12899E+00   -0.12901E+00   688   0.116E+00 0.997E-04
CGA:   4    -0.486015040837E+03   -0.25098E-01   -0.25098E-01   688   0.244E-01 0.507E-05
CGA:   5    -0.486020643001E+03   -0.56022E-02   -0.56023E-02   688   0.700E-02 0.447E-05
CGA:   6    -0.486022429788E+03   -0.17868E-02   -0.17867E-02   688   0.261E-02-0.492E-05
CGA:   7    -0.486023252323E+03   -0.82253E-03   -0.82242E-03   688   0.124E-02 0.263E-05
CGA:   8    -0.486023653753E+03   -0.40143E-03   -0.40139E-03   688   0.515E-03 0.729E-06
CGA:   9    -0.486023811954E+03   -0.15820E-03   -0.15822E-03   688   0.161E-03-0.735E-06
CGA:  10    -0.486023862016E+03   -0.50062E-04   -0.50030E-04   688   0.501E-04 0.901E-06
  14 F= -.48982043E+03 E0= -.48982033E+03  d E =-.973257E-02  mag=    -1.9996
       N       E                     dE             d eps       ncg     rms          ort
SDA:   1    -0.485941762748E+03    0.82049E-01    0.00000E+00   688   0.207E+00 0.000E+00
CGA:   2    -0.486008529634E+03   -0.66767E-01   -0.66768E-01   688   0.623E-01-0.212E-04
CGA:   3    -0.486023233251E+03   -0.14704E-01   -0.14704E-01   688   0.136E-01 0.621E-06
CGA:   4    -0.486026132829E+03   -0.28996E-02   -0.28996E-02   688   0.292E-02 0.805E-06
CGA:   5    -0.486026805652E+03   -0.67282E-03   -0.67279E-03   688   0.761E-03-0.853E-06
CGA:   6    -0.486027013934E+03   -0.20828E-03   -0.20828E-03   688   0.277E-03-0.124E-05
CGA:   7    -0.486027106482E+03   -0.92548E-04   -0.92547E-04   688   0.133E-03 0.911E-08
  15 F= -.48982348E+03 E0= -.48982337E+03  d E =-.304876E-02  mag=    -1.9996
       N       E                     dE             d eps       ncg     rms          ort
SDA:   1    -0.485881840813E+03    0.14517E+00    0.00000E+00   688   0.356E+00 0.000E+00
CGA:   2    -0.485996825724E+03   -0.11498E+00   -0.11499E+00   688   0.107E+00-0.405E-04
CGA:   3    -0.486022083602E+03   -0.25258E-01   -0.25259E-01   688   0.239E-01 0.348E-05
CGA:   4    -0.486027069656E+03   -0.49861E-02   -0.49861E-02   688   0.535E-02 0.970E-06
CGA:   5    -0.486028281304E+03   -0.12116E-02   -0.12116E-02   688   0.150E-02-0.507E-06
CGA:   6    -0.486028667414E+03   -0.38611E-03   -0.38608E-03   688   0.573E-03-0.189E-05
CGA:   7    -0.486028842326E+03   -0.17491E-03   -0.17491E-03   688   0.279E-03-0.103E-07
CGA:   8    -0.486028932868E+03   -0.90541E-04   -0.90539E-04   688   0.113E-03 0.287E-07
  16 F= -.48982504E+03 E0= -.48982492E+03  d E =-.460868E-02  mag=    -1.9995
       N       E                     dE             d eps       ncg     rms          ort
SDA:   1    -0.485957345131E+03    0.71497E-01    0.00000E+00   688   0.180E+00 0.000E+00
CGA:   2    -0.486015431829E+03   -0.58087E-01   -0.58088E-01   688   0.550E-01-0.156E-04
CGA:   3    -0.486028301945E+03   -0.12870E-01   -0.12870E-01   688   0.121E-01-0.243E-05
CGA:   4    -0.486030937051E+03   -0.26351E-02   -0.26354E-02   688   0.251E-02 0.536E-05
CGA:   5    -0.486031524833E+03   -0.58778E-03   -0.58778E-03   688   0.729E-03-0.503E-07
CGA:   6    -0.486031714955E+03   -0.19012E-03   -0.19012E-03   688   0.281E-03-0.284E-06
CGA:   7    -0.486031802846E+03   -0.87891E-04   -0.87885E-04   688   0.138E-03 0.144E-06
  17 F= -.48982783E+03 E0= -.48982769E+03  d E =-.278477E-02  mag=    -1.9995
       N       E                     dE             d eps       ncg     rms          ort
SDA:   1    -0.485826952898E+03    0.20476E+00    0.00000E+00   688   0.500E+00 0.000E+00
CGA:   2    -0.485988133330E+03   -0.16118E+00   -0.16119E+00   688   0.152E+00-0.850E-04
CGA:   3    -0.486023874788E+03   -0.35741E-01   -0.35744E-01   688   0.334E-01 0.108E-04
CGA:   4    -0.486031081212E+03   -0.72064E-02   -0.72065E-02   688   0.740E-02 0.750E-05
CGA:   5    -0.486032754342E+03   -0.16731E-02   -0.16732E-02   688   0.215E-02 0.941E-06
CGA:   6    -0.486033303082E+03   -0.54874E-03   -0.54872E-03   688   0.824E-03-0.107E-05
CGA:   7    -0.486033552830E+03   -0.24975E-03   -0.24973E-03   688   0.403E-03 0.505E-06
CGA:   8    -0.486033682009E+03   -0.12918E-03   -0.12917E-03   688   0.163E-03 0.109E-06
CGA:   9    -0.486033734513E+03   -0.52504E-04   -0.52518E-04   688   0.509E-04-0.292E-06
  18 F= -.48982960E+03 E0= -.48982945E+03  d E =-.455800E-02  mag=    -1.9994
       N       E                     dE             d eps       ncg     rms          ort
SDA:   1    -0.485905091931E+03    0.12859E+00    0.00000E+00   688   0.320E+00 0.000E+00
CGA:   2    -0.486007654013E+03   -0.10256E+00   -0.10256E+00   688   0.971E-01-0.363E-04
CGA:   3    -0.486030712138E+03   -0.23058E-01   -0.23059E-01   688   0.207E-01 0.354E-05
CGA:   4    -0.486035268443E+03   -0.45563E-02   -0.45565E-02   688   0.438E-02 0.396E-05
CGA:   5    -0.486036274756E+03   -0.10063E-02   -0.10063E-02   688   0.124E-02-0.126E-05
CGA:   6    -0.486036599061E+03   -0.32430E-03   -0.32430E-03   688   0.469E-03-0.721E-06
CGA:   7    -0.486036744863E+03   -0.14580E-03   -0.14579E-03   688   0.229E-03 0.344E-06
CGA:   8    -0.486036817849E+03   -0.72986E-04   -0.72986E-04   688   0.950E-04-0.208E-07
  19 F= -.48983279E+03 E0= -.48983263E+03  d E =-.319149E-02  mag=    -1.9994
       N       E                     dE             d eps       ncg     rms          ort
SDA:   1    -0.485543458696E+03    0.49329E+00    0.00000E+00   688   0.120E+01 0.000E+00
CGA:   2    -0.485929336313E+03   -0.38588E+00   -0.38589E+00   688   0.365E+00-0.225E-03
CGA:   3    -0.486015969697E+03   -0.86633E-01   -0.86642E-01   688   0.779E-01 0.555E-04
CGA:   4    -0.486033191205E+03   -0.17222E-01   -0.17221E-01   688   0.161E-01 0.769E-05
CGA:   5    -0.486037032113E+03   -0.38409E-02   -0.38409E-02   688   0.438E-02-0.117E-05
CGA:   6    -0.486038235571E+03   -0.12035E-02   -0.12035E-02   688   0.166E-02-0.132E-05
CGA:   7    -0.486038767090E+03   -0.53152E-03   -0.53147E-03   688   0.823E-03 0.997E-06
CGA:   8    -0.486039021699E+03   -0.25461E-03   -0.25460E-03   688   0.342E-03 0.130E-06
CGA:   9    -0.486039125880E+03   -0.10418E-03   -0.10418E-03   688   0.105E-03 0.153E-06
CGA:  10    -0.486039159791E+03   -0.33911E-04   -0.33893E-04   688   0.335E-04 0.437E-06
  20 F= -.48983532E+03 E0= -.48983511E+03  d E =-.571574E-02  mag=    -1.9992
       N       E                     dE             d eps       ncg     rms          ort
SDA:   1    -0.485980067325E+03    0.59059E-01    0.00000E+00   688   0.150E+00 0.000E+00
CGA:   2    -0.486028252654E+03   -0.48185E-01   -0.48186E-01   688   0.453E-01-0.145E-04
CGA:   3    -0.486039022977E+03   -0.10770E-01   -0.10771E-01   688   0.992E-02 0.131E-05
CGA:   4    -0.486041158062E+03   -0.21351E-02   -0.21351E-02   688   0.214E-02 0.939E-06
CGA:   5    -0.486041654151E+03   -0.49609E-03   -0.49599E-03   688   0.582E-03-0.202E-05
CGA:   6    -0.486041810415E+03   -0.15626E-03   -0.15626E-03   688   0.232E-03-0.948E-07
CGA:   7    -0.486041880541E+03   -0.70126E-04   -0.70122E-04   688   0.122E-03 0.137E-06
  21 F= -.48983803E+03 E0= -.48983784E+03  d E =-.271459E-02  mag=    -1.9993
       N       E                     dE             d eps       ncg     rms          ort
SDA:   1    -0.485934038388E+03    0.10777E+00    0.00000E+00   688   0.264E+00 0.000E+00
CGA:   2    -0.486019086375E+03   -0.85048E-01   -0.85049E-01   688   0.800E-01-0.252E-04
CGA:   3    -0.486038070167E+03   -0.18984E-01   -0.18985E-01   688   0.179E-01 0.446E-05
CGA:   4    -0.486041812587E+03   -0.37424E-02   -0.37424E-02   688   0.419E-02 0.130E-05
CGA:   5    -0.486042741842E+03   -0.92926E-03   -0.92914E-03   688   0.123E-02-0.227E-05
CGA:   6    -0.486043052463E+03   -0.31062E-03   -0.31061E-03   688   0.490E-03-0.616E-06
CGA:   7    -0.486043198108E+03   -0.14565E-03   -0.14564E-03   688   0.240E-03 0.376E-06
CGA:   8    -0.486043276379E+03   -0.78271E-04   -0.78284E-04   688   0.955E-04-0.258E-06
  22 F= -.48983942E+03 E0= -.48983923E+03  d E =-.409803E-02  mag=    -1.9993
       N       E                     dE             d eps       ncg     rms          ort
SDA:   1    -0.485996584620E+03    0.46613E-01    0.00000E+00   688   0.118E+00 0.000E+00
CGA:   2    -0.486034367632E+03   -0.37783E-01   -0.37784E-01   688   0.367E-01-0.906E-05
CGA:   3    -0.486042892673E+03   -0.85250E-02   -0.85254E-02   688   0.837E-02-0.406E-06
CGA:   4    -0.486044673614E+03   -0.17809E-02   -0.17812E-02   688   0.175E-02 0.422E-05
CGA:   5    -0.486045069335E+03   -0.39572E-03   -0.39573E-03   688   0.534E-03 0.198E-06
CGA:   6    -0.486045200853E+03   -0.13152E-03   -0.13152E-03   688   0.203E-03 0.187E-07
CGA:   7    -0.486045261792E+03   -0.60938E-04   -0.60922E-04   688   0.998E-04 0.604E-06
  23 F= -.48984143E+03 E0= -.48984127E+03  d E =-.201819E-02  mag=    -1.9994
       N       E                     dE             d eps       ncg     rms          ort
SDA:   1    -0.486020419451E+03    0.24781E-01    0.00000E+00   688   0.611E-01 0.000E+00
CGA:   2    -0.486040021578E+03   -0.19602E-01   -0.19602E-01   688   0.190E-01-0.386E-05
CGA:   3    -0.486044441508E+03   -0.44199E-02   -0.44200E-02   688   0.447E-02-0.119E-05
CGA:   4    -0.486045345100E+03   -0.90359E-03   -0.90377E-03   688   0.108E-02 0.292E-05
CGA:   5    -0.486045576396E+03   -0.23130E-03   -0.23132E-03   688   0.320E-03 0.364E-06
CGA:   6    -0.486045656869E+03   -0.80472E-04   -0.80470E-04   688   0.122E-03-0.115E-06
  24 F= -.48984185E+03 E0= -.48984170E+03  d E =-.243555E-02  mag=    -1.9995
       N       E                     dE             d eps       ncg     rms          ort
SDA:   1    -0.486002444267E+03    0.43132E-01    0.00000E+00   688   0.109E+00 0.000E+00
CGA:   2    -0.486037631214E+03   -0.35187E-01   -0.35187E-01   688   0.331E-01-0.608E-05
CGA:   3    -0.486045432007E+03   -0.78008E-02   -0.78009E-02   688   0.737E-02 0.514E-06
CGA:   4    -0.486046986143E+03   -0.15541E-02   -0.15542E-02   688   0.177E-02 0.171E-05
CGA:   5    -0.486047356001E+03   -0.36986E-03   -0.36982E-03   688   0.574E-03-0.624E-06
CGA:   6    -0.486047491905E+03   -0.13590E-03   -0.13589E-03   688   0.214E-03-0.521E-06
CGA:   7    -0.486047557935E+03   -0.66030E-04   -0.66015E-04   688   0.101E-03 0.353E-06
  25 F= -.48984388E+03 E0= -.48984374E+03  d E =-.202582E-02  mag=    -1.9995
       N       E                     dE             d eps       ncg     rms          ort
SDA:   1    -0.485902750107E+03    0.14474E+00    0.00000E+00   688   0.353E+00 0.000E+00
CGA:   2    -0.486016830244E+03   -0.11408E+00   -0.11408E+00   688   0.106E+00-0.169E-04
CGA:   3    -0.486042045508E+03   -0.25215E-01   -0.25216E-01   688   0.235E-01 0.683E-05
CGA:   4    -0.486046944109E+03   -0.48986E-02   -0.48986E-02   688   0.514E-02 0.242E-05
CGA:   5    -0.486048119297E+03   -0.11752E-02   -0.11752E-02   688   0.146E-02-0.187E-06
CGA:   6    -0.486048500855E+03   -0.38156E-03   -0.38155E-03   688   0.567E-03-0.133E-05
CGA:   7    -0.486048670852E+03   -0.17000E-03   -0.16996E-03   688   0.289E-03 0.108E-05
CGA:   8    -0.486048758144E+03   -0.87292E-04   -0.87282E-04   688   0.122E-03 0.320E-06
  26 F= -.48984530E+03 E0= -.48984517E+03  d E =-.344723E-02  mag=    -1.9995
       N       E                     dE             d eps       ncg     rms          ort
SDA:   1    -0.485980572293E+03    0.68099E-01    0.00000E+00   688   0.170E+00 0.000E+00
CGA:   2    -0.486035512837E+03   -0.54941E-01   -0.54941E-01   688   0.514E-01-0.806E-05
CGA:   3    -0.486047668241E+03   -0.12155E-01   -0.12156E-01   688   0.114E-01-0.199E-05
CGA:   4    -0.486050082009E+03   -0.24138E-02   -0.24139E-02   688   0.232E-02 0.365E-05
CGA:   5    -0.486050631226E+03   -0.54922E-03   -0.54918E-03   688   0.689E-03-0.127E-05
CGA:   6    -0.486050799039E+03   -0.16781E-03   -0.16781E-03   688   0.294E-03-0.361E-06
CGA:   7    -0.486050877823E+03   -0.78784E-04   -0.78783E-04   688   0.139E-03 0.224E-06
  27 F= -.48984748E+03 E0= -.48984733E+03  d E =-.217725E-02  mag=    -1.9995
       N       E                     dE             d eps       ncg     rms          ort
SDA:   1    -0.485978445474E+03    0.72354E-01    0.00000E+00   688   0.177E+00 0.000E+00
CGA:   2    -0.486035559614E+03   -0.57114E-01   -0.57115E-01   688   0.533E-01-0.979E-05
CGA:   3    -0.486048231594E+03   -0.12672E-01   -0.12672E-01   688   0.118E-01-0.122E-05
CGA:   4    -0.486050684789E+03   -0.24532E-02   -0.24533E-02   688   0.265E-02 0.318E-05
CGA:   5    -0.486051291789E+03   -0.60700E-03   -0.60697E-03   688   0.750E-03-0.768E-06
CGA:   6    -0.486051487223E+03   -0.19543E-03   -0.19543E-03   688   0.304E-03-0.802E-06
CGA:   7    -0.486051573891E+03   -0.86668E-04   -0.86660E-04   688   0.158E-03 0.369E-06
  28 F= -.48984823E+03 E0= -.48984806E+03  d E =-.292779E-02  mag=    -1.9994
       N       E                     dE             d eps       ncg     rms          ort
SDA:   1    -0.485995074262E+03    0.56413E-01    0.00000E+00   688   0.143E+00 0.000E+00
CGA:   2    -0.486040585114E+03   -0.45511E-01   -0.45512E-01   688   0.429E-01-0.703E-05
CGA:   3    -0.486050759725E+03   -0.10175E-01   -0.10175E-01   688   0.965E-02-0.216E-05
CGA:   4    -0.486052736062E+03   -0.19763E-02   -0.19766E-02   688   0.230E-02 0.467E-05
CGA:   5    -0.486053216511E+03   -0.48045E-03   -0.48045E-03   688   0.706E-03 0.927E-08
CGA:   6    -0.486053383360E+03   -0.16685E-03   -0.16683E-03   688   0.258E-03-0.552E-06
CGA:   7    -0.486053459445E+03   -0.76085E-04   -0.76067E-04   688   0.123E-03 0.512E-06
  29 F= -.48985015E+03 E0= -.48984999E+03  d E =-.192546E-02  mag=    -1.9994
       N       E                     dE             d eps       ncg     rms          ort
SDA:   1    -0.485944122051E+03    0.10926E+00    0.00000E+00   688   0.269E+00 0.000E+00
CGA:   2    -0.486029983622E+03   -0.85862E-01   -0.85864E-01   688   0.811E-01-0.264E-04
CGA:   3    -0.486049206598E+03   -0.19223E-01   -0.19223E-01   688   0.179E-01 0.235E-05
CGA:   4    -0.486052982625E+03   -0.37760E-02   -0.37761E-02   688   0.394E-02 0.571E-05
CGA:   5    -0.486053868974E+03   -0.88635E-03   -0.88635E-03   688   0.113E-02 0.227E-08
CGA:   6    -0.486054159085E+03   -0.29011E-03   -0.29011E-03   688   0.408E-03-0.702E-06
CGA:   7    -0.486054288524E+03   -0.12944E-03   -0.12939E-03   688   0.199E-03 0.940E-06
CGA:   8    -0.486054352035E+03   -0.63511E-04   -0.63504E-04   688   0.868E-04 0.111E-06
  30 F= -.48985110E+03 E0= -.48985094E+03  d E =-.286973E-02  mag=    -1.9994
       N       E                     dE             d eps       ncg     rms          ort
SDA:   1    -0.485993280075E+03    0.61008E-01    0.00000E+00   688   0.155E+00 0.000E+00
CGA:   2    -0.486042089824E+03   -0.48810E-01   -0.48810E-01   688   0.463E-01-0.538E-05
CGA:   3    -0.486053163748E+03   -0.11074E-01   -0.11074E-01   688   0.105E-01-0.108E-05
CGA:   4    -0.486055333024E+03   -0.21693E-02   -0.21694E-02   688   0.221E-02 0.237E-05
CGA:   5    -0.486055825372E+03   -0.49235E-03   -0.49226E-03   688   0.687E-03-0.202E-05
CGA:   6    -0.486055981470E+03   -0.15610E-03   -0.15608E-03   688   0.260E-03-0.470E-06
CGA:   7    -0.486056054531E+03   -0.73061E-04   -0.73052E-04   688   0.115E-03 0.490E-06
  31 F= -.48985292E+03 E0= -.48985278E+03  d E =-.182451E-02  mag=    -1.9995
       N       E                     dE             d eps       ncg     rms          ort
SDA:   1    -0.485909627247E+03    0.14635E+00    0.00000E+00   688   0.363E+00 0.000E+00
CGA:   2    -0.486024077737E+03   -0.11445E+00   -0.11445E+00   688   0.108E+00-0.151E-04
CGA:   3    -0.486050104175E+03   -0.26026E-01   -0.26027E-01   688   0.244E-01 0.421E-05
CGA:   4    -0.486055129775E+03   -0.50256E-02   -0.50256E-02   688   0.530E-02 0.291E-05
CGA:   5    -0.486056341715E+03   -0.12119E-02   -0.12119E-02   688   0.145E-02-0.239E-05
CGA:   6    -0.486056720385E+03   -0.37867E-03   -0.37867E-03   688   0.536E-03-0.721E-06
CGA:   7    -0.486056881097E+03   -0.16071E-03   -0.16068E-03   688   0.269E-03 0.778E-06
CGA:   8    -0.486056962794E+03   -0.81698E-04   -0.81685E-04   688   0.112E-03 0.330E-06
  32 F= -.48985401E+03 E0= -.48985390E+03  d E =-.291725E-02  mag=    -1.9996
       N       E                     dE             d eps       ncg     rms          ort
SDA:   1    -0.485972462634E+03    0.84418E-01    0.00000E+00   688   0.214E+00 0.000E+00
CGA:   2    -0.486039900534E+03   -0.67438E-01   -0.67439E-01   688   0.635E-01-0.965E-05
CGA:   3    -0.486055040631E+03   -0.15140E-01   -0.15140E-01   688   0.143E-01-0.136E-07
CGA:   4    -0.486058062547E+03   -0.30219E-02   -0.30221E-02   688   0.287E-02 0.437E-05
CGA:   5    -0.486058738964E+03   -0.67642E-03   -0.67636E-03   688   0.848E-03-0.206E-05
CGA:   6    -0.486058942565E+03   -0.20360E-03   -0.20361E-03   688   0.347E-03 0.260E-06
CGA:   7    -0.486059036640E+03   -0.94075E-04   -0.94069E-04   688   0.164E-03 0.732E-06
  33 F= -.48985629E+03 E0= -.48985619E+03  d E =-.228047E-02  mag=    -1.9996
       N       E                     dE             d eps       ncg     rms          ort
SDA:   1    -0.485932428756E+03    0.12651E+00    0.00000E+00   688   0.314E+00 0.000E+00
CGA:   2    -0.486031616408E+03   -0.99188E-01   -0.99189E-01   688   0.931E-01-0.200E-04
CGA:   3    -0.486053936199E+03   -0.22320E-01   -0.22320E-01   688   0.210E-01 0.331E-05
CGA:   4    -0.486058299396E+03   -0.43632E-02   -0.43633E-02   688   0.450E-02 0.520E-05
CGA:   5    -0.486059341516E+03   -0.10421E-02   -0.10420E-02   688   0.126E-02-0.238E-05
CGA:   6    -0.486059668109E+03   -0.32659E-03   -0.32659E-03   688   0.486E-03 0.287E-06
CGA:   7    -0.486059810516E+03   -0.14241E-03   -0.14238E-03   688   0.252E-03 0.903E-06
CGA:   8    -0.486059885852E+03   -0.75337E-04   -0.75328E-04   688   0.106E-03 0.248E-06
  34 F= -.48985739E+03 E0= -.48985730E+03  d E =-.337806E-02  mag=    -1.9997
       N       E                     dE             d eps       ncg     rms          ort
SDA:   1    -0.485983676708E+03    0.76134E-01    0.00000E+00   688   0.193E+00 0.000E+00
CGA:   2    -0.486044261031E+03   -0.60584E-01   -0.60586E-01   688   0.577E-01-0.142E-04
CGA:   3    -0.486057976192E+03   -0.13715E-01   -0.13715E-01   688   0.131E-01-0.952E-06
CGA:   4    -0.486060759953E+03   -0.27838E-02   -0.27839E-02   688   0.255E-02 0.467E-05
CGA:   5    -0.486061384286E+03   -0.62433E-03   -0.62429E-03   688   0.710E-03-0.188E-05
CGA:   6    -0.486061570349E+03   -0.18606E-03   -0.18607E-03   688   0.290E-03 0.579E-06
CGA:   7    -0.486061652717E+03   -0.82368E-04   -0.82359E-04   688   0.154E-03 0.460E-06
  35 F= -.48985932E+03 E0= -.48985921E+03  d E =-.193388E-02  mag=    -1.9996
       N       E                     dE             d eps       ncg     rms          ort
SDA:   1    -0.485940510803E+03    0.12106E+00    0.00000E+00   688   0.301E+00 0.000E+00
CGA:   2    -0.486035103074E+03   -0.94592E-01   -0.94595E-01   688   0.900E-01-0.321E-04
CGA:   3    -0.486056538857E+03   -0.21436E-01   -0.21436E-01   688   0.205E-01 0.304E-05
CGA:   4    -0.486060800908E+03   -0.42621E-02   -0.42621E-02   688   0.448E-02 0.576E-05
CGA:   5    -0.486061810961E+03   -0.10101E-02   -0.10100E-02   688   0.135E-02-0.199E-05
CGA:   6    -0.486062133805E+03   -0.32284E-03   -0.32285E-03   688   0.527E-03 0.297E-07
CGA:   7    -0.486062285304E+03   -0.15150E-03   -0.15147E-03   688   0.251E-03 0.101E-05
CGA:   8    -0.486062368132E+03   -0.82829E-04   -0.82835E-04   688   0.101E-03-0.120E-06
  36 F= -.48986025E+03 E0= -.48986009E+03  d E =-.285710E-02  mag=    -1.9994
       N       E                     dE             d eps       ncg     rms          ort
SDA:   1    -0.485973134710E+03    0.89151E-01    0.00000E+00   688   0.226E+00 0.000E+00
CGA:   2    -0.486043297098E+03   -0.70162E-01   -0.70162E-01   688   0.676E-01-0.196E-05
CGA:   3    -0.486059472030E+03   -0.16175E-01   -0.16175E-01   688   0.158E-01-0.748E-06
CGA:   4    -0.486062711048E+03   -0.32390E-02   -0.32390E-02   688   0.320E-02 0.149E-05
CGA:   5    -0.486063460689E+03   -0.74964E-03   -0.74955E-03   688   0.882E-03-0.294E-05
CGA:   6    -0.486063681002E+03   -0.22031E-03   -0.22031E-03   688   0.339E-03-0.344E-06
CGA:   7    -0.486063776387E+03   -0.95385E-04   -0.95376E-04   688   0.164E-03 0.470E-06
  37 F= -.48986183E+03 E0= -.48986165E+03  d E =-.158418E-02  mag=    -1.9993
       N       E                     dE             d eps       ncg     rms          ort
SDA:   1    -0.486045219998E+03    0.18461E-01    0.00000E+00   688   0.467E-01 0.000E+00
CGA:   2    -0.486059680215E+03   -0.14460E-01   -0.14460E-01   688   0.141E-01-0.132E-05
CGA:   3    -0.486063017027E+03   -0.33368E-02   -0.33368E-02   688   0.355E-02-0.167E-05
CGA:   4    -0.486063684622E+03   -0.66759E-03   -0.66765E-03   688   0.825E-03 0.908E-06
CGA:   5    -0.486063870776E+03   -0.18615E-03   -0.18611E-03   688   0.236E-03-0.123E-05
CGA:   6    -0.486063929799E+03   -0.59023E-04   -0.59018E-04   688   0.933E-04-0.465E-06
  38 F= -.48986206E+03 E0= -.48986188E+03  d E =-.181698E-02  mag=    -1.9993
       N       E                     dE             d eps       ncg     rms          ort
SDA:   1    -0.485973417179E+03    0.90454E-01    0.00000E+00   688   0.231E+00 0.000E+00
CGA:   2    -0.486044900060E+03   -0.71483E-01   -0.71485E-01   688   0.685E-01-0.239E-04
CGA:   3    -0.486061314289E+03   -0.16414E-01   -0.16415E-01   688   0.153E-01 0.224E-05
CGA:   4    -0.486064605690E+03   -0.32914E-02   -0.32915E-02   688   0.317E-02 0.428E-05
CGA:   5    -0.486065340051E+03   -0.73436E-03   -0.73431E-03   688   0.981E-03-0.170E-05
CGA:   6    -0.486065566324E+03   -0.22627E-03   -0.22627E-03   688   0.385E-03-0.182E-06
CGA:   7    -0.486065677124E+03   -0.11080E-03   -0.11077E-03   688   0.176E-03 0.960E-06
CGA:   8    -0.486065736846E+03   -0.59722E-04   -0.59712E-04   688   0.714E-04 0.120E-06
  39 F= -.48986400E+03 E0= -.48986385E+03  d E =-.193723E-02  mag=    -1.9994
       N       E                     dE             d eps       ncg     rms          ort
SDA:   1    -0.485928138505E+03    0.13754E+00    0.00000E+00   688   0.346E+00 0.000E+00
CGA:   2    -0.486035363889E+03   -0.10723E+00   -0.10723E+00   688   0.102E+00-0.435E-04
CGA:   3    -0.486059871821E+03   -0.24508E-01   -0.24509E-01   688   0.232E-01 0.747E-05
CGA:   4    -0.486064771672E+03   -0.48999E-02   -0.48999E-02   688   0.454E-02 0.523E-05
CGA:   5    -0.486065858268E+03   -0.10866E-02   -0.10865E-02   688   0.129E-02-0.203E-05
CGA:   6    -0.486066173342E+03   -0.31507E-03   -0.31507E-03   688   0.513E-03-0.334E-07
CGA:   7    -0.486066316621E+03   -0.14328E-03   -0.14326E-03   688   0.246E-03 0.987E-06
CGA:   8    -0.486066395712E+03   -0.79091E-04   -0.79081E-04   688   0.102E-03 0.167E-06
  40 F= -.48986482E+03 E0= -.48986470E+03  d E =-.275180E-02  mag=    -1.9996
       N       E                     dE             d eps       ncg     rms          ort
SDA:   1    -0.485975892336E+03    0.90424E-01    0.00000E+00   688   0.233E+00 0.000E+00
CGA:   2    -0.486047082891E+03   -0.71191E-01   -0.71192E-01   688   0.689E-01-0.253E-04
CGA:   3    -0.486063723638E+03   -0.16641E-01   -0.16641E-01   688   0.157E-01 0.381E-05
CGA:   4    -0.486067031554E+03   -0.33079E-02   -0.33080E-02   688   0.300E-02 0.456E-05
CGA:   5    -0.486067766062E+03   -0.73451E-03   -0.73448E-03   688   0.835E-03-0.104E-05
CGA:   6    -0.486067976531E+03   -0.21047E-03   -0.21046E-03   688   0.333E-03-0.711E-06
CGA:   7    -0.486068070598E+03   -0.94067E-04   -0.94047E-04   688   0.166E-03 0.114E-05
  41 F= -.48986645E+03 E0= -.48986633E+03  d E =-.163456E-02  mag=    -1.9996
       N       E                     dE             d eps       ncg     rms          ort
SDA:   1    -0.485879628609E+03    0.18835E+00    0.00000E+00   688   0.480E+00 0.000E+00
CGA:   2    -0.486025794570E+03   -0.14617E+00   -0.14617E+00   688   0.142E+00-0.732E-04
CGA:   3    -0.486060014267E+03   -0.34220E-01   -0.34221E-01   688   0.327E-01 0.208E-04
CGA:   4    -0.486066747039E+03   -0.67328E-02   -0.67326E-02   688   0.687E-02 0.488E-05
CGA:   5    -0.486068327862E+03   -0.15808E-02   -0.15808E-02   688   0.198E-02-0.271E-06
CGA:   6    -0.486068808025E+03   -0.48016E-03   -0.48013E-03   688   0.746E-03-0.150E-05
CGA:   7    -0.486069023711E+03   -0.21569E-03   -0.21565E-03   688   0.363E-03 0.151E-05
CGA:   8    -0.486069139900E+03   -0.11619E-03   -0.11615E-03   688   0.152E-03 0.795E-06
CGA:   9    -0.486069189451E+03   -0.49550E-04   -0.49568E-04   688   0.497E-04-0.299E-06
  42 F= -.48986751E+03 E0= -.48986739E+03  d E =-.269155E-02  mag=    -1.9996
       N       E                     dE             d eps       ncg     rms          ort
SDA:   1    -0.486016436229E+03    0.52704E-01    0.00000E+00   688   0.138E+00 0.000E+00
CGA:   2    -0.486058265844E+03   -0.41830E-01   -0.41830E-01   688   0.404E-01-0.539E-05
CGA:   3    -0.486068090505E+03   -0.98247E-02   -0.98248E-02   688   0.938E-02 0.107E-05
CGA:   4    -0.486069996954E+03   -0.19064E-02   -0.19065E-02   688   0.193E-02 0.884E-06
CGA:   5    -0.486070429954E+03   -0.43300E-03   -0.43295E-03   688   0.543E-03-0.118E-05
CGA:   6    -0.486070559998E+03   -0.13004E-03   -0.13001E-03   688   0.193E-03-0.119E-05
CGA:   7    -0.486070615654E+03   -0.55656E-04   -0.55644E-04   688   0.919E-04 0.486E-06
  43 F= -.48986884E+03 E0= -.48986873E+03  d E =-.133602E-02  mag=    -1.9996
       N       E                     dE             d eps       ncg     rms          ort
SDA:   1    -0.485938334519E+03    0.13223E+00    0.00000E+00   688   0.340E+00 0.000E+00
CGA:   2    -0.486041116783E+03   -0.10278E+00   -0.10278E+00   688   0.995E-01-0.630E-05
CGA:   3    -0.486065281315E+03   -0.24165E-01   -0.24165E-01   688   0.235E-01 0.722E-05
CGA:   4    -0.486069964030E+03   -0.46827E-02   -0.46825E-02   688   0.498E-02 0.136E-05
CGA:   5    -0.486071101605E+03   -0.11376E-02   -0.11375E-02   688   0.134E-02-0.132E-05
CGA:   6    -0.486071438150E+03   -0.33654E-03   -0.33652E-03   688   0.480E-03-0.207E-05
CGA:   7    -0.486071579141E+03   -0.14099E-03   -0.14096E-03   688   0.236E-03 0.101E-05
CGA:   8    -0.486071652798E+03   -0.73657E-04   -0.73641E-04   688   0.102E-03 0.352E-06
  44 F= -.48986974E+03 E0= -.48986962E+03  d E =-.223033E-02  mag=    -1.9996
       N       E                     dE             d eps       ncg     rms          ort
SDA:   1    -0.485999018912E+03    0.72560E-01    0.00000E+00   688   0.191E+00 0.000E+00
CGA:   2    -0.486056409514E+03   -0.57391E-01   -0.57391E-01   688   0.555E-01-0.131E-04
CGA:   3    -0.486069917218E+03   -0.13508E-01   -0.13508E-01   688   0.129E-01 0.173E-05
CGA:   4    -0.486072587308E+03   -0.26701E-02   -0.26702E-02   688   0.246E-02 0.421E-05
CGA:   5    -0.486073184607E+03   -0.59730E-03   -0.59728E-03   688   0.668E-03-0.765E-06
CGA:   6    -0.486073354225E+03   -0.16962E-03   -0.16960E-03   688   0.259E-03-0.129E-05
CGA:   7    -0.486073427455E+03   -0.73230E-04   -0.73214E-04   688   0.133E-03 0.839E-06
  45 F= -.48987134E+03 E0= -.48987123E+03  d E =-.160436E-02  mag=    -1.9996
       N       E                     dE             d eps       ncg     rms          ort
SDA:   1    -0.485583909353E+03    0.48944E+00    0.00000E+00   688   0.126E+01 0.000E+00
CGA:   2    -0.485962714638E+03   -0.37881E+00   -0.37882E+00   688   0.367E+00-0.260E-03
CGA:   3    -0.486052089969E+03   -0.89375E-01   -0.89381E-01   688   0.850E-01 0.103E-03
CGA:   4    -0.486069570566E+03   -0.17481E-01   -0.17479E-01   688   0.175E-01 0.236E-05
CGA:   5    -0.486073575749E+03   -0.40052E-02   -0.40052E-02   688   0.486E-02 0.228E-05
CGA:   6    -0.486074759696E+03   -0.11839E-02   -0.11839E-02   688   0.174E-02-0.524E-05
CGA:   7    -0.486075267749E+03   -0.50805E-03   -0.50798E-03   688   0.849E-03 0.247E-05
CGA:   8    -0.486075531131E+03   -0.26338E-03   -0.26333E-03   688   0.370E-03 0.118E-05
CGA:   9    -0.486075647677E+03   -0.11655E-03   -0.11659E-03   688   0.124E-03-0.100E-05
CGA:  10    -0.486075685905E+03   -0.38228E-04   -0.38185E-04   688   0.380E-04 0.107E-05
  46 F= -.48987316E+03 E0= -.48987307E+03  d E =-.341762E-02  mag=    -1.9997
       N       E                     dE             d eps       ncg     rms          ort
SDA:   1    -0.485968170467E+03    0.10748E+00    0.00000E+00   688   0.284E+00 0.000E+00
CGA:   2    -0.486052301973E+03   -0.84132E-01   -0.84132E-01   688   0.813E-01-0.256E-04
CGA:   3    -0.486072301351E+03   -0.19999E-01   -0.20000E-01   688   0.188E-01 0.594E-05
CGA:   4    -0.486076179969E+03   -0.38786E-02   -0.38786E-02   688   0.379E-02 0.323E-05
CGA:   5    -0.486077048826E+03   -0.86886E-03   -0.86885E-03   688   0.103E-02-0.237E-06
CGA:   6    -0.486077298801E+03   -0.24998E-03   -0.24992E-03   688   0.370E-03-0.235E-05
CGA:   7    -0.486077403959E+03   -0.10516E-03   -0.10514E-03   688   0.182E-03 0.853E-06
CGA:   8    -0.486077459894E+03   -0.55935E-04   -0.55920E-04   688   0.791E-04 0.362E-06
  47 F= -.48987472E+03 E0= -.48987463E+03  d E =-.156777E-02  mag=    -1.9997
       N       E                     dE             d eps       ncg     rms          ort
SDA:   1    -0.485511298276E+03    0.56611E+00    0.00000E+00   688   0.147E+01 0.000E+00
CGA:   2    -0.485948353444E+03   -0.43706E+00   -0.43707E+00   688   0.423E+00-0.309E-03
CGA:   3    -0.486052149200E+03   -0.10380E+00   -0.10380E+00   688   0.985E-01 0.119E-03
CGA:   4    -0.486072478786E+03   -0.20330E-01   -0.20328E-01   688   0.194E-01 0.266E-05
CGA:   5    -0.486077027099E+03   -0.45483E-02   -0.45484E-02   688   0.529E-02 0.236E-05
CGA:   6    -0.486078338273E+03   -0.13112E-02   -0.13111E-02   688   0.186E-02-0.682E-05
CGA:   7    -0.486078896826E+03   -0.55855E-03   -0.55843E-03   688   0.874E-03 0.361E-05
CGA:   8    -0.486079177286E+03   -0.28046E-03   -0.28045E-03   688   0.379E-03 0.142E-06
CGA:   9    -0.486079296756E+03   -0.11947E-03   -0.11950E-03   688   0.128E-03-0.574E-06
CGA:  10    -0.486079335747E+03   -0.38991E-04   -0.38953E-04   688   0.403E-04 0.120E-05
  48 F= -.48987612E+03 E0= -.48987603E+03  d E =-.296409E-02  mag=    -1.9997
       N       E                     dE             d eps       ncg     rms          ort
SDA:   1    -0.485858949616E+03    0.22035E+00    0.00000E+00   688   0.583E+00 0.000E+00
CGA:   2    -0.486030181020E+03   -0.17123E+00   -0.17123E+00   688   0.166E+00-0.518E-04
CGA:   3    -0.486071082617E+03   -0.40902E-01   -0.40903E-01   688   0.389E-01 0.205E-04
CGA:   4    -0.486079036387E+03   -0.79538E-02   -0.79533E-02   688   0.780E-02 0.286E-05
CGA:   5    -0.486080845494E+03   -0.18091E-02   -0.18091E-02   688   0.202E-02-0.415E-06
CGA:   6    -0.486081361937E+03   -0.51644E-03   -0.51638E-03   688   0.685E-03-0.381E-05
CGA:   7    -0.486081574623E+03   -0.21269E-03   -0.21261E-03   688   0.327E-03 0.201E-05
CGA:   8    -0.486081678753E+03   -0.10413E-03   -0.10415E-03   688   0.149E-03-0.369E-06
CGA:   9    -0.486081724063E+03   -0.45310E-04   -0.45313E-04   688   0.515E-04-0.857E-07
  49 F= -.48987828E+03 E0= -.48987818E+03  d E =-.216014E-02  mag=    -1.9996
       N       E                     dE             d eps       ncg     rms          ort
SDA:   1    -0.485732882870E+03    0.34880E+00    0.00000E+00   688   0.916E+00 0.000E+00
CGA:   2    -0.486001946724E+03   -0.26906E+00   -0.26907E+00   688   0.260E+00-0.102E-03
CGA:   3    -0.486066203242E+03   -0.64257E-01   -0.64260E-01   688   0.613E-01 0.447E-04
CGA:   4    -0.486078730236E+03   -0.12527E-01   -0.12526E-01   688   0.123E-01 0.224E-05
CGA:   5    -0.486081556004E+03   -0.28258E-02   -0.28258E-02   688   0.333E-02 0.890E-06
CGA:   6    -0.486082382695E+03   -0.82669E-03   -0.82658E-03   688   0.113E-02-0.523E-05
CGA:   7    -0.486082727682E+03   -0.34499E-03   -0.34490E-03   688   0.524E-03 0.238E-05
CGA:   8    -0.486082898082E+03   -0.17040E-03   -0.17040E-03   688   0.230E-03 0.361E-07
CGA:   9    -0.486082970715E+03   -0.72633E-04   -0.72646E-04   688   0.788E-04-0.319E-06
  50 F= -.48987923E+03 E0= -.48987911E+03  d E =-.311275E-02  mag=    -1.9996
       N       E                     dE             d eps       ncg     rms          ort
SDA:   1    -0.485840718827E+03    0.24218E+00    0.00000E+00   688   0.644E+00 0.000E+00
CGA:   2    -0.486028496375E+03   -0.18778E+00   -0.18778E+00   688   0.182E+00-0.985E-04
CGA:   3    -0.486073480459E+03   -0.44984E-01   -0.44986E-01   688   0.429E-01 0.316E-04
CGA:   4    -0.486082416994E+03   -0.89365E-02   -0.89362E-02   688   0.844E-02 0.551E-05
CGA:   5    -0.486084358516E+03   -0.19415E-02   -0.19416E-02   688   0.238E-02 0.132E-05
CGA:   6    -0.486084928246E+03   -0.56973E-03   -0.56963E-03   688   0.823E-03-0.325E-05
CGA:   7    -0.486085175499E+03   -0.24725E-03   -0.24719E-03   688   0.390E-03 0.199E-05
CGA:   8    -0.486085300697E+03   -0.12520E-03   -0.12518E-03   688   0.176E-03 0.471E-06
CGA:   9    -0.486085355595E+03   -0.54898E-04   -0.54918E-04   688   0.606E-04-0.523E-06
  51 F= -.48988143E+03 E0= -.48988131E+03  d E =-.220078E-02  mag=    -1.9995
       N       E                     dE             d eps       ncg     rms          ort
SDA:   1    -0.485961206533E+03    0.12409E+00    0.00000E+00   688   0.329E+00 0.000E+00
CGA:   2    -0.486056970290E+03   -0.95764E-01   -0.95765E-01   688   0.929E-01-0.379E-04
CGA:   3    -0.486079907213E+03   -0.22937E-01   -0.22938E-01   688   0.218E-01 0.905E-05
CGA:   4    -0.486084452208E+03   -0.45450E-02   -0.45451E-02   688   0.426E-02 0.469E-05
CGA:   5    -0.486085435055E+03   -0.98285E-03   -0.98287E-03   688   0.120E-02 0.564E-06
CGA:   6    -0.486085724392E+03   -0.28934E-03   -0.28927E-03   688   0.415E-03-0.225E-05
CGA:   7    -0.486085851539E+03   -0.12715E-03   -0.12709E-03   688   0.192E-03 0.147E-05
CGA:   8    -0.486085915918E+03   -0.64379E-04   -0.64374E-04   688   0.852E-04 0.950E-07
  52 F= -.48988186E+03 E0= -.48988173E+03  d E =-.262566E-02  mag=    -1.9995
       N       E                     dE             d eps       ncg     rms          ort
SDA:   1    -0.485818125389E+03    0.26773E+00    0.00000E+00   688   0.714E+00 0.000E+00
CGA:   2    -0.486025868383E+03   -0.20774E+00   -0.20774E+00   688   0.199E+00-0.566E-04
CGA:   3    -0.486075481262E+03   -0.49613E-01   -0.49615E-01   688   0.469E-01 0.226E-04
CGA:   4    -0.486085165004E+03   -0.96837E-02   -0.96833E-02   688   0.907E-02 0.478E-05
CGA:   5    -0.486087332394E+03   -0.21674E-02   -0.21674E-02   688   0.245E-02-0.135E-05
CGA:   6    -0.486087937129E+03   -0.60474E-03   -0.60468E-03   688   0.915E-03-0.258E-05
CGA:   7    -0.486088198000E+03   -0.26087E-03   -0.26084E-03   688   0.443E-03 0.161E-05
CGA:   8    -0.486088336621E+03   -0.13862E-03   -0.13860E-03   688   0.188E-03 0.395E-06
CGA:   9    -0.486088397611E+03   -0.60990E-04   -0.61007E-04   688   0.613E-04-0.336E-06
  53 F= -.48988421E+03 E0= -.48988408E+03  d E =-.235467E-02  mag=    -1.9995
       N       E                     dE             d eps       ncg     rms          ort
SDA:   1    -0.485297254170E+03    0.79108E+00    0.00000E+00   688   0.210E+01 0.000E+00
CGA:   2    -0.485906417640E+03   -0.60916E+00   -0.60917E+00   688   0.585E+00-0.282E-03
CGA:   3    -0.486052075865E+03   -0.14566E+00   -0.14567E+00   688   0.139E+00 0.169E-03
CGA:   4    -0.486080556607E+03   -0.28481E-01   -0.28477E-01   688   0.275E-01 0.236E-05
CGA:   5    -0.486086938439E+03   -0.63818E-02   -0.63819E-02   688   0.741E-02 0.180E-05
CGA:   6    -0.486088765875E+03   -0.18274E-02   -0.18273E-02   688   0.256E-02-0.591E-05
CGA:   7    -0.486089542727E+03   -0.77685E-03   -0.77673E-03   688   0.120E-02 0.378E-05
CGA:   8    -0.486089930454E+03   -0.38773E-03   -0.38770E-03   688   0.520E-03 0.540E-06
CGA:   9    -0.486090095507E+03   -0.16505E-03   -0.16507E-03   688   0.172E-03-0.312E-06
CGA:  10    -0.486090149020E+03   -0.53513E-04   -0.53464E-04   688   0.529E-04 0.139E-05
  54 F= -.48988573E+03 E0= -.48988560E+03  d E =-.387477E-02  mag=    -1.9995
       N       E                     dE             d eps       ncg     rms          ort
SDA:   1    -0.485884548467E+03    0.20555E+00    0.00000E+00   688   0.551E+00 0.000E+00
CGA:   2    -0.486044046196E+03   -0.15950E+00   -0.15950E+00   688   0.154E+00-0.103E-04
CGA:   3    -0.486082483062E+03   -0.38437E-01   -0.38438E-01   688   0.367E-01 0.780E-05
CGA:   4    -0.486089977875E+03   -0.74948E-02   -0.74945E-02   688   0.726E-02 0.506E-05
CGA:   5    -0.486091689262E+03   -0.17114E-02   -0.17113E-02   688   0.184E-02-0.256E-05
CGA:   6    -0.486092172970E+03   -0.48371E-03   -0.48369E-03   688   0.617E-03-0.153E-05
CGA:   7    -0.486092377029E+03   -0.20406E-03   -0.20399E-03   688   0.289E-03 0.111E-05
CGA:   8    -0.486092474851E+03   -0.97823E-04   -0.97828E-04   688   0.126E-03-0.837E-07
  55 F= -.48988793E+03 E0= -.48988777E+03  d E =-.220117E-02  mag=    -1.9994
       N       E                     dE             d eps       ncg     rms          ort
SDA:   1    -0.485834540980E+03    0.25784E+00    0.00000E+00   688   0.685E+00 0.000E+00
CGA:   2    -0.486033154569E+03   -0.19861E+00   -0.19861E+00   688   0.191E+00-0.148E-04
CGA:   3    -0.486080937576E+03   -0.47783E-01   -0.47784E-01   688   0.456E-01 0.131E-04
CGA:   4    -0.486090290664E+03   -0.93531E-02   -0.93528E-02   688   0.892E-02 0.576E-05
CGA:   5    -0.486092396594E+03   -0.21059E-02   -0.21058E-02   688   0.245E-02-0.264E-05
CGA:   6    -0.486092997476E+03   -0.60088E-03   -0.60084E-03   688   0.900E-03-0.166E-05
CGA:   7    -0.486093259585E+03   -0.26211E-03   -0.26209E-03   688   0.430E-03 0.967E-06
CGA:   8    -0.486093398236E+03   -0.13865E-03   -0.13863E-03   688   0.181E-03 0.385E-06
CGA:   9    -0.486093457935E+03   -0.59700E-04   -0.59697E-04   688   0.580E-04 0.582E-07
  56 F= -.48988877E+03 E0= -.48988858E+03  d E =-.304022E-02  mag=    -1.9993
       N       E                     dE             d eps       ncg     rms          ort
SDA:   1    -0.485947618098E+03    0.14578E+00    0.00000E+00   688   0.393E+00 0.000E+00
CGA:   2    -0.486060791827E+03   -0.11317E+00   -0.11317E+00   688   0.110E+00-0.273E-04
CGA:   3    -0.486088106957E+03   -0.27315E-01   -0.27316E-01   688   0.259E-01 0.640E-05
CGA:   4    -0.486093556407E+03   -0.54495E-02   -0.54496E-02   688   0.498E-02 0.777E-05
CGA:   5    -0.486094732361E+03   -0.11760E-02   -0.11759E-02   688   0.136E-02-0.145E-05
CGA:   6    -0.486095068828E+03   -0.33647E-03   -0.33646E-03   688   0.475E-03-0.345E-06
CGA:   7    -0.486095217533E+03   -0.14870E-03   -0.14866E-03   688   0.226E-03 0.103E-05
CGA:   8    -0.486095292918E+03   -0.75385E-04   -0.75379E-04   688   0.996E-04 0.111E-06
  57 F= -.48989048E+03 E0= -.48989029E+03  d E =-.170434E-02  mag=    -1.9993
       N       E                     dE             d eps       ncg     rms          ort
SDA:   1    -0.486020332838E+03    0.74885E-01    0.00000E+00   688   0.201E+00 0.000E+00
CGA:   2    -0.486078144272E+03   -0.57811E-01   -0.57812E-01   688   0.560E-01-0.103E-04
CGA:   3    -0.486092071744E+03   -0.13927E-01   -0.13928E-01   688   0.133E-01-0.103E-05
CGA:   4    -0.486094867405E+03   -0.27957E-02   -0.27960E-02   688   0.247E-02 0.609E-05
CGA:   5    -0.486095474565E+03   -0.60716E-03   -0.60712E-03   688   0.672E-03-0.135E-05
CGA:   6    -0.486095643290E+03   -0.16872E-03   -0.16872E-03   688   0.258E-03-0.548E-07
CGA:   7    -0.486095719477E+03   -0.76187E-04   -0.76173E-04   688   0.128E-03 0.637E-06
  58 F= -.48989081E+03 E0= -.48989062E+03  d E =-.203540E-02  mag=    -1.9993
       N       E                     dE             d eps       ncg     rms          ort
SDA:   1    -0.486028032910E+03    0.67610E-01    0.00000E+00   688   0.184E+00 0.000E+00
CGA:   2    -0.486081266615E+03   -0.53234E-01   -0.53234E-01   688   0.508E-01-0.546E-05
CGA:   3    -0.486093955735E+03   -0.12689E-01   -0.12689E-01   688   0.123E-01-0.149E-05
CGA:   4    -0.486096444987E+03   -0.24893E-02   -0.24894E-02   688   0.249E-02 0.464E-05
CGA:   5    -0.486097035845E+03   -0.59086E-03   -0.59079E-03   688   0.669E-03-0.196E-05
CGA:   6    -0.486097206522E+03   -0.17068E-03   -0.17067E-03   688   0.243E-03-0.310E-06
CGA:   7    -0.486097281841E+03   -0.75319E-04   -0.75292E-04   688   0.118E-03 0.665E-06
  59 F= -.48989228E+03 E0= -.48989210E+03  d E =-.146771E-02  mag=    -1.9993
       N       E                     dE             d eps       ncg     rms          ort
SDA:   1    -0.485490664958E+03    0.60654E+00    0.00000E+00   688   0.162E+01 0.000E+00
CGA:   2    -0.485958501076E+03   -0.46784E+00   -0.46784E+00   688   0.446E+00-0.106E-03
CGA:   3    -0.486070047632E+03   -0.11155E+00   -0.11155E+00   688   0.106E+00 0.103E-03
CGA:   4    -0.486091916199E+03   -0.21869E-01   -0.21866E-01   688   0.208E-01 0.101E-04
CGA:   5    -0.486096880227E+03   -0.49640E-02   -0.49640E-02   688   0.537E-02-0.397E-05
CGA:   6    -0.486098277367E+03   -0.13971E-02   -0.13971E-02   688   0.185E-02-0.194E-06
CGA:   7    -0.486098875647E+03   -0.59828E-03   -0.59817E-03   688   0.880E-03 0.192E-05
CGA:   8    -0.486099166874E+03   -0.29123E-03   -0.29120E-03   688   0.380E-03 0.391E-06
CGA:   9    -0.486099286736E+03   -0.11986E-03   -0.11983E-03   688   0.119E-03 0.894E-06
CGA:  10    -0.486099324905E+03   -0.38168E-04   -0.38139E-04   688   0.363E-04 0.653E-06
  60 F= -.48989403E+03 E0= -.48989390E+03  d E =-.322014E-02  mag=    -1.9995
       N       E                     dE             d eps       ncg     rms          ort
SDA:   1    -0.486024809438E+03    0.74477E-01    0.00000E+00   688   0.203E+00 0.000E+00
CGA:   2    -0.486083195639E+03   -0.58386E-01   -0.58386E-01   688   0.559E-01-0.846E-05
CGA:   3    -0.486097166236E+03   -0.13971E-01   -0.13971E-01   688   0.134E-01-0.502E-06
CGA:   4    -0.486099917488E+03   -0.27513E-02   -0.27515E-02   688   0.260E-02 0.482E-05
CGA:   5    -0.486100537073E+03   -0.61958E-03   -0.61950E-03   688   0.651E-03-0.226E-05
CGA:   6    -0.486100708027E+03   -0.17095E-03   -0.17095E-03   688   0.224E-03-0.141E-06
CGA:   7    -0.486100779525E+03   -0.71498E-04   -0.71477E-04   688   0.111E-03 0.484E-06
  61 F= -.48989535E+03 E0= -.48989522E+03  d E =-.131815E-02  mag=    -1.9995
       N       E                     dE             d eps       ncg     rms          ort
SDA:   1    -0.485686126419E+03    0.41458E+00    0.00000E+00   688   0.111E+01 0.000E+00
CGA:   2    -0.486006062151E+03   -0.31994E+00   -0.31994E+00   688   0.306E+00-0.922E-04
CGA:   3    -0.486082561550E+03   -0.76499E-01   -0.76504E-01   688   0.738E-01 0.548E-04
CGA:   4    -0.486097617670E+03   -0.15056E-01   -0.15055E-01   688   0.147E-01 0.105E-04
CGA:   5    -0.486101061814E+03   -0.34441E-02   -0.34441E-02   688   0.395E-02-0.336E-05
CGA:   6    -0.486102044089E+03   -0.98228E-03   -0.98226E-03   688   0.141E-02-0.791E-06
CGA:   7    -0.486102462721E+03   -0.41863E-03   -0.41859E-03   688   0.676E-03 0.160E-05
CGA:   8    -0.486102679834E+03   -0.21711E-03   -0.21708E-03   688   0.285E-03 0.554E-06
CGA:   9    -0.486102773033E+03   -0.93199E-04   -0.93166E-04   688   0.889E-04 0.646E-06
  62 F= -.48989702E+03 E0= -.48989688E+03  d E =-.298603E-02  mag=    -1.9995
       N       E                     dE             d eps       ncg     rms          ort
SDA:   1    -0.486025402380E+03    0.77277E-01    0.00000E+00   688   0.211E+00 0.000E+00
CGA:   2    -0.486086253311E+03   -0.60851E-01   -0.60851E-01   688   0.593E-01-0.218E-04
CGA:   3    -0.486100898875E+03   -0.14646E-01   -0.14646E-01   688   0.141E-01 0.247E-05
CGA:   4    -0.486103860361E+03   -0.29615E-02   -0.29618E-02   688   0.273E-02 0.755E-05
CGA:   5    -0.486104487700E+03   -0.62734E-03   -0.62732E-03   688   0.798E-03-0.487E-06
CGA:   6    -0.486104674704E+03   -0.18700E-03   -0.18700E-03   688   0.283E-03 0.100E-07
CGA:   7    -0.486104759784E+03   -0.85081E-04   -0.85053E-04   688   0.138E-03 0.968E-06
  63 F= -.48989884E+03 E0= -.48989870E+03  d E =-.182593E-02  mag=    -1.9995
