 vasp.5.4.4.18Apr17-6-g9f103f2a35 (build Nov  8 2022 18:58:45) complex           
 executed on             LinuxGNU date 2023.04.13  15:54:37
 running on   48 total cores
 distrk:  each k-point on   48 cores,    1 groups
 distr:  one band on NCORES_PER_BAND=  12 cores,    4 groups


--------------------------------------------------------------------------------------------------------


 INCAR:
 POTCAR:    PAW_PBE C 08Apr2002                   
 POTCAR:    PAW_PBE N 08Apr2002                   
 POTCAR:    PAW_PBE Ge_d 03Jul2007                
 POTCAR:    PAW_PBE C 08Apr2002                   
 POTCAR:    PAW_PBE O 08Apr2002                   
 POTCAR:    PAW_PBE C 08Apr2002                   
   SHA256 =  253f7b50bb8d59471dbedb8285d89021f4a42ed1a2c5d38a03a736e69125dd95 C/
   COPYR  = (c) Copyright 08Apr2002 Georg Kresse                                
   COPYR  = This file is part of the software VASP. Any use, copying, and all ot
   COPYR  = If you do not have a valid VASP license, you may not use, copy or di
   VRHFIN =C: s2p2                                                              
   LEXCH  = PE                                                                  
   EATOM  =   147.1560 eV,   10.8157 Ry                                         
                                                                                
   TITEL  = PAW_PBE C 08Apr2002                                                 
   LULTRA =        F    use ultrasoft PP ?                                      
   IUNSCR =        1    unscreen: 0-lin 1-nonlin 2-no                           
   RPACOR =    1.200    partial core radius                                     
   POMASS =   12.011; ZVAL   =    4.000    mass and valenz                      
   RCORE  =    1.500    outmost cutoff radius                                   
   RWIGS  =    1.630; RWIGS  =    0.863    wigner-seitz radius (au A)           
   ENMAX  =  400.000; ENMIN  =  300.000 eV                                      
   ICORE  =        2    local potential                                         
   LCOR   =        T    correct aug charges                                     
   LPAW   =        T    paw PP                                                  
   EAUG   =  644.873                                                            
   DEXC   =    0.000                                                            
   RMAX   =    1.529    core radius for proj-oper                               
   RAUG   =    1.300    factor for augmentation sphere                          
   RDEP   =    1.501    radius for radial grids                                 
   RDEPT  =    1.300    core radius for aug-charge                              
                                                                                
   Atomic configuration                                                         
    4 entries                                                                   
     n  l   j            E        occ.                                          
     1  0  0.50      -273.3789   2.0000                                         
     2  0  0.50       -13.7508   2.0000                                         
     2  1  0.50        -5.2854   2.0000                                         
     3  2  1.50        -5.4423   0.0000                                         
   Description                                                                  
     l       E           TYP  RCUT    TYP  RCUT                                 
     0    -13.7508458     23  1.200                                             
     0     -8.2022199     23  1.200                                             
     1     -5.2854383     23  1.500                                             
     1     34.0145650     23  1.500                                             
     2     -5.4423304      7  1.500                                             
  local pseudopotential read in
  partial core-charges read in
  partial kinetic energy density read in
  atomic valenz-charges read in
  non local Contribution for L=           0  read in
    real space projection operators read in
  non local Contribution for L=           0  read in
    real space projection operators read in
  non local Contribution for L=           1  read in
    real space projection operators read in
  non local Contribution for L=           1  read in
    real space projection operators read in
    PAW grid and wavefunctions read in

   number of l-projection  operators is LMAX  =           4
   number of lm-projection operators is LMMAX =           8

 POTCAR:    PAW_PBE N 08Apr2002                   
   SHA256 =  e053789ff3a61a86a1b75d8a110fcc91f86041011e7b0817c7c99e4e8a6349d7 N/
   COPYR  = (c) Copyright 08Apr2002 Georg Kresse                                
   COPYR  = This file is part of the software VASP. Any use, copying, and all ot
   COPYR  = If you do not have a valid VASP license, you may not use, copy or di
   VRHFIN =N: s2p3                                                              
   LEXCH  = PE                                                                  
   EATOM  =   264.5486 eV,   19.4438 Ry                                         
                                                                                
   TITEL  = PAW_PBE N 08Apr2002                                                 
   LULTRA =        F    use ultrasoft PP ?                                      
   IUNSCR =        1    unscreen: 0-lin 1-nonlin 2-no                           
   RPACOR =    1.200    partial core radius                                     
   POMASS =   14.001; ZVAL   =    5.000    mass and valenz                      
   RCORE  =    1.500    outmost cutoff radius                                   
   RWIGS  =    1.400; RWIGS  =    0.741    wigner-seitz radius (au A)           
   ENMAX  =  400.000; ENMIN  =  300.000 eV                                      
   ICORE  =        2    local potential                                         
   LCOR   =        T    correct aug charges                                     
   LPAW   =        T    paw PP                                                  
   EAUG   =  627.112                                                            
   DEXC   =    0.000                                                            
   RMAX   =    1.529    core radius for proj-oper                               
   RAUG   =    1.300    factor for augmentation sphere                          
   RDEP   =    1.514    radius for radial grids                                 
   RDEPT  =    1.338    core radius for aug-charge                              
                                                                                
   Atomic configuration                                                         
    4 entries                                                                   
     n  l   j            E        occ.                                          
     1  0  0.50      -384.7179   2.0000                                         
     2  0  0.50       -18.5828   2.0000                                         
     2  1  0.50        -7.0898   3.0000                                         
     3  2  1.50        -6.8029   0.0000                                         
   Description                                                                  
     l       E           TYP  RCUT    TYP  RCUT                                 
     0    -18.5828119     23  1.200                                             
     0    -13.5018863     23  1.200                                             
     1     -7.0897853     23  1.500                                             
     1      9.5240782     23  1.500                                             
     2     -6.8029130      7  1.500                                             
  local pseudopotential read in
  partial core-charges read in
  partial kinetic energy density read in
  atomic valenz-charges read in
  non local Contribution for L=           0  read in
    real space projection operators read in
  non local Contribution for L=           0  read in
    real space projection operators read in
  non local Contribution for L=           1  read in
    real space projection operators read in
  non local Contribution for L=           1  read in
    real space projection operators read in
    PAW grid and wavefunctions read in

   number of l-projection  operators is LMAX  =           4
   number of lm-projection operators is LMMAX =           8

 POTCAR:    PAW_PBE Ge_d 03Jul2007                
   SHA256 =  944b26c40d2d7c4f4eb1ff3a2e8dbfdd7129146276cd341854bfd5c0e57780ed Ge
   COPYR  = (c) Copyright 03Jul2007 Georg Kresse                                
   COPYR  = This file is part of the software VASP. Any use, copying, and all ot
   COPYR  = If you do not have a valid VASP license, you may not use, copy or di
   VRHFIN =Ge: 3d4s4p                                                           
   LEXCH  = PE                                                                  
   EATOM  =  2596.2402 eV,  190.8183 Ry                                         
                                                                                
   TITEL  = PAW_PBE Ge_d 03Jul2007                                              
   LULTRA =        F    use ultrasoft PP ?                                      
   IUNSCR =        1    unscreen: 0-lin 1-nonlin 2-no                           
   RPACOR =    2.000    partial core radius                                     
   POMASS =   72.610; ZVAL   =   14.000    mass and valenz                      
   RCORE  =    2.300    outmost cutoff radius                                   
   RWIGS  =    2.300; RWIGS  =    1.217    wigner-seitz radius (au A)           
   ENMAX  =  310.294; ENMIN  =  232.720 eV                                      
   ICORE  =        3    local potential                                         
   LCOR   =        T    correct aug charges                                     
   LPAW   =        T    paw PP                                                  
   EAUG   =  531.356                                                            
   DEXC   =    0.000                                                            
   RMAX   =    2.342    core radius for proj-oper                               
   RAUG   =    1.300    factor for augmentation sphere                          
   RDEP   =    2.318    radius for radial grids                                 
   RDEPT  =    1.783    core radius for aug-charge                              
                                                                                
   Atomic configuration                                                         
    9 entries                                                                   
     n  l   j            E        occ.                                          
     1  0  0.50    -10959.8463   2.0000                                         
     2  0  0.50     -1371.6056   2.0000                                         
     2  1  1.50     -1198.4791   6.0000                                         
     3  0  0.50      -168.4733   2.0000                                         
     3  1  1.50      -115.6019   6.0000                                         
     3  2  2.50       -29.3106  10.0000                                         
     4  0  0.50       -11.7309   2.0000                                         
     4  1  0.50        -3.8952   2.0000                                         
     4  3  2.50        -4.0817   0.0000                                         
   Description                                                                  
     l       E           TYP  RCUT    TYP  RCUT                                 
     2    -29.3105938     23  2.200                                             
     2    -13.6058260     23  2.200                                             
     0    -11.7309493     23  2.300                                             
     0     -7.4578696     23  2.300                                             
     1     -3.8952261     23  2.300                                             
     1      6.1178114     23  2.300                                             
     3     -1.3605826     23  2.300                                             
  local pseudopotential read in
  partial core-charges read in
  partial kinetic energy density read in
  atomic valenz-charges read in
  non local Contribution for L=           2  read in
    real space projection operators read in
  non local Contribution for L=           2  read in
    real space projection operators read in
  non local Contribution for L=           0  read in
    real space projection operators read in
  non local Contribution for L=           0  read in
    real space projection operators read in
  non local Contribution for L=           1  read in
    real space projection operators read in
  non local Contribution for L=           1  read in
    real space projection operators read in
    PAW grid and wavefunctions read in

   number of l-projection  operators is LMAX  =           6
   number of lm-projection operators is LMMAX =          18

 POTCAR:    PAW_PBE C 08Apr2002                   
   SHA256 =  253f7b50bb8d59471dbedb8285d89021f4a42ed1a2c5d38a03a736e69125dd95 C/
   COPYR  = (c) Copyright 08Apr2002 Georg Kresse                                
   COPYR  = This file is part of the software VASP. Any use, copying, and all ot
   COPYR  = If you do not have a valid VASP license, you may not use, copy or di
   VRHFIN =C: s2p2                                                              
   LEXCH  = PE                                                                  
   EATOM  =   147.1560 eV,   10.8157 Ry                                         
                                                                                
   TITEL  = PAW_PBE C 08Apr2002                                                 
   LULTRA =        F    use ultrasoft PP ?                                      
   IUNSCR =        1    unscreen: 0-lin 1-nonlin 2-no                           
   RPACOR =    1.200    partial core radius                                     
   POMASS =   12.011; ZVAL   =    4.000    mass and valenz                      
   RCORE  =    1.500    outmost cutoff radius                                   
   RWIGS  =    1.630; RWIGS  =    0.863    wigner-seitz radius (au A)           
   ENMAX  =  400.000; ENMIN  =  300.000 eV                                      
   ICORE  =        2    local potential                                         
   LCOR   =        T    correct aug charges                                     
   LPAW   =        T    paw PP                                                  
   EAUG   =  644.873                                                            
   DEXC   =    0.000                                                            
   RMAX   =    1.529    core radius for proj-oper                               
   RAUG   =    1.300    factor for augmentation sphere                          
   RDEP   =    1.501    radius for radial grids                                 
   RDEPT  =    1.300    core radius for aug-charge                              
                                                                                
   Atomic configuration                                                         
    4 entries                                                                   
     n  l   j            E        occ.                                          
     1  0  0.50      -273.3789   2.0000                                         
     2  0  0.50       -13.7508   2.0000                                         
     2  1  0.50        -5.2854   2.0000                                         
     3  2  1.50        -5.4423   0.0000                                         
   Description                                                                  
     l       E           TYP  RCUT    TYP  RCUT                                 
     0    -13.7508458     23  1.200                                             
     0     -8.2022199     23  1.200                                             
     1     -5.2854383     23  1.500                                             
     1     34.0145650     23  1.500                                             
     2     -5.4423304      7  1.500                                             
  local pseudopotential read in
  partial core-charges read in
  partial kinetic energy density read in
  atomic valenz-charges read in
  non local Contribution for L=           0  read in
    real space projection operators read in
  non local Contribution for L=           0  read in
    real space projection operators read in
  non local Contribution for L=           1  read in
    real space projection operators read in
  non local Contribution for L=           1  read in
    real space projection operators read in
    PAW grid and wavefunctions read in

   number of l-projection  operators is LMAX  =           4
   number of lm-projection operators is LMMAX =           8

 POTCAR:    PAW_PBE O 08Apr2002                   
   SHA256 =  818f92134a0a090dccd8ba1447fa70422a3b330e708bb4f08108d8ae51209ddf O/
   COPYR  = (c) Copyright 08Apr2002 Georg Kresse                                
   COPYR  = This file is part of the software VASP. Any use, copying, and all ot
   COPYR  = If you do not have a valid VASP license, you may not use, copy or di
   VRHFIN =O: s2p4                                                              
   LEXCH  = PE                                                                  
   EATOM  =   432.3788 eV,   31.7789 Ry                                         
                                                                                
   TITEL  = PAW_PBE O 08Apr2002                                                 
   LULTRA =        F    use ultrasoft PP ?                                      
   IUNSCR =        1    unscreen: 0-lin 1-nonlin 2-no                           
   RPACOR =    1.200    partial core radius                                     
   POMASS =   16.000; ZVAL   =    6.000    mass and valenz                      
   RCORE  =    1.520    outmost cutoff radius                                   
   RWIGS  =    1.550; RWIGS  =    0.820    wigner-seitz radius (au A)           
   ENMAX  =  400.000; ENMIN  =  300.000 eV                                      
   ICORE  =        2    local potential                                         
   LCOR   =        T    correct aug charges                                     
   LPAW   =        T    paw PP                                                  
   EAUG   =  605.392                                                            
   DEXC   =    0.000                                                            
   RMAX   =    1.553    core radius for proj-oper                               
   RAUG   =    1.300    factor for augmentation sphere                          
   RDEP   =    1.550    radius for radial grids                                 
   RDEPT  =    1.329    core radius for aug-charge                              
                                                                                
   Atomic configuration                                                         
    4 entries                                                                   
     n  l   j            E        occ.                                          
     1  0  0.50      -514.6923   2.0000                                         
     2  0  0.50       -23.9615   2.0000                                         
     2  1  0.50        -9.0305   4.0000                                         
     3  2  1.50        -9.5241   0.0000                                         
   Description                                                                  
     l       E           TYP  RCUT    TYP  RCUT                                 
     0    -23.9615318     23  1.200                                             
     0     -9.5240782     23  1.200                                             
     1     -9.0304911     23  1.520                                             
     1      8.1634956     23  1.520                                             
     2     -9.5240782      7  1.500                                             
  local pseudopotential read in
  partial core-charges read in
  partial kinetic energy density read in
  kinetic energy density of atom read in
  atomic valenz-charges read in
  non local Contribution for L=           0  read in
    real space projection operators read in
  non local Contribution for L=           0  read in
    real space projection operators read in
  non local Contribution for L=           1  read in
    real space projection operators read in
  non local Contribution for L=           1  read in
    real space projection operators read in
    PAW grid and wavefunctions read in

   number of l-projection  operators is LMAX  =           4
   number of lm-projection operators is LMMAX =           8


 ----------------------------------------------------------------------------- 
|                                                                             |
|  ADVICE TO THIS USER RUNNING 'VASP/VAMP'   (HEAR YOUR MASTER'S VOICE ...):  |
|                                                                             |
|      You have a (more or less) 'large supercell' and for larger cells       |
|      it might be more efficient to use real space projection opertators     |
|      So try LREAL= Auto  in the INCAR   file.                               |
|      Mind:          For very  accurate calculation you might also keep the  |
|      reciprocal projection scheme          (i.e. LREAL=.FALSE.)             |
|                                                                             |
 ----------------------------------------------------------------------------- 

  PAW_PBE C 08Apr2002                   :
 energy of atom  1       EATOM= -147.1560
 kinetic energy error for atom=    0.0132 (will be added to EATOM!!)
  PAW_PBE N 08Apr2002                   :
 energy of atom  2       EATOM= -264.5486
 kinetic energy error for atom=    0.0298 (will be added to EATOM!!)
  PAW_PBE Ge_d 03Jul2007                :
 energy of atom  3       EATOM=-2596.2402
 kinetic energy error for atom=    0.0090 (will be added to EATOM!!)
  PAW_PBE C 08Apr2002                   :
 energy of atom  4       EATOM= -147.1560
 kinetic energy error for atom=    0.0132 (will be added to EATOM!!)
  PAW_PBE O 08Apr2002                   :
 energy of atom  5       EATOM= -432.3788
 kinetic energy error for atom=    0.0458 (will be added to EATOM!!)


 POSCAR: POSCAR-c3n4                             
  positions in cartesian coordinates
  No initial velocities read in
 exchange correlation table for  LEXCH =        8
   RHO(1)=    0.500       N(1)  =     2000
   RHO(2)=  100.500       N(2)  =     4000



--------------------------------------------------------------------------------------------------------


 ion  position               nearest neighbor table
   1  0.106  0.214  0.436-  26 1.18  46 1.18  25 1.24   6 1.99  16 1.99
   2  0.288  0.399  0.443-  29 1.16  35 1.22  25 1.26   5 2.01  10 2.05
   3  0.104  0.392  0.437-  44 1.16  39 1.21  25 1.26  17 2.00  12 2.04
   4  0.447  0.064  0.516-  30 1.16  27 1.18  48 1.24  13 1.99   8 1.99
   5  0.453  0.401  0.422-  28 1.17  29 1.18  56 1.25  15 1.99   2 2.01
   6  0.112  0.053  0.459-  26 1.16  31 1.17  32 1.23   9 1.98   1 1.99
   7  0.096  0.712  0.494-  54 1.17  34 1.19  33 1.24  12 1.97  22 2.00
   8  0.284  0.890  0.511-  27 1.18  37 1.19  33 1.25   4 1.99  11 2.00
   9  0.109  0.895  0.508-  31 1.17  52 1.18  33 1.26   6 1.98  23 1.99
  10  0.448  0.548  0.512-  38 1.17  56 1.19  35 1.20  19 1.98   2 2.05  57 2.40
  11  0.445  0.885  0.499-  37 1.18  36 1.18  48 1.22  21 2.00   8 2.00
  12  0.087  0.542  0.491-  34 1.16  40 1.18  39 1.19   7 1.97   3 2.04  57 2.41
  13  0.616  0.223  0.483-  42 1.19  30 1.19  41 1.24   4 1.99  18 1.99
  14  0.780  0.390  0.410-  45 1.19  51 1.20  41 1.24  17 1.98  22 1.98
  15  0.610  0.394  0.445-  28 1.18  55 1.18  41 1.28  24 1.99   5 1.99
  16  0.940  0.052  0.471-  46 1.16  43 1.17  32 1.23  20 1.98   1 1.99
  17  0.941  0.387  0.404-  45 1.16  44 1.18  40 1.25  14 1.98   3 2.00
  18  0.623  0.066  0.522-  42 1.17  47 1.18  48 1.24  13 1.99  21 1.99
  19  0.613  0.711  0.541-  50 1.17  38 1.20  49 1.24  10 1.98  24 2.00
  20  0.790  0.897  0.533-  43 1.17  53 1.18  49 1.27  16 1.98  23 1.98
  21  0.609  0.892  0.531-  47 1.18  36 1.19  49 1.26  18 1.99  11 2.00
  22  0.938  0.563  0.430-  51 1.15  54 1.19  40 1.25  14 1.98   7 2.00
  23  0.954  0.902  0.545-  52 1.18  53 1.18  32 1.23  20 1.98   9 1.99
  24  0.621  0.555  0.500-  55 1.16  50 1.17  56 1.24  15 1.99  19 2.00
  25  0.167  0.335  0.435-   1 1.24   3 1.26   2 1.26
  26  0.165  0.161  0.431-   6 1.16   1 1.18
  27  0.336  0.002  0.532-   8 1.18   4 1.18
  28  0.512  0.352  0.402-   5 1.17  15 1.18
  29  0.345  0.361  0.400-   2 1.16   5 1.18
  30  0.506  0.177  0.503-   4 1.16  13 1.19
  31  0.159  0.988  0.457-   9 1.17   6 1.17
  32  0.002  0.002  0.493-  16 1.23  23 1.23   6 1.23
  33  0.165  0.831  0.510-   7 1.24   8 1.25   9 1.26
  34  0.134  0.645  0.528-  12 1.16   7 1.19  57 2.31
  35  0.334  0.491  0.501-  10 1.20   2 1.22  57 1.82
  36  0.503  0.831  0.500-  11 1.18  21 1.19
  37  0.333  0.829  0.489-  11 1.18   8 1.19
  38  0.499  0.648  0.555-  10 1.17  19 1.20  57 2.32
  39  0.142  0.484  0.495-  12 1.19   3 1.21  57 1.83
  40  0.988  0.496  0.446-  12 1.18  22 1.25  17 1.25
  41  0.667  0.330  0.439-  13 1.24  14 1.24  15 1.28
  42  0.680  0.178  0.505-  18 1.17  13 1.19
  43  0.827  0.986  0.478-  20 1.17  16 1.17
  44  0.011  0.348  0.389-   3 1.16  17 1.18
  45  0.830  0.330  0.389-  17 1.16  14 1.19
  46  0.993  0.161  0.445-  16 1.16   1 1.18
  47  0.669  0.005  0.549-  21 1.18  18 1.18
  48  0.505  0.004  0.508-  11 1.22  18 1.24   4 1.24
  49  0.668  0.832  0.544-  19 1.24  21 1.26  20 1.27
  50  0.675  0.666  0.522-  19 1.17  24 1.17
  51  0.832  0.507  0.406-  22 1.15  14 1.20
  52  0.016  0.853  0.559-  23 1.18   9 1.18
  53  0.849  0.860  0.576-  20 1.18  23 1.18
  54  0.004  0.677  0.444-   7 1.17  22 1.19
  55  0.668  0.491  0.494-  24 1.16  15 1.18
  56  0.506  0.502  0.477-  10 1.19  24 1.24   5 1.25
  57  0.287  0.593  0.568-  35 1.82  39 1.83  34 2.31  38 2.32  10 2.40  12 2.41
  58  0.287  0.593  0.966-  59 1.02
  59  0.232  0.530  0.023-  58 1.02


IMPORTANT INFORMATION: All symmetrisations will be switched off!
NOSYMM: (Re-)initialisation of all symmetry stuff for point group C_1.



 KPOINTS: K-Points                                

Automatic generation of k-mesh.
Space group operators:
 irot       det(A)        alpha          n_x          n_y          n_z        tau_x        tau_y        tau_z
    1     1.000000     0.000000     1.000000     0.000000     0.000000     0.000000     0.000000     0.000000
 
 Subroutine IBZKPT returns following result:
 ===========================================
 
 Found      5 irreducible k-points:
 
 Following reciprocal coordinates:
            Coordinates               Weight
  0.000000  0.000000  0.000000      1.000000
  0.333333  0.000000  0.000000      2.000000
  0.000000  0.333333  0.000000      2.000000
  0.333333  0.333333  0.000000      2.000000
 -0.333333  0.333333  0.000000      2.000000
 
 Following cartesian coordinates:
            Coordinates               Weight
  0.000000  0.000000  0.000000      1.000000
  0.024277  0.014368  0.000000      2.000000
  0.000396  0.028736  0.000000      2.000000
  0.024673  0.043104  0.000000      2.000000
 -0.023881  0.014368  0.000000      2.000000
 
 TETIRR: Found     24 inequivalent tetrahedra from       54


--------------------------------------------------------------------------------------------------------




 Dimension of arrays:
   k-points           NKPTS =      5   k-points in BZ     NKDIM =      5   number of bands    NBANDS=    172
   number of dos      NEDOS =   4000   number of ions     NIONS =     59
   non local maximal  LDIM  =      6   non local SUM 2l+1 LMDIM =     18
   total plane-waves  NPLWV = 286720
   max r-space proj   IRMAX =      1   max aug-charges    IRDMAX=   6073
   dimension x,y,z NGX =    64 NGY =   64 NGZ =   70
   dimension x,y,z NGXF=   128 NGYF=  128 NGZF=  140
   support grid    NGXF=   128 NGYF=  128 NGZF=  140
   ions per type =              24  32   1   1   1
   NGX,Y,Z   is equivalent  to a cutoff of   8.73,  8.90,  8.82 a.u.
   NGXF,Y,Z  is equivalent  to a cutoff of  17.47, 17.79, 17.63 a.u.

 SYSTEM =  unknown system                          
 POSCAR =  POSCAR-c3n4                             

 Startparameter for this run:
   NWRITE =      2    write-flag & timer
   PREC   = normal    normal or accurate (medium, high low for compatibility)
   ISTART =      0    job   : 0-new  1-cont  2-samecut
   ICHARG =      2    charge: 1-file 2-atom 10-const
   ISPIN  =      2    spin polarized calculation?
   LNONCOLLINEAR =      F non collinear calculations
   LSORBIT =      F    spin-orbit coupling
   INIWAV =      1    electr: 0-lowe 1-rand  2-diag
   LASPH  =      F    aspherical Exc in radial PAW
   METAGGA=      F    non-selfconsistent MetaGGA calc.

 Electronic Relaxation 1
   ENCUT  =  440.0 eV  32.34 Ry    5.69 a.u.  20.84 20.45 22.58*2*pi/ulx,y,z
   ENINI  =  440.0     initial cutoff
   ENAUG  =  644.9 eV  augmentation charge cutoff
   NELM   =    100;   NELMIN=  2; NELMDL= -5     # of ELM steps 
   EDIFF  = 0.1E-03   stopping-criterion for ELM
   LREAL  =      F    real-space projection
   NLSPLINE    = F    spline interpolate recip. space projectors
   LCOMPAT=      F    compatible to vasp.4.4
   GGA_COMPAT  = T    GGA compatible to vasp.4.4-vasp.4.6
   LMAXPAW     = -100 max onsite density
   LMAXMIX     =    2 max onsite mixed and CHGCAR
   VOSKOWN=      0    Vosko Wilk Nusair interpolation
   ROPT   =    0.00000   0.00000   0.00000   0.00000
   ROPT   =    0.00000
 Ionic relaxation
   EDIFFG = -.1E-01   stopping-criterion for IOM
   NSW    =      0    number of steps for IOM
   NBLOCK =      1;   KBLOCK =      1    inner block; outer block 
   IBRION =     -1    ionic relax: 0-MD 1-quasi-New 2-CG
   NFREE  =      0    steps in history (QN), initial steepest desc. (CG)
   ISIF   =      2    stress and relaxation
   IWAVPR =     10    prediction:  0-non 1-charg 2-wave 3-comb
   ISYM   =      0    0-nonsym 1-usesym 2-fastsym
   LCORR  =      T    Harris-Foulkes like correction to forces

   POTIM  = 0.5000    time-step for ionic-motion
   TEIN   =    0.0    initial temperature
   TEBEG  =    0.0;   TEEND  =   0.0 temperature during run
   SMASS  =  -3.00    Nose mass-parameter (am)
   estimated Nose-frequenzy (Omega)   =  0.10E-29 period in steps =****** mass=  -0.339E-26a.u.
   SCALEE = 1.0000    scale energy and forces
   NPACO  =    256;   APACO  = 16.0  distance and # of slots for P.C.
   PSTRESS=    0.0 pullay stress

  Mass of Ions in am
   POMASS =  12.01 14.00 72.61 12.01 16.00
  Ionic Valenz
   ZVAL   =   4.00  5.00 14.00  4.00  6.00
  Atomic Wigner-Seitz radii
   RWIGS  =  -1.00 -1.00 -1.00 -1.00 -1.00
  virtual crystal weights 
   VCA    =   1.00  1.00  1.00  1.00  1.00
   NELECT =     280.0000    total number of electrons
   NUPDOWN=      -1.0000    fix difference up-down

 DOS related values:
   EMIN   = -14.00;   EMAX   =  6.00  energy-range for DOS
   EFERMI =   0.00
   ISMEAR =    -5;   SIGMA  =   0.20  broadening in eV -4-tet -1-fermi 0-gaus

 Electronic relaxation 2 (details)
   IALGO  =     38    algorithm
   LDIAG  =      T    sub-space diagonalisation (order eigenvalues)
   LSUBROT=      F    optimize rotation matrix (better conditioning)
   TURBO    =      0    0=normal 1=particle mesh
   IRESTART =      0    0=no restart 2=restart with 2 vectors
   NREBOOT  =      0    no. of reboots
   NMIN     =      0    reboot dimension
   EREF     =   0.00    reference energy to select bands
   IMIX   =      4    mixing-type and parameters
     AMIX     =   0.25;   BMIX     =  0.00
     AMIX_MAG =   1.00;   BMIX_MAG =  0.00
     AMIN     =   0.10
     WC   =   100.;   INIMIX=   1;  MIXPRE=   1;  MAXMIX= -45

 Intra band minimization:
   WEIMIN = 0.0000     energy-eigenvalue tresh-hold
   EBREAK =  0.15E-06  absolut break condition
   DEPER  =   0.30     relativ break condition  

   TIME   =   0.40     timestep for ELM

  volume/ion in A,a.u.               =      27.82       187.75
  Fermi-wavevector in a.u.,A,eV,Ry     =   0.907924  1.715728 11.215635  0.824326
  Thomas-Fermi vector in A             =   2.031789

 Write flags
   LWAVE        =      F    write WAVECAR
   LDOWNSAMPLE  =      F    k-point downsampling of WAVECAR
   LCHARG       =      F    write CHGCAR
   LVTOT        =      F    write LOCPOT, total local potential
   LVHAR        =      F    write LOCPOT, Hartree potential only
   LELF         =      F    write electronic localiz. function (ELF)
   LORBIT       =     11    0 simple, 1 ext, 2 COOP (PROOUT), +10 PAW based schemes


 Dipole corrections
   LMONO  =      F    monopole corrections only (constant potential shift)
   LDIPOL =      F    correct potential (dipole corrections)
   IDIPOL =      0    1-x, 2-y, 3-z, 4-all directions 
   EPSILON=  1.0000000 bulk dielectric constant

 Exchange correlation treatment:
   GGA     =    --    GGA type
   LEXCH   =     8    internal setting for exchange type
   VOSKOWN=      0    Vosko Wilk Nusair interpolation
   LHFCALC =     F    Hartree Fock is set to
   LHFONE  =     F    Hartree Fock one center treatment
   AEXX    =    0.0000 exact exchange contribution

 Linear response parameters
   LEPSILON=     F    determine dielectric tensor
   LRPA    =     F    only Hartree local field effects (RPA)
   LNABLA  =     F    use nabla operator in PAW spheres
   LVEL    =     F    velocity operator in full k-point grid
   LINTERFAST=   F  fast interpolation
   KINTER  =     0    interpolate to denser k-point grid
   CSHIFT  =0.1000    complex shift for real part using Kramers Kronig
   OMEGAMAX=  -1.0    maximum frequency
   DEG_THRESHOLD= 0.2000000E-02 threshold for treating states as degnerate
   RTIME   =   -0.100 relaxation time in fs
  (WPLASMAI=    0.000 imaginary part of plasma frequency in eV, 0.658/RTIME)
   DFIELD  = 0.0000000 0.0000000 0.0000000 field for delta impulse in time

 Orbital magnetization related:
   ORBITALMAG=     F  switch on orbital magnetization
   LCHIMAG   =     F  perturbation theory with respect to B field
   DQ        =  0.001000  dq finite difference perturbation B field
   LLRAUG    =     F  two centre corrections for induced B field



--------------------------------------------------------------------------------------------------------


 Static calculation
 charge density and potential will be updated during run
 spin polarized calculation
 Variant of blocked Davidson
 Davidson routine will perform the subspace rotation
 perform sub-space diagonalisation
    after iterative eigenvector-optimisation
 modified Broyden-mixing scheme, WC =      100.0
 initial mixing is a Kerker type mixing with AMIX =  0.2500 and BMIX =      0.0001
 Hartree-type preconditioning will be used
 using additional bands           32
 reciprocal scheme for non local part
 use partial core corrections
 calculate Harris-corrections to forces   (improved forces if not selfconsistent)
 use gradient corrections 
 use of overlap-Matrix (Vanderbilt PP)
 Fermi weights with tetrahedron method with Bloechl corrections


--------------------------------------------------------------------------------------------------------


  energy-cutoff  :      440.00
  volume of cell :     1641.47
      direct lattice vectors                 reciprocal lattice vectors
    12.182213326 -0.167851617  0.000000000     0.082761783  0.048981948 -0.000000000
    -6.091106663 10.291768075  0.000000000     0.001349787  0.097963896 -0.000000000
     0.000000000  0.000000000 13.200000000    -0.000000000 -0.000000000  0.075757576

  length of vectors
    12.183369636 11.959183521 13.200000000     0.096170391  0.097973195  0.075757576



 k-points in units of 2pi/SCALE and weight: K-Points                                
   0.00000000  0.00000000  0.00000000       0.111
   0.02427679  0.01436804  0.00000000       0.222
   0.00039594  0.02873608  0.00000000       0.222
   0.02467273  0.04310411  0.00000000       0.222
  -0.02388085  0.01436804  0.00000000       0.222

 k-points in reciprocal lattice and weights: K-Points                                
   0.00000000  0.00000000  0.00000000       0.111
   0.33333333  0.00000000  0.00000000       0.222
   0.00000000  0.33333333  0.00000000       0.222
   0.33333333  0.33333333  0.00000000       0.222
  -0.33333333  0.33333333  0.00000000       0.222

 position of ions in fractional coordinates (direct lattice) 
   0.10567936  0.21351909  0.43638452
   0.28750403  0.39866334  0.44307848
   0.10379301  0.39177313  0.43720774
   0.44732828  0.06383887  0.51561413
   0.45258916  0.40124889  0.42244582
   0.11203481  0.05273921  0.45860169
   0.09638015  0.71191070  0.49382164
   0.28433946  0.89006364  0.51112159
   0.10941441  0.89537413  0.50804572
   0.44792521  0.54827090  0.51182417
   0.44544784  0.88520183  0.49889037
   0.08690842  0.54210436  0.49059155
   0.61614813  0.22292684  0.48262487
   0.78023735  0.38968276  0.40980308
   0.61037743  0.39432339  0.44538198
   0.93951642  0.05229783  0.47062057
   0.94071854  0.38652888  0.40380040
   0.62278394  0.06558106  0.52195204
   0.61322902  0.71118454  0.54116914
   0.78984871  0.89727295  0.53280047
   0.60944297  0.89248269  0.53124739
   0.93832005  0.56283419  0.43042990
   0.95436023  0.90171878  0.54458488
   0.62130548  0.55465507  0.49978063
   0.16668926  0.33545237  0.43494871
   0.16473950  0.16097029  0.43087242
   0.33626584  0.00180669  0.53207802
   0.51175722  0.35246859  0.40230650
   0.34471728  0.36074551  0.39967324
   0.50565751  0.17673507  0.50307206
   0.15873210  0.98821904  0.45657691
   0.00214731  0.00186372  0.49276218
   0.16462634  0.83083069  0.51017993
   0.13400723  0.64526801  0.52770834
   0.33371346  0.49116238  0.50147098
   0.50288345  0.83078126  0.49964378
   0.33307237  0.82932770  0.48929409
   0.49902190  0.64803204  0.55475412
   0.14173676  0.48364631  0.49503647
   0.98839512  0.49595573  0.44590834
   0.66736443  0.33015381  0.43923807
   0.67970142  0.17802103  0.50515807
   0.82720183  0.98622484  0.47776955
   0.01097216  0.34809993  0.38872280
   0.83047981  0.33016544  0.38944898
   0.99296173  0.16101876  0.44505124
   0.66886761  0.00524437  0.54940128
   0.50484899  0.00388347  0.50822952
   0.66830364  0.83227641  0.54411956
   0.67536455  0.66551462  0.52238502
   0.83211404  0.50666912  0.40566699
   0.01584380  0.85299492  0.55859758
   0.84924332  0.85956436  0.57597004
   0.00424175  0.67726383  0.44447513
   0.66753141  0.49127771  0.49374111
   0.50565566  0.50179634  0.47708161
   0.28676550  0.59288202  0.56771515
   0.28676550  0.59288202  0.96638181
   0.23209909  0.52992702  0.02273763

 position of ions in cartesian coordinates  (Angst):
  -0.01315900  2.17975046  5.76027561
   1.07413446  4.05469260  5.84863590
  -1.12190340  4.01461638  5.77114210
   5.06059919  0.58193004  6.80610652
   3.06948783  4.05359273  5.57628489
   1.04359181  0.52397453  6.05354225
  -3.16220048  7.31064227  6.51844560
  -1.95758864  9.11260170  6.74680495
  -4.12090971  9.19661751  6.70620354
   2.11714397  5.56749198  6.75607907
   0.03468188  9.03552281  6.58535288
  -2.24327864  5.56462467  6.47580847
   6.14817680  2.19088989  6.37064830
   7.13141854  3.87956052  5.40940070
   5.03388218  3.95583207  5.87904210
  11.12683784  0.38053776  6.21219148
   9.10564533  3.82016449  5.33016523
   7.18742558  0.57040972  6.88976695
   3.13858589  7.21641489  7.14343267
   4.15672021  9.10194775  7.03296620
   1.98815699  9.08292883  7.01246550
   8.00253192  5.63506045  5.68167474
   6.13375459  9.12008967  7.18852039
   4.19041274  5.60409424  6.59710433
  -0.01263204  3.42441895  5.74132300
   1.02640457  1.62901706  5.68751599
   4.08545741 -0.03784876  7.02342988
   4.08741190  3.54162567  5.31044579
   2.00208004  3.65484778  5.27568674
   5.08351544  1.73404097  6.64055122
  -4.08563934 10.14387774  6.02681518
   0.01480689  0.01882054  6.50446074
  -3.05516508  8.52308394  6.73437504
  -2.29789161  6.61845535  6.96575011
   1.07364617  4.99891492  6.61941699
   1.06585623  8.46579820  6.59529789
  -0.99396483  8.47934160  6.45868195
   2.13195897  6.58563383  7.32275434
  -1.21927382  4.95378486  6.53448136
   9.01992097  4.93835766  5.88599011
   6.11897378  3.28584827  5.79794247
   7.19592266  1.71806216  6.66808657
   4.06994851 10.01115014  6.30655809
  -1.98664861  3.58072200  5.13114102
   8.10600927  3.25858875  5.14072647
  11.11568913  1.49049749  5.87467637
   8.11634398 -0.05829671  7.25209691
   6.12652349 -0.04477195  6.70862972
   3.07193319  8.45341992  7.18237817
   4.17371445  6.73596110  6.89548230
   7.05081504  5.07484941  5.35480432
  -5.00267054  8.77616650  7.37348802
   5.10996508  8.70389022  7.60280458
  -4.07361237  6.96953031  5.86707178
   5.13958504  4.94407004  6.51738267
   3.10351006  5.07949647  6.29747727
  -0.11786915  6.05367024  7.49383995
  -0.11786915  6.05367024 12.75623995
  -0.40036142  5.41492779  0.30013667



--------------------------------------------------------------------------------------------------------


 k-point  1 :   0.0000 0.0000 0.0000  plane waves:   34455
 k-point  2 :   0.3333 0.0000 0.0000  plane waves:   34436
 k-point  3 :   0.0000 0.3333 0.0000  plane waves:   34397
 k-point  4 :   0.3333 0.3333 0.0000  plane waves:   34411
 k-point  5 :  -0.3333 0.3333 0.0000  plane waves:   34416

 maximum and minimum number of plane-waves per node :      2892     2842

 maximum number of plane-waves:     34455
 maximum index in each direction: 
   IXMAX=   21   IYMAX=   20   IZMAX=   22
   IXMIN=  -21   IYMIN=  -20   IZMIN=  -22


 parallel 3D FFT for wavefunctions:
    minimum data exchange during FFTs selected (reduces bandwidth)
 parallel 3D FFT for charge:
    minimum data exchange during FFTs selected (reduces bandwidth)


 total amount of memory used by VASP MPI-rank0    73995. kBytes
=======================================================================

   base      :      30000. kBytes
   nonl-proj :      13141. kBytes
   fftplans  :       2624. kBytes
   grid      :       7821. kBytes
   one-center:        155. kBytes
   wavefun   :      20254. kBytes

     INWAV:  cpu time    0.0000: real time    0.0000
 Broyden mixing: mesh for mixing (old mesh)
   NGX = 41   NGY = 41   NGZ = 45
  (NGX  =128   NGY  =128   NGZ  =140)
  gives a total of  75645 points

 initial charge density was supplied:
 charge density of overlapping atoms calculated
 number of electron     280.0000000 magnetization       2.0000000
 keeping initial charge density in first step


--------------------------------------------------------------------------------------------------------


 Maximum index for augmentation-charges          179 (set IRDMAX)


--------------------------------------------------------------------------------------------------------


 First call to EWALD:  gamma=   0.150
 Maximum number of real-space cells 3x 3x 3
 Maximum number of reciprocal cells 3x 3x 3

    FEWALD:  cpu time    0.0024: real time    0.0024


--------------------------------------- Iteration      1(   1)  ---------------------------------------


    POTLOK:  cpu time    0.0811: real time    0.0906
    SETDIJ:  cpu time    0.0100: real time    0.0100
     EDDAV:  cpu time    7.7457: real time    7.7861
 BZINTS: Fermi energy: 11.803833;280.000000 electrons
         Band energy:***********;  BLOECHL correction: -0.020289
       DOS:  cpu time    0.3367: real time    0.3377
    --------------------------------------------
      LOOP:  cpu time    8.1734: real time    8.2244

 eigenvalue-minimisations  :  4064
 total energy-change (2. order) : 0.2965054E+04  (-0.1192361E+05)
 number of electron     280.0000000 magnetization       2.0000000
 augmentation part      280.0000000 magnetization       2.0000000

 Free energy of the ion-electron system (eV)
  ---------------------------------------------------
  alpha Z        PSCENC =       227.00334759
  Ewald energy   TEWEN  =     29256.86539681
  -Hartree energ DENC   =    -40593.36098220
  -exchange      EXHF   =         0.00000000
  -V(xc)+E(xc)   XCENC  =      1122.82767989
  PAW double counting   =     11453.83848114   -11942.90478952
  entropy T*S    EENTRO =         0.00000000
  eigenvalues    EBANDS =     -1730.95088726
  atomic energy  EATOM  =     15171.73615219
  Solvation  Ediel_sol  =         0.00000000
  ---------------------------------------------------
  free energy    TOTEN  =      2965.05439862 eV

  energy without entropy =     2965.05439862  energy(sigma->0) =     2965.05439862


--------------------------------------------------------------------------------------------------------




--------------------------------------- Iteration      1(   2)  ---------------------------------------


     EDDAV:  cpu time    8.5189: real time    8.5423
 BZINTS: Fermi energy:  0.144161;280.000000 electrons
         Band energy:***********;  BLOECHL correction:  0.000000
       DOS:  cpu time    0.0146: real time    0.0146
    --------------------------------------------
      LOOP:  cpu time    8.5334: real time    8.5569

 eigenvalue-minimisations  :  4560
 total energy-change (2. order) :-0.2994746E+04  (-0.2897910E+04)
 number of electron     280.0000000 magnetization       2.0000000
 augmentation part      280.0000000 magnetization       2.0000000

 Free energy of the ion-electron system (eV)
  ---------------------------------------------------
  alpha Z        PSCENC =       227.00334759
  Ewald energy   TEWEN  =     29256.86539681
  -Hartree energ DENC   =    -40593.36098220
  -exchange      EXHF   =         0.00000000
  -V(xc)+E(xc)   XCENC  =      1122.82767989
  PAW double counting   =     11453.83848114   -11942.90478952
  entropy T*S    EENTRO =         0.00000000
  eigenvalues    EBANDS =     -4725.69666694
  atomic energy  EATOM  =     15171.73615219
  Solvation  Ediel_sol  =         0.00000000
  ---------------------------------------------------
  free energy    TOTEN  =       -29.69138106 eV

  energy without entropy =      -29.69138106  energy(sigma->0) =      -29.69138106


--------------------------------------------------------------------------------------------------------




--------------------------------------- Iteration      1(   3)  ---------------------------------------


     EDDAV:  cpu time    7.7285: real time    7.7535
 BZINTS: Fermi energy: -3.515890;280.000000 electrons
         Band energy:***********;  BLOECHL correction: -0.005006
       DOS:  cpu time    0.0236: real time    0.0235
    --------------------------------------------
      LOOP:  cpu time    7.7520: real time    7.7771

 eigenvalue-minimisations  :  4072
 total energy-change (2. order) :-0.4478867E+03  (-0.4442320E+03)
 number of electron     280.0000000 magnetization       2.0000000
 augmentation part      280.0000000 magnetization       2.0000000

 Free energy of the ion-electron system (eV)
  ---------------------------------------------------
  alpha Z        PSCENC =       227.00334759
  Ewald energy   TEWEN  =     29256.86539681
  -Hartree energ DENC   =    -40593.36098220
  -exchange      EXHF   =         0.00000000
  -V(xc)+E(xc)   XCENC  =      1122.82767989
  PAW double counting   =     11453.83848114   -11942.90478952
  entropy T*S    EENTRO =         0.00000000
  eigenvalues    EBANDS =     -5173.58337279
  atomic energy  EATOM  =     15171.73615219
  Solvation  Ediel_sol  =         0.00000000
  ---------------------------------------------------
  free energy    TOTEN  =      -477.57808691 eV

  energy without entropy =     -477.57808691  energy(sigma->0) =     -477.57808691


--------------------------------------------------------------------------------------------------------




--------------------------------------- Iteration      1(   4)  ---------------------------------------


     EDDAV:  cpu time    8.0354: real time    8.0578
 BZINTS: Fermi energy: -3.881220;280.000000 electrons
         Band energy:***********;  BLOECHL correction:  0.000000
       DOS:  cpu time    0.0153: real time    0.0153
    --------------------------------------------
      LOOP:  cpu time    8.0507: real time    8.0731

 eigenvalue-minimisations  :  4256
 total energy-change (2. order) :-0.1514340E+02  (-0.1481990E+02)
 number of electron     280.0000000 magnetization       2.0000000
 augmentation part      280.0000000 magnetization       2.0000000

 Free energy of the ion-electron system (eV)
  ---------------------------------------------------
  alpha Z        PSCENC =       227.00334759
  Ewald energy   TEWEN  =     29256.86539681
  -Hartree energ DENC   =    -40593.36098220
  -exchange      EXHF   =         0.00000000
  -V(xc)+E(xc)   XCENC  =      1122.82767989
  PAW double counting   =     11453.83848114   -11942.90478952
  entropy T*S    EENTRO =         0.00000000
  eigenvalues    EBANDS =     -5188.72676859
  atomic energy  EATOM  =     15171.73615219
  Solvation  Ediel_sol  =         0.00000000
  ---------------------------------------------------
  free energy    TOTEN  =      -492.72148271 eV

  energy without entropy =     -492.72148271  energy(sigma->0) =     -492.72148271


--------------------------------------------------------------------------------------------------------




--------------------------------------- Iteration      1(   5)  ---------------------------------------


     EDDAV:  cpu time    8.2888: real time    8.3171
 BZINTS: Fermi energy: -3.909977;280.000000 electrons
         Band energy:***********;  BLOECHL correction:  0.000000
       DOS:  cpu time    0.0147: real time    0.0147
    CHARGE:  cpu time    0.1633: real time    0.1660
    MIXING:  cpu time    0.0021: real time    0.0021
    --------------------------------------------
      LOOP:  cpu time    8.4688: real time    8.5000

 eigenvalue-minimisations  :  4448
 total energy-change (2. order) :-0.5382125E+00  (-0.5327521E+00)
 number of electron     279.9999993 magnetization       0.0000000
 augmentation part       23.5805215 magnetization       0.0225374

 Broyden mixing:
  rms(total) = 0.58769E+01    rms(broyden)= 0.58743E+01
  rms(prec ) = 0.65624E+01
  weight for this iteration     100.00

 Free energy of the ion-electron system (eV)
  ---------------------------------------------------
  alpha Z        PSCENC =       227.00334759
  Ewald energy   TEWEN  =     29256.86539681
  -Hartree energ DENC   =    -40593.36098220
  -exchange      EXHF   =         0.00000000
  -V(xc)+E(xc)   XCENC  =      1122.82767989
  PAW double counting   =     11453.83848114   -11942.90478952
  entropy T*S    EENTRO =         0.00000000
  eigenvalues    EBANDS =     -5189.26498113
  atomic energy  EATOM  =     15171.73615219
  Solvation  Ediel_sol  =         0.00000000
  ---------------------------------------------------
  free energy    TOTEN  =      -493.25969525 eV

  energy without entropy =     -493.25969525  energy(sigma->0) =     -493.25969525


--------------------------------------------------------------------------------------------------------




--------------------------------------- Iteration      1(   6)  ---------------------------------------


    POTLOK:  cpu time    0.0766: real time    0.0772
    SETDIJ:  cpu time    0.0096: real time    0.0096
     EDDAV:  cpu time    8.6344: real time    8.6568
 BZINTS: Fermi energy: -2.485871;280.000000 electrons
         Band energy:***********;  BLOECHL correction:  0.000000
       DOS:  cpu time    0.0159: real time    0.0159
    CHARGE:  cpu time    0.1641: real time    0.1642
    MIXING:  cpu time    0.0019: real time    0.0050
    --------------------------------------------
      LOOP:  cpu time    8.9026: real time    8.9288

 eigenvalue-minimisations  :  4688
 total energy-change (2. order) : 0.5366982E+02  (-0.6101213E+01)
 number of electron     279.9999996 magnetization      -0.0000001
 augmentation part       22.4729314 magnetization      -0.0018731

 Broyden mixing:
  rms(total) = 0.39581E+01    rms(broyden)= 0.39579E+01
  rms(prec ) = 0.42999E+01
  weight for this iteration     100.00

 eigenvalues of (default mixing * dielectric matrix)
  average eigenvalue GAMMA=   1.8569
  1.8569

 Free energy of the ion-electron system (eV)
  ---------------------------------------------------
  alpha Z        PSCENC =       227.00334759
  Ewald energy   TEWEN  =     29256.86539681
  -Hartree energ DENC   =    -41158.54061146
  -exchange      EXHF   =         0.00000000
  -V(xc)+E(xc)   XCENC  =      1144.20315700
  PAW double counting   =     17363.11923965   -17858.31113498
  entropy T*S    EENTRO =         0.00000000
  eigenvalues    EBANDS =     -4585.66542088
  atomic energy  EATOM  =     15171.73615219
  Solvation  Ediel_sol  =         0.00000000
  ---------------------------------------------------
  free energy    TOTEN  =      -439.58987409 eV

  energy without entropy =     -439.58987409  energy(sigma->0) =     -439.58987409


--------------------------------------------------------------------------------------------------------




--------------------------------------- Iteration      1(   7)  ---------------------------------------


    POTLOK:  cpu time    0.0774: real time    0.0779
    SETDIJ:  cpu time    0.0097: real time    0.0097
     EDDAV:  cpu time    7.7835: real time    7.8105
 BZINTS: Fermi energy: -0.840460;280.000000 electrons
         Band energy:***********;  BLOECHL correction:  0.000000
       DOS:  cpu time    0.0138: real time    0.0138
    CHARGE:  cpu time    0.1775: real time    0.1776
    MIXING:  cpu time    0.0015: real time    0.0027
    --------------------------------------------
      LOOP:  cpu time    8.0634: real time    8.0922

 eigenvalue-minimisations  :  4128
 total energy-change (2. order) : 0.2186965E+02  (-0.1015269E+02)
 number of electron     279.9999994 magnetization       0.0000000
 augmentation part       21.4261940 magnetization       0.0011476

 Broyden mixing:
  rms(total) = 0.21384E+01    rms(broyden)= 0.21378E+01
  rms(prec ) = 0.22561E+01
  weight for this iteration     100.00

 eigenvalues of (default mixing * dielectric matrix)
  average eigenvalue GAMMA=   1.8180
  1.0193  2.6167

 Free energy of the ion-electron system (eV)
  ---------------------------------------------------
  alpha Z        PSCENC =       227.00334759
  Ewald energy   TEWEN  =     29256.86539681
  -Hartree energ DENC   =    -41871.37550640
  -exchange      EXHF   =         0.00000000
  -V(xc)+E(xc)   XCENC  =      1170.72041838
  PAW double counting   =     30162.57264711   -30668.73531351
  entropy T*S    EENTRO =         0.00000000
  eigenvalues    EBANDS =     -3866.50736325
  atomic energy  EATOM  =     15171.73615219
  Solvation  Ediel_sol  =         0.00000000
  ---------------------------------------------------
  free energy    TOTEN  =      -417.72022109 eV

  energy without entropy =     -417.72022109  energy(sigma->0) =     -417.72022109


--------------------------------------------------------------------------------------------------------




--------------------------------------- Iteration      1(   8)  ---------------------------------------


    POTLOK:  cpu time    0.0794: real time    0.0799
    SETDIJ:  cpu time    0.0098: real time    0.0098
     EDDAV:  cpu time    7.9999: real time    8.0240
 BZINTS: Fermi energy: -0.290323;280.000000 electrons
         Band energy:***********;  BLOECHL correction:  0.000000
       DOS:  cpu time    0.0142: real time    0.0142
    CHARGE:  cpu time    0.1806: real time    0.1807
    MIXING:  cpu time    0.0014: real time    0.0014
    --------------------------------------------
      LOOP:  cpu time    8.2853: real time    8.3100

 eigenvalue-minimisations  :  4256
 total energy-change (2. order) : 0.1673602E+01  (-0.1693533E+01)
 number of electron     279.9999995 magnetization       0.0000000
 augmentation part       21.2016290 magnetization      -0.0002499

 Broyden mixing:
  rms(total) = 0.15209E+01    rms(broyden)= 0.15207E+01
  rms(prec ) = 0.15726E+01
  weight for this iteration     100.00

 eigenvalues of (default mixing * dielectric matrix)
  average eigenvalue GAMMA=   1.8868
  3.3568  1.4913  0.8124

 Free energy of the ion-electron system (eV)
  ---------------------------------------------------
  alpha Z        PSCENC =       227.00334759
  Ewald energy   TEWEN  =     29256.86539681
  -Hartree energ DENC   =    -41981.28195508
  -exchange      EXHF   =         0.00000000
  -V(xc)+E(xc)   XCENC  =      1175.33511029
  PAW double counting   =     36405.08864366   -36915.03498049
  entropy T*S    EENTRO =         0.00000000
  eigenvalues    EBANDS =     -3755.75833375
  atomic energy  EATOM  =     15171.73615219
  Solvation  Ediel_sol  =         0.00000000
  ---------------------------------------------------
  free energy    TOTEN  =      -416.04661878 eV

  energy without entropy =     -416.04661878  energy(sigma->0) =     -416.04661878


--------------------------------------------------------------------------------------------------------




--------------------------------------- Iteration      1(   9)  ---------------------------------------


    POTLOK:  cpu time    0.0738: real time    0.0744
    SETDIJ:  cpu time    0.0094: real time    0.0094
     EDDAV:  cpu time    9.7877: real time    9.8176
 BZINTS: Fermi energy: -0.309077;280.000000 electrons
         Band energy:***********;  BLOECHL correction:  0.000000
       DOS:  cpu time    0.0144: real time    0.0144
    CHARGE:  cpu time    0.1823: real time    0.1823
    MIXING:  cpu time    0.0015: real time    0.0015
    --------------------------------------------
      LOOP:  cpu time   10.0690: real time   10.0996

 eigenvalue-minimisations  :  5472
 total energy-change (2. order) :-0.1959032E+00  (-0.1250560E+01)
 number of electron     279.9999997 magnetization       0.0000000
 augmentation part       21.3291974 magnetization      -0.0003090

 Broyden mixing:
  rms(total) = 0.68241E+00    rms(broyden)= 0.68212E+00
  rms(prec ) = 0.85553E+00
  weight for this iteration     100.00

 eigenvalues of (default mixing * dielectric matrix)
  average eigenvalue GAMMA=   1.8252
  3.8362  1.7320  0.8663  0.8663

 Free energy of the ion-electron system (eV)
  ---------------------------------------------------
  alpha Z        PSCENC =       227.00334759
  Ewald energy   TEWEN  =     29256.86539681
  -Hartree energ DENC   =    -41969.17034022
  -exchange      EXHF   =         0.00000000
  -V(xc)+E(xc)   XCENC  =      1175.66544311
  PAW double counting   =     44641.67102085   -45157.07263181
  entropy T*S    EENTRO =         0.00000000
  eigenvalues    EBANDS =     -3762.94091047
  atomic energy  EATOM  =     15171.73615219
  Solvation  Ediel_sol  =         0.00000000
  ---------------------------------------------------
  free energy    TOTEN  =      -416.24252195 eV

  energy without entropy =     -416.24252195  energy(sigma->0) =     -416.24252195


--------------------------------------------------------------------------------------------------------




--------------------------------------- Iteration      1(  10)  ---------------------------------------


    POTLOK:  cpu time    0.0766: real time    0.0772
    SETDIJ:  cpu time    0.0099: real time    0.0099
     EDDAV:  cpu time    9.7226: real time    9.7535
 BZINTS: Fermi energy: -0.105276;280.000000 electrons
         Band energy:***********;  BLOECHL correction:  0.000000
       DOS:  cpu time    0.0145: real time    0.0145
    CHARGE:  cpu time    0.1968: real time    0.1968
    MIXING:  cpu time    0.0016: real time    0.0016
    --------------------------------------------
      LOOP:  cpu time   10.0220: real time   10.0536

 eigenvalue-minimisations  :  5440
 total energy-change (2. order) : 0.6455179E+00  (-0.7821681E+00)
 number of electron     279.9999995 magnetization      -0.0000000
 augmentation part       21.3050147 magnetization      -0.0004326

 Broyden mixing:
  rms(total) = 0.33676E+00    rms(broyden)= 0.33632E+00
  rms(prec ) = 0.38751E+00
  weight for this iteration     100.00

 eigenvalues of (default mixing * dielectric matrix)
  average eigenvalue GAMMA=   1.6783
  4.0056  1.9494  1.0629  0.6867  0.6867

 Free energy of the ion-electron system (eV)
  ---------------------------------------------------
  alpha Z        PSCENC =       227.00334759
  Ewald energy   TEWEN  =     29256.86539681
  -Hartree energ DENC   =    -41962.57928261
  -exchange      EXHF   =         0.00000000
  -V(xc)+E(xc)   XCENC  =      1175.97108630
  PAW double counting   =     47320.62612497   -47835.48501833
  entropy T*S    EENTRO =         0.00000000
  eigenvalues    EBANDS =     -3769.73481096
  atomic energy  EATOM  =     15171.73615219
  Solvation  Ediel_sol  =         0.00000000
  ---------------------------------------------------
  free energy    TOTEN  =      -415.59700404 eV

  energy without entropy =     -415.59700404  energy(sigma->0) =     -415.59700404


--------------------------------------------------------------------------------------------------------




--------------------------------------- Iteration      1(  11)  ---------------------------------------


    POTLOK:  cpu time    0.0747: real time    0.0753
    SETDIJ:  cpu time    0.0099: real time    0.0099
     EDDAV:  cpu time    8.5420: real time    8.5644
 BZINTS: Fermi energy: -0.220305;280.000000 electrons
         Band energy:***********;  BLOECHL correction:  0.000000
       DOS:  cpu time    0.0144: real time    0.0144
    CHARGE:  cpu time    0.1673: real time    0.1674
    MIXING:  cpu time    0.0017: real time    0.0017
    --------------------------------------------
      LOOP:  cpu time    8.8100: real time    8.8331

 eigenvalue-minimisations  :  4624
 total energy-change (2. order) : 0.1049576E+00  (-0.1079269E+00)
 number of electron     279.9999995 magnetization      -0.0000000
 augmentation part       21.3072647 magnetization      -0.0001789

 Broyden mixing:
  rms(total) = 0.16194E+00    rms(broyden)= 0.16189E+00
  rms(prec ) = 0.18328E+00
  weight for this iteration     100.00

 eigenvalues of (default mixing * dielectric matrix)
  average eigenvalue GAMMA=   1.6150
  3.9536  2.0457  1.3765  0.9584  0.6778  0.6778

 Free energy of the ion-electron system (eV)
  ---------------------------------------------------
  alpha Z        PSCENC =       227.00334759
  Ewald energy   TEWEN  =     29256.86539681
  -Hartree energ DENC   =    -41931.65283058
  -exchange      EXHF   =         0.00000000
  -V(xc)+E(xc)   XCENC  =      1175.15345925
  PAW double counting   =     48688.93621581   -49203.20459998
  entropy T*S    EENTRO =         0.00000000
  eigenvalues    EBANDS =     -3800.32918755
  atomic energy  EATOM  =     15171.73615219
  Solvation  Ediel_sol  =         0.00000000
  ---------------------------------------------------
  free energy    TOTEN  =      -415.49204646 eV

  energy without entropy =     -415.49204646  energy(sigma->0) =     -415.49204646


--------------------------------------------------------------------------------------------------------




--------------------------------------- Iteration      1(  12)  ---------------------------------------


    POTLOK:  cpu time    0.0782: real time    0.0803
    SETDIJ:  cpu time    0.0099: real time    0.0099
     EDDAV:  cpu time    8.2695: real time    8.2921
 BZINTS: Fermi energy: -0.274069;280.000000 electrons
         Band energy:***********;  BLOECHL correction:  0.000000
       DOS:  cpu time    0.0144: real time    0.0145
    CHARGE:  cpu time    0.1779: real time    0.1801
    MIXING:  cpu time    0.0018: real time    0.0018
    --------------------------------------------
      LOOP:  cpu time    8.5520: real time    8.5788

 eigenvalue-minimisations  :  4432
 total energy-change (2. order) : 0.2941541E-01  (-0.2850984E-01)
 number of electron     279.9999995 magnetization      -0.0000000
 augmentation part       21.3121209 magnetization      -0.0000484

 Broyden mixing:
  rms(total) = 0.97179E-01    rms(broyden)= 0.97143E-01
  rms(prec ) = 0.11594E+00
  weight for this iteration     100.00

 eigenvalues of (default mixing * dielectric matrix)
  average eigenvalue GAMMA=   1.6089
  3.9037  2.4262  1.6922  0.9680  0.9680  0.6523  0.6523

 Free energy of the ion-electron system (eV)
  ---------------------------------------------------
  alpha Z        PSCENC =       227.00334759
  Ewald energy   TEWEN  =     29256.86539681
  -Hartree energ DENC   =    -41915.47101946
  -exchange      EXHF   =         0.00000000
  -V(xc)+E(xc)   XCENC  =      1174.62773486
  PAW double counting   =     48854.70588061   -49368.41039024
  entropy T*S    EENTRO =         0.00000000
  eigenvalues    EBANDS =     -3816.51973340
  atomic energy  EATOM  =     15171.73615219
  Solvation  Ediel_sol  =         0.00000000
  ---------------------------------------------------
  free energy    TOTEN  =      -415.46263105 eV

  energy without entropy =     -415.46263105  energy(sigma->0) =     -415.46263105


--------------------------------------------------------------------------------------------------------




--------------------------------------- Iteration      1(  13)  ---------------------------------------


    POTLOK:  cpu time    0.0779: real time    0.0786
    SETDIJ:  cpu time    0.0096: real time    0.0096
     EDDAV:  cpu time    7.9265: real time    7.9499
 BZINTS: Fermi energy: -0.304076;280.000000 electrons
         Band energy:***********;  BLOECHL correction:  0.000000
       DOS:  cpu time    0.0142: real time    0.0142
    CHARGE:  cpu time    0.1662: real time    0.1662
    MIXING:  cpu time    0.0019: real time    0.0019
    --------------------------------------------
      LOOP:  cpu time    8.1962: real time    8.2203

 eigenvalue-minimisations  :  4200
 total energy-change (2. order) : 0.1120184E-01  (-0.1575838E-01)
 number of electron     279.9999995 magnetization       0.0000000
 augmentation part       21.3176044 magnetization      -0.0000250

 Broyden mixing:
  rms(total) = 0.43477E-01    rms(broyden)= 0.43401E-01
  rms(prec ) = 0.51924E-01
  weight for this iteration     100.00

 eigenvalues of (default mixing * dielectric matrix)
  average eigenvalue GAMMA=   1.5705
  3.8874  2.6255  1.7871  1.0499  0.9460  0.9460  0.6609  0.6609

 Free energy of the ion-electron system (eV)
  ---------------------------------------------------
  alpha Z        PSCENC =       227.00334759
  Ewald energy   TEWEN  =     29256.86539681
  -Hartree energ DENC   =    -41906.63975733
  -exchange      EXHF   =         0.00000000
  -V(xc)+E(xc)   XCENC  =      1174.31045012
  PAW double counting   =     49002.42770496   -49515.98399140
  entropy T*S    EENTRO =         0.00000000
  eigenvalues    EBANDS =     -3825.17073215
  atomic energy  EATOM  =     15171.73615219
  Solvation  Ediel_sol  =         0.00000000
  ---------------------------------------------------
  free energy    TOTEN  =      -415.45142921 eV

  energy without entropy =     -415.45142921  energy(sigma->0) =     -415.45142921


--------------------------------------------------------------------------------------------------------




--------------------------------------- Iteration      1(  14)  ---------------------------------------


    POTLOK:  cpu time    0.0757: real time    0.0764
    SETDIJ:  cpu time    0.0099: real time    0.0099
     EDDAV:  cpu time    8.0738: real time    8.1004
 BZINTS: Fermi energy: -0.305326;280.000000 electrons
         Band energy:***********;  BLOECHL correction:  0.000000
       DOS:  cpu time    0.0145: real time    0.0145
    CHARGE:  cpu time    0.1649: real time    0.1649
    MIXING:  cpu time    0.0019: real time    0.0019
    --------------------------------------------
      LOOP:  cpu time    8.3406: real time    8.3680

 eigenvalue-minimisations  :  4312
 total energy-change (2. order) : 0.7086608E-03  (-0.3613430E-02)
 number of electron     279.9999995 magnetization       0.0000000
 augmentation part       21.3177830 magnetization      -0.0000012

 Broyden mixing:
  rms(total) = 0.30962E-01    rms(broyden)= 0.30950E-01
  rms(prec ) = 0.33250E-01
  weight for this iteration     100.00

 eigenvalues of (default mixing * dielectric matrix)
  average eigenvalue GAMMA=   1.5395
  3.8563  2.6837  1.7123  1.2428  1.0329  1.0329  0.9707  0.6617  0.6617

 Free energy of the ion-electron system (eV)
  ---------------------------------------------------
  alpha Z        PSCENC =       227.00334759
  Ewald energy   TEWEN  =     29256.86539681
  -Hartree energ DENC   =    -41906.09881945
  -exchange      EXHF   =         0.00000000
  -V(xc)+E(xc)   XCENC  =      1174.26891976
  PAW double counting   =     49055.52189294   -49569.00373192
  entropy T*S    EENTRO =         0.00000000
  eigenvalues    EBANDS =     -3825.74387845
  atomic energy  EATOM  =     15171.73615219
  Solvation  Ediel_sol  =         0.00000000
  ---------------------------------------------------
  free energy    TOTEN  =      -415.45072055 eV

  energy without entropy =     -415.45072055  energy(sigma->0) =     -415.45072055


--------------------------------------------------------------------------------------------------------




--------------------------------------- Iteration      1(  15)  ---------------------------------------


    POTLOK:  cpu time    0.0758: real time    0.0763
    SETDIJ:  cpu time    0.0099: real time    0.0099
     EDDAV:  cpu time    8.9396: real time    8.9664
 BZINTS: Fermi energy: -0.300325;280.000000 electrons
         Band energy:***********;  BLOECHL correction:  0.000000
       DOS:  cpu time    0.0149: real time    0.0149
    CHARGE:  cpu time    0.1624: real time    0.1628
    MIXING:  cpu time    0.0020: real time    0.0020
    --------------------------------------------
      LOOP:  cpu time    9.2046: real time    9.2323

 eigenvalue-minimisations  :  4912
 total energy-change (2. order) : 0.2841513E-03  (-0.5325775E-03)
 number of electron     279.9999995 magnetization      -0.0000000
 augmentation part       21.3186725 magnetization      -0.0000007

 Broyden mixing:
  rms(total) = 0.18960E-01    rms(broyden)= 0.18958E-01
  rms(prec ) = 0.19579E-01
  weight for this iteration     100.00

 eigenvalues of (default mixing * dielectric matrix)
  average eigenvalue GAMMA=   1.5943
  3.7283  2.5634  2.5634  1.5293  1.5293  0.9476  0.8744  0.8744  0.6664  0.6664

 Free energy of the ion-electron system (eV)
  ---------------------------------------------------
  alpha Z        PSCENC =       227.00334759
  Ewald energy   TEWEN  =     29256.86539681
  -Hartree energ DENC   =    -41907.02196693
  -exchange      EXHF   =         0.00000000
  -V(xc)+E(xc)   XCENC  =      1174.27906322
  PAW double counting   =     49059.49920570   -49573.04906713
  entropy T*S    EENTRO =         0.00000000
  eigenvalues    EBANDS =     -3824.76256784
  atomic energy  EATOM  =     15171.73615219
  Solvation  Ediel_sol  =         0.00000000
  ---------------------------------------------------
  free energy    TOTEN  =      -415.45043640 eV

  energy without entropy =     -415.45043640  energy(sigma->0) =     -415.45043640


--------------------------------------------------------------------------------------------------------




--------------------------------------- Iteration      1(  16)  ---------------------------------------


    POTLOK:  cpu time    0.0731: real time    0.0736
    SETDIJ:  cpu time    0.0102: real time    0.0102
     EDDAV:  cpu time    7.7330: real time    7.8813
 BZINTS: Fermi energy: -0.295324;280.000000 electrons
         Band energy:***********;  BLOECHL correction:  0.000000
       DOS:  cpu time    0.0148: real time    0.0148
    CHARGE:  cpu time    0.1637: real time    0.1638
    MIXING:  cpu time    0.0021: real time    0.0021
    --------------------------------------------
      LOOP:  cpu time    7.9968: real time    8.1459

 eigenvalue-minimisations  :  4128
 total energy-change (2. order) : 0.5859503E-05  (-0.1004081E-03)
 number of electron     279.9999995 magnetization       0.0000000
 augmentation part       21.3177490 magnetization       0.0000004

 Broyden mixing:
  rms(total) = 0.93617E-02    rms(broyden)= 0.93602E-02
  rms(prec ) = 0.97766E-02
  weight for this iteration     100.00

 eigenvalues of (default mixing * dielectric matrix)
  average eigenvalue GAMMA=   1.6587
  3.7399  3.7399  2.5103  1.5672  1.5672  1.1601  0.8921  0.8921  0.6654  0.6654
  0.8462

 Free energy of the ion-electron system (eV)
  ---------------------------------------------------
  alpha Z        PSCENC =       227.00334759
  Ewald energy   TEWEN  =     29256.86539681
  -Hartree energ DENC   =    -41908.51235042
  -exchange      EXHF   =         0.00000000
  -V(xc)+E(xc)   XCENC  =      1174.31328524
  PAW double counting   =     49049.06471355   -49562.62905627
  entropy T*S    EENTRO =         0.00000000
  eigenvalues    EBANDS =     -3823.29191922
  atomic energy  EATOM  =     15171.73615219
  Solvation  Ediel_sol  =         0.00000000
  ---------------------------------------------------
  free energy    TOTEN  =      -415.45043054 eV

  energy without entropy =     -415.45043054  energy(sigma->0) =     -415.45043054


--------------------------------------------------------------------------------------------------------




--------------------------------------- Iteration      1(  17)  ---------------------------------------


    POTLOK:  cpu time    0.0748: real time    0.0759
    SETDIJ:  cpu time    0.0098: real time    0.0098
     EDDAV:  cpu time    5.5641: real time    5.5813
 BZINTS: Fermi energy: -0.295324;280.000000 electrons
         Band energy:***********;  BLOECHL correction:  0.000000
       DOS:  cpu time    0.0134: real time    0.0134
    --------------------------------------------
      LOOP:  cpu time    5.6621: real time    5.6803

 eigenvalue-minimisations  :  2560
 total energy-change (2. order) :-0.2031326E-04  (-0.4388277E-04)
 number of electron     279.9999995 magnetization       0.0000000
 augmentation part       21.3177490 magnetization       0.0000004

 Free energy of the ion-electron system (eV)
  ---------------------------------------------------
  alpha Z        PSCENC =       227.00334759
  Ewald energy   TEWEN  =     29256.86539681
  -Hartree energ DENC   =    -41908.76145646
  -exchange      EXHF   =         0.00000000
  -V(xc)+E(xc)   XCENC  =      1174.31690813
  PAW double counting   =     49061.65959632   -49575.20882430
  entropy T*S    EENTRO =         0.00000000
  eigenvalues    EBANDS =     -3823.06157113
  atomic energy  EATOM  =     15171.73615219
  Solvation  Ediel_sol  =         0.00000000
  ---------------------------------------------------
  free energy    TOTEN  =      -415.45045085 eV

  energy without entropy =     -415.45045085  energy(sigma->0) =     -415.45045085


--------------------------------------------------------------------------------------------------------




 average (electrostatic) potential at core
  the test charge radii are     0.6991  0.7089  0.9911  0.6991  0.7215
  (the norm of the test charge is              1.0000)
       1 -58.9527       2 -59.3925       3 -59.3866       4 -59.1170       5 -59.0808
       6 -59.1465       7 -59.1447       8 -58.9336       9 -58.8462      10 -59.9925
      11 -59.3032      12 -59.9817      13 -58.9598      14 -58.9822      15 -58.6933
      16 -59.1805      17 -59.1299      18 -59.0748      19 -59.2666      20 -58.9271
      21 -58.9365      22 -59.2392      23 -59.1315      24 -59.2338      25 -73.2745
      26 -70.7345      27 -70.7294      28 -70.9749      29 -71.0698      30 -70.8663
      31 -70.7761      32 -74.1760      33 -72.7644      34 -71.3407      35 -72.6728
      36 -70.9499      37 -70.9563      38 -71.4129      39 -72.6067      40 -74.3282
      41 -72.9941      42 -70.9697      43 -70.8362      44 -71.1305      45 -71.2041
      46 -70.7960      47 -70.7850      48 -74.0455      49 -72.9853      50 -71.1511
      51 -71.0600      52 -70.7294      53 -70.6672      54 -71.0676      55 -71.0399
      56 -74.3807      57 -79.7379      58 -58.5652      59 -81.4346



 E-fermi :  -0.2953     XC(G=0):  -3.9175     alpha+bet : -3.4095


 spin component 1

 k-point     1 :       0.0000    0.0000    0.0000
  band No.  band energies     occupation 
      1     -28.9694      1.00000
      2     -28.8337      1.00000
      3     -28.5508      1.00000
      4     -28.4568      1.00000
      5     -28.2922      1.00000
      6     -27.1949      1.00000
      7     -27.0222      1.00000
      8     -26.9449      1.00000
      9     -26.0992      1.00000
     10     -25.8368      1.00000
     11     -25.7763      1.00000
     12     -25.7654      1.00000
     13     -25.6876      1.00000
     14     -25.5207      1.00000
     15     -25.1615      1.00000
     16     -25.1315      1.00000
     17     -25.0563      1.00000
     18     -25.0011      1.00000
     19     -24.9369      1.00000
     20     -24.4223      1.00000
     21     -24.2375      1.00000
     22     -24.1836      1.00000
     23     -23.1283      1.00000
     24     -23.0746      1.00000
     25     -22.6053      1.00000
     26     -22.5277      1.00000
     27     -22.4167      1.00000
     28     -22.3687      1.00000
     29     -22.2982      1.00000
     30     -22.2015      1.00000
     31     -22.1831      1.00000
     32     -22.1581      1.00000
     33     -22.0384      1.00000
     34     -21.3291      1.00000
     35     -21.2758      1.00000
     36     -21.1613      1.00000
     37     -21.0163      1.00000
     38     -20.4980      1.00000
     39     -18.4202      1.00000
     40     -18.3744      1.00000
     41     -18.1964      1.00000
     42     -17.9774      1.00000
     43     -17.8225      1.00000
     44     -17.7329      1.00000
     45     -17.2992      1.00000
     46     -17.0873      1.00000
     47     -16.1810      1.00000
     48     -16.0479      1.00000
     49     -15.9488      1.00000
     50     -15.8231      1.00000
     51     -15.6863      1.00000
     52     -15.5036      1.00000
     53     -15.2265      1.00000
     54     -15.1114      1.00000
     55     -14.8368      1.00000
     56     -14.6982      1.00000
     57     -14.6237      1.00000
     58     -14.4452      1.00000
     59     -14.3057      1.00000
     60     -14.1888      1.00000
     61     -14.0250      1.00000
     62     -13.9331      1.00000
     63     -13.7671      1.00000
     64     -13.5182      1.00000
     65     -13.3908      1.00000
     66     -13.1708      1.00000
     67     -13.0340      1.00000
     68     -12.8038      1.00000
     69     -12.5980      1.00000
     70     -12.3467      1.00000
     71     -12.2972      1.00000
     72     -12.0995      1.00000
     73     -12.0104      1.00000
     74     -11.8109      1.00000
     75     -11.7012      1.00000
     76     -11.5058      1.00000
     77     -11.3299      1.00000
     78     -11.2308      1.00000
     79     -11.1625      1.00000
     80     -10.9612      1.00000
     81     -10.8704      1.00000
     82     -10.7736      1.00000
     83     -10.4045      1.00000
     84     -10.2809      1.00000
[...]
   -.213E+02 0.672E+02 0.237E+03   0.213E+02 -.699E+02 -.240E+03   -.375E+00 0.395E+01 0.234E+01   -.120E-01 0.198E-01 0.171E-01
   -.782E+02 -.208E+02 0.114E+03   0.817E+02 0.221E+02 -.116E+03   -.357E+01 -.182E+01 0.145E+01   -.104E-02 0.108E-01 0.121E-02
   0.530E+02 -.331E+02 -.400E+02   -.528E+02 0.340E+02 0.414E+02   0.743E+00 0.258E+01 0.872E+00   0.838E-03 0.134E-01 0.759E-03
   0.300E+02 -.243E+02 -.586E+02   -.305E+02 0.232E+02 0.585E+02   -.296E+01 -.205E+01 0.529E+00   0.272E-02 -.286E-02 0.647E-02
   -.556E+01 -.424E+01 -.716E+02   0.589E+01 0.285E+01 0.722E+02   0.335E+01 -.166E+01 0.346E+00   0.122E-02 0.283E-02 0.503E-03
   -.341E+02 0.212E+02 -.861E+02   0.319E+02 -.200E+02 0.880E+02   0.120E+01 -.201E+01 -.136E+01   0.158E-01 -.133E-01 -.105E-01
   -.439E+01 0.223E+02 0.569E+02   0.442E+01 -.268E+02 -.573E+02   0.934E-01 0.388E+01 -.645E+00   0.813E-02 -.139E-01 0.116E-01
   0.432E+02 0.190E+02 -.789E+02   -.410E+02 -.178E+02 0.813E+02   -.132E+01 -.247E+01 -.907E+00   0.170E-01 0.147E-01 0.704E-02
   -.411E+01 -.179E+02 -.198E+02   0.455E+01 0.177E+02 0.186E+02   -.199E+00 0.373E+01 -.759E+00   -.208E-01 0.856E-03 0.464E-03
   0.465E+02 0.347E+02 0.230E+03   -.472E+02 -.350E+02 -.230E+03   -.324E+01 -.137E+01 -.104E+01   -.259E-01 0.686E-02 0.609E-02
   -.142E+02 0.258E+02 0.103E+03   0.150E+02 -.273E+02 -.103E+03   0.341E+01 -.132E+01 -.506E+00   -.411E-01 0.169E-01 0.393E-02
   0.808E+02 -.193E+02 0.785E+02   -.844E+02 0.204E+02 -.796E+02   0.361E+01 -.192E+01 0.765E+00   0.526E-02 -.666E-02 0.421E-02
   0.853E+01 0.951E+02 0.253E+03   -.741E+01 -.979E+02 -.256E+03   -.152E+00 0.375E+01 0.215E+01   0.101E-01 0.349E-02 0.141E-03
   -.796E+02 -.738E+02 -.118E+03   0.834E+02 0.753E+02 0.120E+03   -.356E+01 -.185E+01 -.588E+00   -.388E-02 -.202E-01 0.346E-02
   -.456E+02 -.312E+02 -.168E+03   0.444E+02 0.328E+02 0.169E+03   -.396E+00 0.259E+01 0.906E+00   0.655E-03 -.149E-01 -.677E-02
   0.944E+01 -.544E+01 -.130E+03   -.102E+02 0.408E+01 0.131E+03   -.344E+01 -.157E+01 0.586E+00   -.671E-02 -.136E-01 -.102E-03
   -.333E+02 -.185E+02 -.106E+03   0.342E+02 0.174E+02 0.106E+03   0.291E+01 -.217E+01 0.112E+01   0.324E-02 -.212E-01 0.400E-02
   0.937E+02 -.852E+02 0.164E+03   -.957E+02 0.891E+02 -.165E+03   0.356E+01 -.266E+01 0.358E+00   -.411E-02 0.178E-01 0.557E-02
   -.129E+02 0.537E+02 -.226E+03   0.130E+02 -.577E+02 0.230E+03   -.747E-01 0.414E+01 -.181E+01   -.907E-02 0.457E-03 -.222E-02
   -.106E+03 -.311E+02 -.730E+02   0.109E+03 0.327E+02 0.749E+02   -.396E+01 -.135E+01 -.144E+01   -.319E-01 -.142E-01 -.738E-02
   -.181E+02 0.507E+02 0.198E+03   0.188E+02 -.514E+02 -.202E+03   -.337E+00 0.148E+01 0.315E+01   0.583E-01 0.142E-01 0.817E-02
   -.242E+03 -.361E+02 0.269E+03   0.284E+03 0.587E+02 -.287E+03   -.318E+02 -.165E+02 0.129E+02   0.293E-02 0.229E-01 0.462E-02
   0.195E+03 -.191E+03 -.287E+03   -.236E+03 0.214E+03 0.304E+03   0.311E+02 -.167E+02 -.107E+02   0.270E-02 -.822E-02 0.505E-03
   0.310E+01 0.213E+03 0.476E+03   0.384E+00 -.252E+03 -.508E+03   -.186E+01 0.292E+02 0.224E+02   -.295E-01 0.460E-01 0.330E-01
   -.488E+02 0.177E+03 0.499E+03   0.466E+02 -.213E+03 -.535E+03   0.178E+01 0.279E+02 0.255E+02   0.159E-01 0.377E-01 0.360E-01
   0.239E+03 -.122E+03 -.136E+03   -.280E+03 0.150E+03 0.138E+03   0.301E+02 -.194E+02 -.241E-01   -.143E-01 0.807E-02 -.312E-02
   -.180E+03 -.991E+02 0.306E+03   0.221E+03 0.112E+03 -.334E+03   -.306E+02 -.102E+02 0.197E+02   -.361E-02 0.389E-02 0.560E-02
   -.549E+01 -.656E+00 -.298E+02   0.590E+01 0.345E+00 0.314E+02   -.200E+00 0.153E+00 -.106E+01   -.306E-02 0.197E-03 0.127E-02
   0.225E+02 -.300E+02 -.117E+03   -.225E+02 0.311E+02 0.123E+03   0.256E+00 -.771E+00 -.404E+01   0.472E-02 0.157E-02 0.484E-02
   0.962E+00 -.762E+02 -.365E+03   0.280E+02 0.952E+02 0.400E+03   -.226E+02 -.141E+02 -.239E+02   0.211E-01 0.177E-01 0.760E-02
   0.727E+01 0.835E+02 -.925E+02   -.344E+02 -.789E+02 0.107E+03   0.192E+02 -.413E+01 -.106E+02   0.208E-01 0.144E-02 -.191E-02
   -.218E+02 0.137E+03 0.150E+03   0.257E+02 -.183E+03 -.165E+03   -.233E+01 0.341E+02 0.976E+01   0.619E-02 -.266E-01 0.150E-01
   0.443E+00 0.133E+03 0.167E+03   -.330E+01 -.179E+03 -.182E+03   0.154E+01 0.340E+02 0.983E+01   0.139E-01 -.116E-01 0.172E-01
   0.465E+02 -.743E+02 -.399E+03   -.816E+02 0.940E+02 0.426E+03   0.272E+02 -.145E+02 -.180E+02   -.373E-02 -.226E-01 -.122E-01
   -.379E+00 0.952E+02 -.131E+03   0.251E+02 -.915E+02 0.151E+03   -.176E+02 -.354E+01 -.143E+02   0.471E-01 0.184E-01 0.177E-01
   0.647E+02 0.225E+02 0.864E+02   -.712E+02 -.270E+02 -.866E+02   0.389E+01 0.279E+01 -.324E+00   0.619E-02 0.220E-01 0.577E-02
   0.182E+02 0.485E+02 0.179E+03   -.210E+02 -.507E+02 -.185E+03   0.203E+01 0.163E+01 0.400E+01   -.638E-01 0.195E-01 0.562E-02
   -.235E+03 -.129E+03 -.149E+03   0.276E+03 0.155E+03 0.151E+03   -.303E+02 -.184E+02 -.101E+01   -.117E-01 -.168E-01 0.776E-02
   0.185E+03 -.838E+02 0.238E+03   -.227E+03 0.965E+02 -.262E+03   0.317E+02 -.992E+01 0.166E+02   0.357E-02 -.218E-01 0.115E-01
   0.162E+02 0.205E+03 0.514E+03   -.108E+02 -.242E+03 -.548E+03   -.429E+01 0.289E+02 0.230E+02   0.385E-01 -.573E-02 -.361E-02
   0.753E+01 0.293E+03 0.431E+03   -.101E+02 -.340E+03 -.447E+03   0.763E+00 0.341E+02 0.108E+02   -.722E-02 -.749E-02 -.516E-02
   0.243E+03 -.373E+02 0.162E+03   -.286E+03 0.618E+02 -.171E+03   0.323E+02 -.176E+02 0.648E+01   0.256E-01 -.576E-02 0.488E-02
   -.177E+03 -.196E+03 -.353E+03   0.216E+03 0.218E+03 0.374E+03   -.297E+02 -.164E+02 -.137E+02   -.100E-02 -.312E-01 0.124E-02
   0.938E+00 -.431E+02 -.153E+02   -.815E+00 0.450E+02 0.120E+02   -.161E+00 -.112E+01 0.209E+01   -.685E-03 -.173E-01 0.800E-02
   -.220E+02 -.330E+02 -.227E+03   0.214E+02 0.359E+02 0.235E+03   0.178E+00 -.209E+01 -.544E+01   -.362E-02 -.230E-01 -.189E-02
   -.280E+03 -.816E+02 -.112E+03   0.323E+03 0.106E+03 0.113E+03   -.311E+02 -.184E+02 -.137E+01   -.315E-01 -.256E-01 -.444E-02
   0.222E+03 -.183E+03 0.365E+03   -.265E+03 0.204E+03 -.378E+03   0.309E+02 -.168E+02 0.653E+01   -.300E-01 0.142E-01 0.667E-02
   0.156E+01 0.183E+03 -.465E+03   0.457E+01 -.222E+03 0.498E+03   -.413E+01 0.288E+02 -.229E+02   -.333E-02 0.567E-02 -.345E-02
   -.440E+02 0.142E+03 -.523E+03   0.423E+02 -.177E+03 0.560E+03   0.109E+01 0.274E+02 -.263E+02   -.170E-01 -.480E-02 -.938E-02
   0.236E+03 -.160E+03 0.284E+03   -.270E+03 0.190E+03 -.302E+03   0.246E+02 -.225E+02 0.120E+02   0.301E-02 0.179E-01 0.877E-02
   -.208E+03 -.907E+02 -.226E+03   0.253E+03 0.102E+03 0.246E+03   -.322E+02 -.993E+01 -.141E+02   -.609E-01 -.627E-02 -.154E-01
   -.607E+02 0.260E+02 0.518E+02   0.653E+02 -.297E+02 -.557E+02   -.261E+01 0.214E+01 0.208E+01   -.490E-02 -.124E-01 -.716E-02
   0.550E+02 -.142E+03 -.118E+04   -.570E+02 0.165E+03 0.122E+04   0.149E+01 -.196E+02 -.266E+02   0.123E+00 0.583E-02 -.393E-01
   -.773E+02 -.176E+03 0.166E+03   0.912E+02 0.208E+03 -.202E+03   -.775E+01 -.175E+02 0.204E+02   0.243E-02 -.109E-02 -.369E-02
   0.639E+02 0.144E+03 -.859E+02   -.890E+02 -.201E+03 0.152E+03   0.190E+02 0.431E+02 -.501E+02   0.647E-02 0.356E-02 -.938E-02
 -----------------------------------------------------------------------------------------------
   -.830E+01 -.297E+02 0.356E+02   0.426E-12 0.284E-13 -.568E-12   0.820E+01 0.298E+02 -.357E+02   0.109E+00 0.204E-02 0.143E+00


 POSITION                                       TOTAL-FORCE (eV/Angst)
 -----------------------------------------------------------------------------------
     -0.01316      2.17975      5.76028        -0.020291      4.492822     -1.530364
      1.07413      4.05469      5.84864        -5.097317      0.495977     -0.007223
     -1.12190      4.01462      5.77114         4.969980      0.531727      0.538824
      5.06060      0.58193      6.80611         0.014880     -0.594705      0.918871
      3.06949      4.05359      5.57628        -0.382063      1.278871     -0.674519
      1.04359      0.52397      6.05354        -0.110593     -0.508455     -0.324786
     -3.16220      7.31064      6.51845         0.958021      3.542890      2.198918
     -1.95759      9.11260      6.74680        -3.413507     -3.144430      0.522458
     -4.12091      9.19662      6.70620         3.690295     -3.051703      0.894553
      2.11714      5.56749      6.75608        -1.052720     -0.818136      0.434631
      0.03468      9.03552      6.58535         0.138200     -0.568749     -1.003390
     -2.24328      5.56462      6.47581         0.908178     -1.255153      1.490434
      6.14818      2.19089      6.37065         0.221005      3.544386     -1.870114
      7.13142      3.87956      5.40940        -3.967572     -1.719761     -0.920611
      5.03388      3.95583      5.87904         4.111063     -2.871876     -0.681303
     11.12684      0.38054      6.21219        -0.042565     -0.746869     -0.380717
      9.10565      3.82016      5.33017         0.978044      0.931230     -1.075845
      7.18743      0.57041      6.88977         0.281681     -0.279148      0.805881
      3.13859      7.21641      7.14343        -1.649709      4.259408      2.143198
      4.15672      9.10195      7.03297        -4.218559     -2.939778      2.169668
      1.98816      9.08293      7.01247         3.884372     -3.296378      1.504792
      8.00253      5.63506      5.68167         1.556203      1.290133     -0.287441
      6.13375      9.12009      7.18852         0.006818      0.121871      1.227446
      4.19041      5.60409      6.59710        -1.117823      0.300407      0.429136
     -0.01263      3.42442      5.74132         0.391806      0.765509     -0.919962
      1.02640      1.62902      5.68752        10.392760      6.134595     -4.993888
      4.08546     -0.03785      7.02343       -10.200121      5.818839      6.326590
      4.08741      3.54163      5.31045         1.597129     -9.745232     -9.634495
      2.00208      3.65485      5.27569        -0.426967     -8.032971    -10.514248
      5.08352      1.73404      6.64055       -10.260135      8.475109      1.544407
     -4.08564     10.14388      6.02682        10.239291      3.063353     -8.605204
      0.01481      0.01882      6.50446         0.207950     -0.152604      0.556407
     -3.05517      8.52308      6.73438         0.268817      0.294754      1.854713
     -2.29789      6.61846      6.96575         6.411844      4.951685     10.357348
      1.07365      4.99891      6.61942        -7.924179      0.453769      3.722318
      1.06586      8.46580      6.59530         1.605568    -11.690487     -4.997958
     -0.99396      8.47934      6.45868        -1.308553    -11.658123     -5.019877
      2.13196      6.58563      7.32275        -7.959144      5.163490      9.007881
     -1.21927      4.95378      6.53448         7.175939      0.122728      5.796643
      9.01992      4.93836      5.88599        -2.546516     -1.651089     -0.476775
      6.11897      3.28585      5.79794        -0.861078     -0.496796     -2.115855
      7.19592      1.71806      6.66809        10.534403      8.137406      1.015820
      4.06995     10.01115      6.30656       -10.693466      2.736892     -7.981172
     -1.98665      3.58072      5.13114         1.165769     -8.480614    -10.518017
      8.10601      3.25859      5.14073        -1.771541    -12.616447     -5.730792
     11.11569      1.49050      5.87468       -10.776590      6.836987     -2.585297
      8.11634     -0.05830      7.25210         9.326825      5.923331      7.381044
      6.12652     -0.04477      6.70863        -0.041956      0.698577     -1.218377
      3.07193      8.45342      7.18238        -0.444934      0.749176      2.541026
      4.17371      6.73596      6.89548        11.317896      6.298132      0.254909
      7.05082      5.07485      5.35480       -11.969178      4.354409     -5.802060
     -5.00267      8.77617      7.37349         1.994749     -9.471251      9.411359
      5.10997      8.70389      7.60280        -0.658706     -7.658051     11.125897
     -4.07361      6.96953      5.86707        -9.027374      7.863973     -5.959198
      5.13959      4.94407      6.51738        12.006306      1.788346      6.384164
      3.10351      5.07950      6.29748         1.956878     -1.560782     -1.818608
     -0.11787      6.05367      7.49384        -0.369149      3.585128      5.089563
     -0.11787      6.05367     12.75624         6.129945     13.852014    -16.120647
     -0.40036      5.41493      0.30014        -6.130312    -13.848333     16.119846
 -----------------------------------------------------------------------------------
    total drift:                                0.006777      0.016295      0.008812


--------------------------------------------------------------------------------------------------------



  FREE ENERGIE OF THE ION-ELECTRON SYSTEM (eV)
  ---------------------------------------------------
  free  energy   TOTEN  =      -419.95439397 eV

  energy  without entropy=     -419.95439397  energy(sigma->0) =     -419.95439397



--------------------------------------------------------------------------------------------------------


    POTLOK:  cpu time    0.0898: real time    0.0915


--------------------------------------------------------------------------------------------------------


     LOOP+:  cpu time  150.1969: real time  150.8176
    4ORBIT:  cpu time    0.0000: real time    0.0000



 total charge     

# of ion       s       p       d       tot
------------------------------------------
    1        1.000   2.213   0.000   3.213
    2        0.982   2.189   0.000   3.170
    3        0.986   2.200   0.000   3.186
    4        1.014   2.231   0.000   3.245
    5        1.000   2.222   0.000   3.223
    6        1.020   2.244   0.000   3.264
    7        1.000   2.207   0.000   3.207
    8        0.997   2.199   0.000   3.197
    9        1.005   2.202   0.000   3.207
   10        1.023   2.275   0.000   3.299
   11        1.016   2.236   0.000   3.252
   12        1.031   2.288   0.000   3.319
   13        0.996   2.199   0.000   3.196
   14        0.992   2.200   0.000   3.192
   15        0.989   2.199   0.000   3.189
   16        1.022   2.251   0.000   3.273
   17        1.004   2.236   0.000   3.239
   18        1.009   2.229   0.000   3.238
   19        0.998   2.202   0.000   3.200
   20        1.000   2.197   0.000   3.197
   21        0.992   2.189   0.000   3.181
   22        1.010   2.232   0.000   3.241
   23        1.010   2.217   0.000   3.227
   24        1.017   2.252   0.000   3.269
   25        1.309   3.127   0.000   4.435
   26        1.348   3.022   0.000   4.370
   27        1.344   3.016   0.000   4.360
   28        1.344   2.982   0.000   4.326
   29        1.347   3.009   0.000   4.355
   30        1.342   3.011   0.000   4.353
   31        1.355   3.011   0.000   4.366
   32        1.335   3.169   0.000   4.505
   33        1.323   3.145   0.000   4.468
   34        1.343   3.028   0.000   4.370
   35        1.321   3.043   0.000   4.365
   36        1.339   3.007   0.000   4.346
   37        1.338   3.006   0.000   4.344
   38        1.338   3.017   0.000   4.355
   39        1.324   3.050   0.000   4.374
   40        1.336   3.186   0.000   4.523
   41        1.318   3.126   0.000   4.443
   42        1.339   2.998   0.000   4.337
   43        1.353   3.019   0.000   4.372
   44        1.347   3.008   0.000   4.355
   45        1.344   2.984   0.000   4.328
   46        1.349   3.028   0.000   4.377
   47        1.343   3.006   0.000   4.349
   48        1.331   3.173   0.000   4.505
   49        1.313   3.109   0.000   4.422
   50        1.350   3.020   0.000   4.369
   51        1.344   3.006   0.000   4.350
   52        1.340   2.993   0.000   4.333
   53        1.342   2.997   0.000   4.339
   54        1.339   3.003   0.000   4.341
   55        1.353   3.004   0.000   4.356
   56        1.334   3.177   0.000   4.511
   57        1.305   1.070  10.192  12.567
   58        1.090   1.722   0.000   2.812
   59        1.680   3.740   0.000   5.420
--------------------------------------------------
tot         71.013 157.321  10.192 238.525



 magnetization (x)

# of ion       s       p       d       tot
------------------------------------------
    1       -0.000  -0.000   0.000  -0.000
    2        0.000   0.000   0.000   0.000
    3       -0.000  -0.000   0.000  -0.000
    4       -0.000  -0.000   0.000  -0.000
    5        0.000   0.000   0.000   0.000
    6       -0.000  -0.000   0.000  -0.000
    7       -0.000  -0.000   0.000  -0.000
    8       -0.000  -0.000   0.000  -0.000
    9       -0.000  -0.000   0.000  -0.000
   10       -0.000  -0.000   0.000  -0.000
   11       -0.000  -0.000   0.000  -0.000
   12       -0.000   0.000   0.000   0.000
   13       -0.000  -0.000   0.000  -0.000
   14       -0.000  -0.000   0.000  -0.000
   15        0.000   0.000   0.000   0.000
   16       -0.000   0.000   0.000   0.000
   17       -0.000  -0.000   0.000  -0.000
   18       -0.000  -0.000   0.000  -0.000
   19       -0.000   0.000   0.000   0.000
   20       -0.000  -0.000   0.000  -0.000
   21       -0.000  -0.000   0.000  -0.000
   22       -0.000  -0.000   0.000  -0.000
   23        0.000  -0.000   0.000   0.000
   24        0.000   0.000   0.000   0.000
   25        0.000   0.000   0.000   0.000
   26        0.000   0.000   0.000   0.000
   27        0.000   0.000   0.000   0.000
   28       -0.000  -0.000   0.000  -0.000
   29       -0.000  -0.000   0.000  -0.000
   30        0.000   0.000   0.000   0.000
   31       -0.000  -0.000   0.000  -0.000
   32        0.000   0.000   0.000   0.000
   33       -0.000   0.000   0.000  -0.000
   34        0.000   0.000   0.000   0.000
   35        0.000  -0.000   0.000  -0.000
   36       -0.000  -0.000   0.000  -0.000
   37        0.000  -0.000   0.000   0.000
   38        0.000   0.000   0.000   0.000
   39       -0.000   0.000   0.000   0.000
   40       -0.000  -0.000   0.000  -0.000
   41       -0.000   0.000   0.000  -0.000
   42       -0.000   0.000   0.000   0.000
   43       -0.000   0.000   0.000   0.000
   44        0.000   0.000   0.000   0.000
   45       -0.000   0.000   0.000   0.000
   46       -0.000   0.000   0.000   0.000
   47       -0.000   0.000   0.000   0.000
   48        0.000  -0.000   0.000  -0.000
   49       -0.000  -0.000   0.000  -0.000
   50        0.000  -0.000   0.000  -0.000
   51       -0.000  -0.000   0.000  -0.000
   52        0.000   0.000   0.000   0.000
   53        0.000   0.000   0.000   0.000
   54       -0.000   0.000   0.000   0.000
   55       -0.000  -0.000   0.000  -0.000
   56       -0.000   0.000   0.000   0.000
   57        0.000   0.000   0.000   0.000
   58        0.000   0.000   0.000   0.000
   59        0.000  -0.000   0.000  -0.000
--------------------------------------------------
tot         -0.000  -0.000   0.000  -0.000

 BZINTS: Fermi energy: -0.295324;280.000000 electrons
         Band energy:***********;  BLOECHL correction:  0.000000

 total amount of memory used by VASP MPI-rank0    73995. kBytes
=======================================================================

   base      :      30000. kBytes
   nonl-proj :      13141. kBytes
   fftplans  :       2624. kBytes
   grid      :       7821. kBytes
   one-center:        155. kBytes
   wavefun   :      20254. kBytes

  
  
 General timing and accounting informations for this job:
 ========================================================
  
                  Total CPU time used (sec):      161.886
                            User time (sec):      160.882
                          System time (sec):        1.004
                         Elapsed time (sec):      162.822
  
                   Maximum memory used (kb):      157396.
                   Average memory used (kb):           0.
  
                          Minor page faults:        41028
                          Major page faults:            2
                 Voluntary context switches:         1240
