 vasp.5.4.4.18Apr17-6-g9f103f2a35 (build Sep 02 2021 13:24:58) complex          
  
 executed on             LinuxIFC date 2023.01.15  13:01:51
 running on   48 total cores
 distrk:  each k-point on   48 cores,    1 groups
 distr:  one band on NCORES_PER_BAND=  12 cores,    4 groups


--------------------------------------------------------------------------------------------------------


 INCAR:
 POTCAR:    PAW_PBE C 08Apr2002                   
 POTCAR:    PAW_PBE N 08Apr2002                   
 POTCAR:    PAW_PBE C 08Apr2002                   
 POTCAR:    PAW_PBE Cr_pv 02Aug2007               
 POTCAR:    PAW_PBE C 08Apr2002                   
   SHA256 =  253f7b50bb8d59471dbedb8285d89021f4a42ed1a2c5d38a03a736e69125dd95 C/
   COPYR  = (c) Copyright 08Apr2002 Georg Kresse                                
   COPYR  = This file is part of the software VASP. Any use, copying, and all ot
   COPYR  = If you do not have a valid VASP license, you may not use, copy or di
   VRHFIN =C: s2p2                                                              
   LEXCH  = PE                                                                  
   EATOM  =   147.1560 eV,   10.8157 Ry                                         
                                                                                
   TITEL  = PAW_PBE C 08Apr2002                                                 
   LULTRA =        F    use ultrasoft PP ?                                      
   IUNSCR =        1    unscreen: 0-lin 1-nonlin 2-no                           
   RPACOR =    1.200    partial core radius                                     
   POMASS =   12.011; ZVAL   =    4.000    mass and valenz                      
   RCORE  =    1.500    outmost cutoff radius                                   
   RWIGS  =    1.630; RWIGS  =    0.863    wigner-seitz radius (au A)           
   ENMAX  =  400.000; ENMIN  =  300.000 eV                                      
   ICORE  =        2    local potential                                         
   LCOR   =        T    correct aug charges                                     
   LPAW   =        T    paw PP                                                  
   EAUG   =  644.873                                                            
   DEXC   =    0.000                                                            
   RMAX   =    1.529    core radius for proj-oper                               
   RAUG   =    1.300    factor for augmentation sphere                          
   RDEP   =    1.501    radius for radial grids                                 
   RDEPT  =    1.300    core radius for aug-charge                              
                                                                                
   Atomic configuration                                                         
    4 entries                                                                   
     n  l   j            E        occ.                                          
     1  0  0.50      -273.3789   2.0000                                         
     2  0  0.50       -13.7508   2.0000                                         
     2  1  0.50        -5.2854   2.0000                                         
     3  2  1.50        -5.4423   0.0000                                         
   Description                                                                  
     l       E           TYP  RCUT    TYP  RCUT                                 
     0    -13.7508458     23  1.200                                             
     0     -8.2022199     23  1.200                                             
     1     -5.2854383     23  1.500                                             
     1     34.0145650     23  1.500                                             
     2     -5.4423304      7  1.500                                             
  local pseudopotential read in
  partial core-charges read in
  partial kinetic energy density read in
  atomic valenz-charges read in
  non local Contribution for L=           0  read in
    real space projection operators read in
  non local Contribution for L=           0  read in
    real space projection operators read in
  non local Contribution for L=           1  read in
    real space projection operators read in
  non local Contribution for L=           1  read in
    real space projection operators read in
    PAW grid and wavefunctions read in
 
   number of l-projection  operators is LMAX  =           4
   number of lm-projection operators is LMMAX =           8
 
 POTCAR:    PAW_PBE N 08Apr2002                   
   SHA256 =  e053789ff3a61a86a1b75d8a110fcc91f86041011e7b0817c7c99e4e8a6349d7 N/
   COPYR  = (c) Copyright 08Apr2002 Georg Kresse                                
   COPYR  = This file is part of the software VASP. Any use, copying, and all ot
   COPYR  = If you do not have a valid VASP license, you may not use, copy or di
   VRHFIN =N: s2p3                                                              
   LEXCH  = PE                                                                  
   EATOM  =   264.5486 eV,   19.4438 Ry                                         
                                                                                
   TITEL  = PAW_PBE N 08Apr2002                                                 
   LULTRA =        F    use ultrasoft PP ?                                      
   IUNSCR =        1    unscreen: 0-lin 1-nonlin 2-no                           
   RPACOR =    1.200    partial core radius                                     
   POMASS =   14.001; ZVAL   =    5.000    mass and valenz                      
   RCORE  =    1.500    outmost cutoff radius                                   
   RWIGS  =    1.400; RWIGS  =    0.741    wigner-seitz radius (au A)           
   ENMAX  =  400.000; ENMIN  =  300.000 eV                                      
   ICORE  =        2    local potential                                         
   LCOR   =        T    correct aug charges                                     
   LPAW   =        T    paw PP                                                  
   EAUG   =  627.112                                                            
   DEXC   =    0.000                                                            
   RMAX   =    1.529    core radius for proj-oper                               
   RAUG   =    1.300    factor for augmentation sphere                          
   RDEP   =    1.514    radius for radial grids                                 
   RDEPT  =    1.338    core radius for aug-charge                              
                                                                                
   Atomic configuration                                                         
    4 entries                                                                   
     n  l   j            E        occ.                                          
     1  0  0.50      -384.7179   2.0000                                         
     2  0  0.50       -18.5828   2.0000                                         
     2  1  0.50        -7.0898   3.0000                                         
     3  2  1.50        -6.8029   0.0000                                         
   Description                                                                  
     l       E           TYP  RCUT    TYP  RCUT                                 
     0    -18.5828119     23  1.200                                             
     0    -13.5018863     23  1.200                                             
     1     -7.0897853     23  1.500                                             
     1      9.5240782     23  1.500                                             
     2     -6.8029130      7  1.500                                             
  local pseudopotential read in
  partial core-charges read in
  partial kinetic energy density read in
  atomic valenz-charges read in
  non local Contribution for L=           0  read in
    real space projection operators read in
  non local Contribution for L=           0  read in
    real space projection operators read in
  non local Contribution for L=           1  read in
    real space projection operators read in
  non local Contribution for L=           1  read in
    real space projection operators read in
    PAW grid and wavefunctions read in
 
   number of l-projection  operators is LMAX  =           4
   number of lm-projection operators is LMMAX =           8
 
 POTCAR:    PAW_PBE C 08Apr2002                   
   SHA256 =  253f7b50bb8d59471dbedb8285d89021f4a42ed1a2c5d38a03a736e69125dd95 C/
   COPYR  = (c) Copyright 08Apr2002 Georg Kresse                                
   COPYR  = This file is part of the software VASP. Any use, copying, and all ot
   COPYR  = If you do not have a valid VASP license, you may not use, copy or di
   VRHFIN =C: s2p2                                                              
   LEXCH  = PE                                                                  
   EATOM  =   147.1560 eV,   10.8157 Ry                                         
                                                                                
   TITEL  = PAW_PBE C 08Apr2002                                                 
   LULTRA =        F    use ultrasoft PP ?                                      
   IUNSCR =        1    unscreen: 0-lin 1-nonlin 2-no                           
   RPACOR =    1.200    partial core radius                                     
   POMASS =   12.011; ZVAL   =    4.000    mass and valenz                      
   RCORE  =    1.500    outmost cutoff radius                                   
   RWIGS  =    1.630; RWIGS  =    0.863    wigner-seitz radius (au A)           
   ENMAX  =  400.000; ENMIN  =  300.000 eV                                      
   ICORE  =        2    local potential                                         
   LCOR   =        T    correct aug charges                                     
   LPAW   =        T    paw PP                                                  
   EAUG   =  644.873                                                            
   DEXC   =    0.000                                                            
   RMAX   =    1.529    core radius for proj-oper                               
   RAUG   =    1.300    factor for augmentation sphere                          
   RDEP   =    1.501    radius for radial grids                                 
   RDEPT  =    1.300    core radius for aug-charge                              
                                                                                
   Atomic configuration                                                         
    4 entries                                                                   
     n  l   j            E        occ.                                          
     1  0  0.50      -273.3789   2.0000                                         
     2  0  0.50       -13.7508   2.0000                                         
     2  1  0.50        -5.2854   2.0000                                         
     3  2  1.50        -5.4423   0.0000                                         
   Description                                                                  
     l       E           TYP  RCUT    TYP  RCUT                                 
     0    -13.7508458     23  1.200                                             
     0     -8.2022199     23  1.200                                             
     1     -5.2854383     23  1.500                                             
     1     34.0145650     23  1.500                                             
     2     -5.4423304      7  1.500                                             
  local pseudopotential read in
  partial core-charges read in
  partial kinetic energy density read in
  atomic valenz-charges read in
  non local Contribution for L=           0  read in
    real space projection operators read in
  non local Contribution for L=           0  read in
    real space projection operators read in
  non local Contribution for L=           1  read in
    real space projection operators read in
  non local Contribution for L=           1  read in
    real space projection operators read in
    PAW grid and wavefunctions read in
 
   number of l-projection  operators is LMAX  =           4
   number of lm-projection operators is LMMAX =           8
 
 POTCAR:    PAW_PBE Cr_pv 02Aug2007               
   SHA256 =  c9a7df34d3cdbacf1090e328ef39c0b420964e11c23f63548d1ac9dd218cdba0 Cr
   COPYR  = (c) Copyright 02Aug2007 Georg Kresse                                
   COPYR  = This file is part of the software VASP. Any use, copying, and all ot
   COPYR  = If you do not have a valid VASP license, you may not use, copy or di
   VRHFIN =Cr : p6d5s1                                                          
   LEXCH  = PE                                                                  
   EATOM  =  1647.9177 eV,  121.1185 Ry                                         
                                                                                
   TITEL  = PAW_PBE Cr_pv 02Aug2007                                             
   LULTRA =        F    use ultrasoft PP ?                                      
   IUNSCR =        1    unscreen: 0-lin 1-nonlin 2-no                           
   RPACOR =    2.080    partial core radius                                     
   POMASS =   51.996; ZVAL   =   12.000    mass and valenz                      
   RCORE  =    2.300    outmost cutoff radius                                   
   RWIGS  =    2.500; RWIGS  =    1.323    wigner-seitz radius (au A)           
   ENMAX  =  265.681; ENMIN  =  199.261 eV                                      
   ICORE  =        3    local potential                                         
   LCOR   =        T    correct aug charges                                     
   LPAW   =        T    paw PP                                                  
   EAUG   =  519.424                                                            
   DEXC   =    0.000                                                            
   RMAX   =    2.356    core radius for proj-oper                               
   RAUG   =    1.300    factor for augmentation sphere                          
   RDEP   =    2.447    radius for radial grids                                 
   RDEPT  =    1.882    core radius for aug-charge                              
                                                                                
   Atomic configuration                                                         
    8 entries                                                                   
     n  l   j            E        occ.                                          
     1  0  0.50     -5880.4963   2.0000                                         
     2  0  0.50      -667.0865   2.0000                                         
     2  1  1.50      -560.6250   6.0000                                         
     3  0  0.50       -73.9860   2.0000                                         
     3  1  1.50       -45.4378   6.0000                                         
     3  2  2.50        -2.9137   5.0000                                         
     4  0  0.50        -4.0071   1.0000                                         
     4  3  2.50        -1.3606   0.0000                                         
   Description                                                                  
     l       E           TYP  RCUT    TYP  RCUT                                 
     1    -45.4377911     23  2.000                                             
     1      1.3605826     23  2.000                                             
     2     -2.9136672     23  2.300                                             
     2     -4.2742498     23  2.300                                             
     0     -4.0071320     23  2.300                                             
     0      9.4498803     23  2.300                                             
     3      2.7211652     23  2.300                                             
  local pseudopotential read in
  partial core-charges read in
  partial kinetic energy density read in
  atomic valenz-charges read in
  non local Contribution for L=           1  read in
    real space projection operators read in
  non local Contribution for L=           1  read in
    real space projection operators read in
  non local Contribution for L=           2  read in
    real space projection operators read in
  non local Contribution for L=           2  read in
    real space projection operators read in
  non local Contribution for L=           0  read in
    real space projection operators read in
  non local Contribution for L=           0  read in
    real space projection operators read in
    PAW grid and wavefunctions read in
 
   number of l-projection  operators is LMAX  =           6
   number of lm-projection operators is LMMAX =          18
 
 Optimization of the real space projectors (new method)

 maximal supplied QI-value         = 25.13
 optimisation between [QCUT,QGAM] = [ 11.81, 23.88] = [ 39.08,159.64] Ry 
 Optimized for a Real-space Cutoff    1.18 Angstroem

   l    n(q)    QCUT    max X(q) W(low)/X(q) W(high)/X(q)  e(spline) 
   0      8    11.813   115.676    0.10E-03    0.16E-03    0.35E-06
   0      8    11.813    87.132    0.10E-03    0.16E-03    0.35E-06
   1      8    11.813     4.429    0.16E-03    0.13E-04    0.22E-06
   1      8    11.813     2.733    0.13E-03    0.10E-04    0.18E-06
 Optimization of the real space projectors (new method)

 maximal supplied QI-value         = 25.13
 optimisation between [QCUT,QGAM] = [ 11.81, 23.88] = [ 39.08,159.64] Ry 
 Optimized for a Real-space Cutoff    1.41 Angstroem

   l    n(q)    QCUT    max X(q) W(low)/X(q) W(high)/X(q)  e(spline) 
   0     10    11.813    79.467    0.48E-04    0.30E-04    0.67E-06
   0     10    11.813    66.151    0.47E-04    0.30E-04    0.67E-06
   1     10    11.813    20.169    0.11E-03    0.17E-03    0.11E-05
   1     10    11.813    14.454    0.11E-03    0.17E-03    0.11E-05
 Optimization of the real space projectors (new method)

 maximal supplied QI-value         = 25.13
 optimisation between [QCUT,QGAM] = [ 11.81, 23.88] = [ 39.08,159.64] Ry 
 Optimized for a Real-space Cutoff    1.18 Angstroem

   l    n(q)    QCUT    max X(q) W(low)/X(q) W(high)/X(q)  e(spline) 
   0      8    11.813   115.676    0.10E-03    0.16E-03    0.35E-06
   0      8    11.813    87.132    0.10E-03    0.16E-03    0.35E-06
   1      8    11.813     4.429    0.16E-03    0.13E-04    0.22E-06
   1      8    11.813     2.733    0.13E-03    0.10E-04    0.18E-06
 Optimization of the real space projectors (new method)

 maximal supplied QI-value         = 16.25
 optimisation between [QCUT,QGAM] = [ 11.86, 23.89] = [ 39.41,159.82] Ry 
 Optimized for a Real-space Cutoff    1.33 Angstroem

   l    n(q)    QCUT    max X(q) W(low)/X(q) W(high)/X(q)  e(spline) 
   1      9    11.864     3.262    0.48E-04    0.16E-03    0.14E-06
   1      9    11.864     5.741    0.74E-04    0.40E-03    0.35E-06
   2      9    11.864    60.438    0.17E-03    0.21E-03    0.26E-06
   2      9    11.864    55.380    0.17E-03    0.21E-03    0.27E-06
   0      9    11.864    80.273    0.40E-04    0.47E-04    0.12E-06
   0      9    11.864    36.654    0.35E-04    0.41E-04    0.11E-06
  PAW_PBE C 08Apr2002                   :
 energy of atom  1       EATOM= -147.1560
 kinetic energy error for atom=    0.0066 (will be added to EATOM!!)
  PAW_PBE N 08Apr2002                   :
 energy of atom  2       EATOM= -264.5486
 kinetic energy error for atom=    0.0116 (will be added to EATOM!!)
  PAW_PBE C 08Apr2002                   :
 energy of atom  3       EATOM= -147.1560
 kinetic energy error for atom=    0.0066 (will be added to EATOM!!)
  PAW_PBE Cr_pv 02Aug2007               :
 energy of atom  4       EATOM=-1647.9177
 kinetic energy error for atom=    0.0054 (will be added to EATOM!!)
 
 
 POSCAR: POSCAR-clean                            
  positions in cartesian coordinates
  No initial velocities read in
 exchange correlation table for  LEXCH =        8
   RHO(1)=    0.500       N(1)  =     2000
   RHO(2)=  100.500       N(2)  =     4000
 


--------------------------------------------------------------------------------------------------------


 ion  position               nearest neighbor table
   1  0.000  1.000  0.498-   2 1.42  60 1.42  70 1.43
   2  0.056  0.111  0.498-   1 1.42  13 1.42  15 1.43
   3  0.168  0.002  0.498-   4 1.42  62 1.43  60 1.43
   4  0.224  0.113  0.498-   3 1.42  15 1.42  17 1.44
   5  0.334  0.002  0.498-   6 1.42  62 1.43  64 1.43
   6  0.390  0.113  0.498-   5 1.42  19 1.42  17 1.44
   7  0.500  1.000  0.498-   8 1.42  64 1.42  66 1.43
   8  0.556  0.111  0.498-   7 1.42  21 1.42  19 1.43
   9  0.666  0.998  0.498-  10 1.42  66 1.42  68 1.44
  10  0.722  0.109  0.498-   9 1.42  23 1.43  21 1.43
  11  0.832  0.998  0.498-  12 1.42  70 1.42  68 1.44
  12  0.888  0.109  0.498-  11 1.42  23 1.43  13 1.43
  13  0.999  0.165  0.498-  14 1.42   2 1.42  12 1.43
  14  0.054  0.277  0.499-  13 1.42  25 1.42  27 1.43
  15  0.167  0.168  0.498-  16 1.42   4 1.42   2 1.43
  16  0.223  0.280  0.500-  15 1.42  27 1.43  29 1.44
  17  0.335  0.170  0.499-  18 1.42   4 1.44   6 1.44
  18  0.391  0.281  0.503-  17 1.42  31 1.44  29 1.44
  19  0.501  0.168  0.498-  20 1.42   6 1.42   8 1.43
  20  0.557  0.280  0.500-  19 1.42  33 1.43  31 1.44
  21  0.667  0.165  0.498-  22 1.42   8 1.42  10 1.43
  22  0.723  0.277  0.498-  21 1.42  35 1.42  33 1.43
  23  0.833  0.165  0.498-  24 1.42  10 1.43  12 1.43
  24  0.888  0.276  0.498-  23 1.42  25 1.42  35 1.43
  25  0.999  0.332  0.498-  14 1.42  26 1.42  24 1.42
  26  0.054  0.444  0.499-  39 1.42  37 1.42  25 1.42
  27  0.165  0.333  0.500-  28 1.42  16 1.43  14 1.43
  28  0.219  0.444  0.502-  41 1.41  27 1.42  39 1.42
  29  0.335  0.338  0.503-  30 1.41  18 1.44  16 1.44
  30  0.387  0.448  0.510-  41 1.41  29 1.41  71 2.00
  31  0.503  0.338  0.504-  32 1.41  18 1.44  20 1.44
  32  0.562  0.448  0.510-  43 1.41  31 1.41  71 2.00
  33  0.668  0.333  0.500-  34 1.42  20 1.43  22 1.43
  34  0.725  0.444  0.501-  43 1.41  33 1.42  45 1.42
  35  0.833  0.332  0.498-  22 1.42  36 1.42  24 1.43
  36  0.890  0.444  0.498-  45 1.42  37 1.42  35 1.42
  37  0.000  0.500  0.498-  36 1.42  26 1.42  38 1.42
  38  0.056  0.611  0.498-  47 1.42  49 1.42  37 1.42
  39  0.165  0.500  0.500-  26 1.42  28 1.42  40 1.42
  40  0.220  0.611  0.500-  49 1.42  51 1.42  39 1.42
  41  0.329  0.499  0.505-  30 1.41  28 1.41  42 1.44
  42  0.385  0.612  0.505-  53 1.41  51 1.41  41 1.44
  43  0.671  0.499  0.505-  32 1.41  34 1.41  44 1.44
  44  0.727  0.612  0.505-  55 1.41  57 1.41  43 1.44
  45  0.836  0.500  0.499-  36 1.42  34 1.42  46 1.42
  46  0.891  0.611  0.499-  47 1.42  57 1.42  45 1.42
  47  0.001  0.667  0.498-  46 1.42  38 1.42  48 1.42
  48  0.057  0.779  0.498-  59 1.42  47 1.42  61 1.43
  49  0.166  0.667  0.499-  40 1.42  38 1.42  50 1.42
  50  0.222  0.779  0.498-  63 1.42  49 1.42  61 1.42
  51  0.331  0.667  0.502-  42 1.41  52 1.42  40 1.42
  52  0.388  0.778  0.500-  51 1.42  65 1.43  63 1.43
  53  0.494  0.663  0.510-  42 1.41  54 1.41  71 2.00
  54  0.553  0.773  0.503-  53 1.41  67 1.44  65 1.44
  55  0.669  0.663  0.510-  44 1.41  56 1.41  71 2.00
  56  0.721  0.773  0.504-  55 1.41  67 1.44  69 1.44
  57  0.837  0.667  0.501-  44 1.41  58 1.42  46 1.42
  58  0.891  0.778  0.500-  57 1.42  69 1.42  59 1.43
  59  0.002  0.835  0.498-  60 1.42  48 1.42  58 1.43
  60  0.057  0.946  0.498-  59 1.42   1 1.42   3 1.43
  61  0.168  0.835  0.498-  62 1.42  50 1.42  48 1.43
  62  0.223  0.946  0.498-  61 1.42   3 1.43   5 1.43
  63  0.333  0.835  0.499-  64 1.42  50 1.42  52 1.43
  64  0.389  0.946  0.498-  63 1.42   7 1.42   5 1.43
  65  0.499  0.832  0.500-  66 1.42  52 1.43  54 1.44
  66  0.555  0.943  0.498-  65 1.42   9 1.42   7 1.43
  67  0.665  0.830  0.503-  68 1.42  56 1.44  54 1.44
  68  0.721  0.941  0.499-  67 1.42   9 1.44  11 1.44
  69  0.833  0.832  0.500-  70 1.42  58 1.42  56 1.44
  70  0.889  0.943  0.498-  69 1.42  11 1.42   1 1.43
  71  0.528  0.556  0.554-  55 2.00  32 2.00  53 2.00  30 2.00
 

IMPORTANT INFORMATION: All symmetrisations will be switched off!
NOSYMM: (Re-)initialisation of all symmetry stuff for point group C_1.

 
 
 KPOINTS: K-Points                                

Automatic generation of k-mesh.
Space group operators:
 irot       det(A)        alpha          n_x          n_y          n_z        tau_x        tau_y        tau_z
    1     1.000000     0.000000     1.000000     0.000000     0.000000     0.000000     0.000000     0.000000
 
 Subroutine IBZKPT returns following result:
 ===========================================
 
 Found      4 irreducible k-points:
 
 Following reciprocal coordinates:
            Coordinates               Weight
  0.000000  0.000000  0.000000      1.000000
  0.500000  0.000000  0.000000      1.000000
 -0.000000  0.500000  0.000000      1.000000
  0.500000  0.500000  0.000000      1.000000
 
 Following cartesian coordinates:
            Coordinates               Weight
  0.000000  0.000000  0.000000      1.000000
  0.033606  0.019589  0.000000      1.000000
 -0.000000  0.039178  0.000000      1.000000
  0.033606  0.058767  0.000000      1.000000
 


--------------------------------------------------------------------------------------------------------




 Dimension of arrays:
   k-points           NKPTS =      4   k-points in BZ     NKDIM =      4   number of bands    NBANDS=    184
   number of dos      NEDOS =    301   number of ions     NIONS =     71
   non local maximal  LDIM  =      6   non local SUM 2l+1 LMDIM =     18
   total plane-waves  NPLWV = ******
   max r-space proj   IRMAX =   7110   max aug-charges    IRDMAX=  21308
   dimension x,y,z NGX =   120 NGY =  120 NGZ =  120
   dimension x,y,z NGXF=   240 NGYF=  240 NGZF=  240
   support grid    NGXF=   240 NGYF=  240 NGZF=  240
   ions per type =               1   1  68   1
   NGX,Y,Z   is equivalent  to a cutoff of  13.41, 13.50, 13.30 a.u.
   NGXF,Y,Z  is equivalent  to a cutoff of  26.82, 27.01, 26.60 a.u.

 SYSTEM =  unknown system                          
 POSCAR =  POSCAR-clean                            

 Startparameter for this run:
   NWRITE =      2    write-flag & timer
   PREC   = accura    normal or accurate (medium, high low for compatibility)
   ISTART =      0    job   : 0-new  1-cont  2-samecut
   ICHARG =      2    charge: 1-file 2-atom 10-const
   ISPIN  =      2    spin polarized calculation?
   LNONCOLLINEAR =      F non collinear calculations
   LSORBIT =      F    spin-orbit coupling
   INIWAV =      1    electr: 0-lowe 1-rand  2-diag
   LASPH  =      F    aspherical Exc in radial PAW
   METAGGA=      F    non-selfconsistent MetaGGA calc.

 Electronic Relaxation 1
   ENCUT  =  550.0 eV  40.42 Ry    6.36 a.u.  28.45 28.25 28.68*2*pi/ulx,y,z
   ENINI  =  550.0     initial cutoff
   ENAUG  =  644.9 eV  augmentation charge cutoff
   NELM   =     50;   NELMIN=  2; NELMDL= -5     # of ELM steps 
   EDIFF  = 0.1E-04   stopping-criterion for ELM
   LREAL  =      T    real-space projection
   NLSPLINE    = F    spline interpolate recip. space projectors
   LCOMPAT=      F    compatible to vasp.4.4
   GGA_COMPAT  = T    GGA compatible to vasp.4.4-vasp.4.6
   LMAXPAW     = -100 max onsite density
   LMAXMIX     =    2 max onsite mixed and CHGCAR
   VOSKOWN=      0    Vosko Wilk Nusair interpolation
   ROPT   =   -0.00025  -0.00025  -0.00025  -0.00025
 Ionic relaxation
   EDIFFG = -.5E-01   stopping-criterion for IOM
   NSW    =    400    number of steps for IOM
   NBLOCK =      1;   KBLOCK =    400    inner block; outer block 
   IBRION =      2    ionic relax: 0-MD 1-quasi-New 2-CG
   NFREE  =      1    steps in history (QN), initial steepest desc. (CG)
   ISIF   =      3    stress and relaxation
   IWAVPR =     11    prediction:  0-non 1-charg 2-wave 3-comb
   ISYM   =      0    0-nonsym 1-usesym 2-fastsym
   LCORR  =      T    Harris-Foulkes like correction to forces

   POTIM  = 0.3000    time-step for ionic-motion
   TEIN   =    0.0    initial temperature
   TEBEG  =    0.0;   TEEND  =   0.0 temperature during run
   SMASS  =  -3.00    Nose mass-parameter (am)
   estimated Nose-frequenzy (Omega)   =  0.10E-29 period in steps =****** mass=  -0.506E-26a.u.
   SCALEE = 1.0000    scale energy and forces
   NPACO  =    256;   APACO  = 16.0  distance and # of slots for P.C.
   PSTRESS=    0.0 pullay stress

  Mass of Ions in am
   POMASS =  12.01 14.00 12.01 52.00
  Ionic Valenz
   ZVAL   =   4.00  5.00  4.00 12.00
  Atomic Wigner-Seitz radii
   RWIGS  =  -1.00 -1.00 -1.00 -1.00
  virtual crystal weights 
   VCA    =   1.00  1.00  1.00  1.00
   NELECT =     293.0000    total number of electrons
   NUPDOWN=      -1.0000    fix difference up-down

 DOS related values:
   EMIN   =  10.00;   EMAX   =-10.00  energy-range for DOS
   EFERMI =   0.00
   ISMEAR =     0;   SIGMA  =   0.10  broadening in eV -4-tet -1-fermi 0-gaus

 Electronic relaxation 2 (details)
   IALGO  =     68    algorithm
   LDIAG  =      T    sub-space diagonalisation (order eigenvalues)
   LSUBROT=      F    optimize rotation matrix (better conditioning)
   TURBO    =      0    0=normal 1=particle mesh
   IRESTART =      0    0=no restart 2=restart with 2 vectors
   NREBOOT  =      0    no. of reboots
   NMIN     =      0    reboot dimension
   EREF     =   0.00    reference energy to select bands
   IMIX   =      4    mixing-type and parameters
     AMIX     =   0.40;   BMIX     =  1.00
     AMIX_MAG =   1.60;   BMIX_MAG =  1.00
     AMIN     =   0.10
     WC   =   100.;   INIMIX=   1;  MIXPRE=   1;  MAXMIX= -45

 Intra band minimization:
   WEIMIN = 0.0010     energy-eigenvalue tresh-hold
   EBREAK =  0.14E-07  absolut break condition
   DEPER  =   0.30     relativ break condition  

   TIME   =   0.40     timestep for ELM

  volume/ion in A,a.u.               =      40.12       270.71
  Fermi-wavevector in a.u.,A,eV,Ry     =   0.767079  1.449569  8.005805  0.588410
  Thomas-Fermi vector in A             =   1.867557
 
 Write flags
   LWAVE        =      F    write WAVECAR
   LDOWNSAMPLE  =      F    k-point downsampling of WAVECAR
   LCHARG       =      F    write CHGCAR
   LVTOT        =      F    write LOCPOT, total local potential
   LVHAR        =      F    write LOCPOT, Hartree potential only
   LELF         =      F    write electronic localiz. function (ELF)
   LORBIT       =      0    0 simple, 1 ext, 2 COOP (PROOUT), +10 PAW based schemes


 Dipole corrections
   LMONO  =      F    monopole corrections only (constant potential shift)
   LDIPOL =      F    correct potential (dipole corrections)
   IDIPOL =      0    1-x, 2-y, 3-z, 4-all directions 
   EPSILON=  1.0000000 bulk dielectric constant

 Exchange correlation treatment:
   GGA     =    --    GGA type
   LEXCH   =     8    internal setting for exchange type
   VOSKOWN=      0    Vosko Wilk Nusair interpolation
   LHFCALC =     F    Hartree Fock is set to
   LHFONE  =     F    Hartree Fock one center treatment
   AEXX    =    0.0000 exact exchange contribution

 Linear response parameters
   LEPSILON=     F    determine dielectric tensor
   LRPA    =     F    only Hartree local field effects (RPA)
   LNABLA  =     F    use nabla operator in PAW spheres
   LVEL    =     F    velocity operator in full k-point grid
   LINTERFAST=   F  fast interpolation
   KINTER  =     0    interpolate to denser k-point grid
   CSHIFT  =0.1000    complex shift for real part using Kramers Kronig
   OMEGAMAX=  -1.0    maximum frequency
   DEG_THRESHOLD= 0.2000000E-02 threshold for treating states as degnerate
   RTIME   =   -0.100 relaxation time in fs
  (WPLASMAI=    0.000 imaginary part of plasma frequency in eV, 0.658/RTIME)
   DFIELD  = 0.0000000 0.0000000 0.0000000 field for delta impulse in time
 
 Orbital magnetization related:
   ORBITALMAG=     F  switch on orbital magnetization
   LCHIMAG   =     F  perturbation theory with respect to B field
   DQ        =  0.001000  dq finite difference perturbation B field
   LLRAUG    =     F  two centre corrections for induced B field



--------------------------------------------------------------------------------------------------------


 conjugate gradient relaxation of ions
 charge density and potential will be updated during run
 spin polarized calculation
 RMM-DIIS sequential band-by-band and
  variant of blocked Davidson during initial phase
 perform sub-space diagonalisation
    before iterative eigenvector-optimisation
 modified Broyden-mixing scheme, WC =      100.0
 initial mixing is a Kerker type mixing with AMIX =  0.4000 and BMIX =      1.0000
 Hartree-type preconditioning will be used
 using additional bands           37
 real space projection scheme for non local part
 use partial core corrections
 calculate Harris-corrections to forces 
   (improved forces if not selfconsistent)
 use gradient corrections 
 use of overlap-Matrix (Vanderbilt PP)
 Gauss-broadening in eV      SIGMA  =   0.10


--------------------------------------------------------------------------------------------------------


  energy-cutoff  :      550.00
  volume of cell :     2848.21
      direct lattice vectors                 reciprocal lattice vectors
    14.878307727  0.000105424  0.000000000     0.067211667  0.039178051  0.000000000
    -7.439153864 12.762195204  0.000000000    -0.000000555  0.078356102  0.000000000
     0.000000000  0.000000000 15.000000000     0.000000000  0.000000000  0.066666667

  length of vectors
    14.878307728 14.772089786 15.000000000     0.077796709  0.078356102  0.066666667


 
 k-points in units of 2pi/SCALE and weight: K-Points                                
   0.00000000  0.00000000  0.00000000       0.250
   0.03360583  0.01958903  0.00000000       0.250
  -0.00000028  0.03917805  0.00000000       0.250
   0.03360556  0.05876708  0.00000000       0.250
 
 k-points in reciprocal lattice and weights: K-Points                                
   0.00000000  0.00000000  0.00000000       0.250
   0.50000000  0.00000000  0.00000000       0.250
  -0.00000000  0.50000000  0.00000000       0.250
   0.50000000  0.50000000  0.00000000       0.250
 
 position of ions in fractional coordinates (direct lattice) 
   0.00014703  0.99993181  0.49766807
   0.05571316  0.11129367  0.49774774
   0.16803225  0.00210520  0.49753985
   0.22355821  0.11343998  0.49825115
   0.33432830  0.00207694  0.49777234
   0.39014706  0.11341551  0.49841838
   0.50002407  0.99989044  0.49775648
   0.55582710  0.11125266  0.49767590
   0.66571506  0.99774295  0.49825147
   0.72152612  0.10907882  0.49753824
   0.83231512  0.99776674  0.49841003
   0.88783929  0.10910686  0.49776801
   0.99908442  0.16549374  0.49784405
   0.05430809  0.27667161  0.49853746
   0.16734775  0.16806595  0.49834347
   0.22284185  0.27957445  0.49997583
   0.33528932  0.17029644  0.49941211
   0.39084341  0.28141813  0.50254970
   0.50097822  0.16802960  0.49842000
   0.55697129  0.27954076  0.49998817
   0.66664919  0.16545038  0.49752014
   0.72257294  0.27663324  0.49802908
   0.83255361  0.16485921  0.49764969
   0.88821716  0.27620991  0.49780056
   0.99906908  0.33222521  0.49838447
   0.05442247  0.44382388  0.49884723
   0.16531768  0.33288444  0.50001215
   0.21898612  0.44382270  0.50165224
   0.33514858  0.33773328  0.50339031
   0.38694525  0.44827387  0.50958670
   0.50284791  0.33770682  0.50360105
   0.56160602  0.44823797  0.50998391
   0.66778145  0.33285443  0.49963749
   0.72504010  0.44380782  0.50114295
   0.83335701  0.33221195  0.49791518
   0.88957865  0.44380677  0.49825237
   0.00003314  0.49990030  0.49835048
   0.05573614  0.61130743  0.49834565
   0.16452790  0.49985599  0.50032235
   0.22027264  0.61134265  0.50031499
   0.32877881  0.49923631  0.50514604
   0.38513300  0.61194665  0.50514739
   0.67071104  0.49923365  0.50517220
   0.72707059  0.61195035  0.50517224
   0.83551700  0.49986026  0.49948453
   0.89125350  0.61133457  0.49948422
   0.00136430  0.66739252  0.49824937
   0.05673614  0.77898562  0.49790902
   0.16620335  0.66738054  0.49883406
   0.22244721  0.77897560  0.49837060
   0.33076298  0.66736579  0.50164604
   0.38803591  0.77830247  0.50000539
   0.49425975  0.66291375  0.50958718
   0.55300964  0.77344715  0.50338828
   0.66896610  0.66295341  0.50998288
   0.72073432  0.77348097  0.50359479
   0.83682433  0.66738081  0.50114212
   0.89051054  0.77833045  0.49963539
   0.00151950  0.83455528  0.49802741
   0.05677874  0.94573836  0.49751926
   0.16759972  0.83498348  0.49779087
   0.22328727  0.94632847  0.49764984
   0.33324173  0.83452222  0.49853136
   0.38919606  0.94569806  0.49784785
   0.49886656  0.83160652  0.49997424
   0.55488261  0.94311446  0.49834783
   0.66501623  0.82976534  0.50254304
   0.72058356  0.94088512  0.49940688
   0.83301728  0.83164625  0.49998031
   0.88852543  0.94315192  0.49840894
   0.52788678  0.55561308  0.55407295
 
 position of ions in cartesian coordinates  (Angst):
  -7.43645893 12.76132490  7.46502101
   0.00098677  1.42035737  7.46621609
   2.48437460  0.02688469  7.46309769
   2.48227038  1.44776676  7.47376727
   4.95878870  0.02654158  7.46658504
   4.96101252  1.44747206  7.47627575
   0.00117320 12.76084966  7.46634727
   7.44214093  1.41988678  7.46513856
   2.48235028 12.73346045  7.47377203
   9.92363354  1.39216125  7.46307356
   4.96090025 12.73378160  7.47615045
  12.39788345  1.39253665  7.46652020
  13.63355202  2.11216869  7.46766080
  -1.25019027  3.53094287  7.47806186
   1.23958287  2.14490807  7.47515208
   1.23571236  3.56800714  7.49963746
   3.72167632  2.17339173  7.49118168
   3.72157576  3.59155433  7.53824552
   6.20371007  2.14447940  7.47630003
   6.20724356  3.56761241  7.49982262
   8.68780104  2.11158030  7.46280215
   8.69274532  3.53052356  7.47043619
  11.16057575  2.10405319  7.46474541
  11.16040021  3.52513843  7.46700843
  12.39298273  4.24002833  7.47576708
  -2.49195986  5.66417272  7.48270852
  -0.01673121  4.24835367  7.50018218
  -0.04352248  5.66417505  7.52478359
   2.47399392  4.31025334  7.55085470
   2.42231217  5.72099937  7.64380057
   4.96927299  4.30993342  7.55401582
   5.02123589  5.72055973  7.64975858
   7.45930259  4.24802358  7.49456242
   7.48581505  5.66403852  7.51714419
   9.92756627  4.23984160  7.46872767
   9.93387816  5.66404236  7.47378561
  -3.71834223  6.37982525  7.47525727
  -3.71835051  7.80163060  7.47518475
  -1.27060894  6.37927707  7.50483528
  -1.27058799  7.80209747  7.50472492
   1.17777658  6.37138591  7.57719062
   1.17776199  7.80982318  7.57721079
   6.26516932  6.37138797  7.57758296
   6.26518706  7.80990654  7.57758361
   8.71254167  6.37940228  7.49226792
   8.71253189  7.80206507  7.49226324
  -4.94453714  8.51739379  7.47374059
  -4.95085604  9.94157246  7.46863529
  -2.49192199  8.51725823  7.48251084
  -2.48528121  9.94146208  7.47555906
  -0.04344336  8.51708741  7.52469062
  -0.01659412  9.93288892  7.50008080
   2.42223119  8.46028680  7.64380763
   2.47405524  9.87094181  7.55082413
   5.02127100  8.46081135  7.64974323
   4.96926315  9.87139105  7.55392179
   7.48578134  8.51733237  7.51713176
   7.45916989  9.93329897  7.49453080
  -6.18577746 10.65075751  7.47041111
  -6.19072161 12.06970350  7.46278894
  -3.71797037 10.65623981  7.46686302
  -3.71774635 12.07725221  7.46474766
  -1.25006613 10.65037063  7.47797042
  -1.24461459 12.06922431  7.46771775
   1.23584141 10.61317732  7.49961357
   1.23974067 12.03626939  7.47521740
   3.72156413 10.58969736  7.53814562
   3.72167477 12.00783549  7.49110317
   6.20714301 10.61371955  7.49970466
   6.20350242 12.03678263  7.47613410
   3.72077071  7.09089829  8.31109430
 


--------------------------------------------------------------------------------------------------------


 k-point  1 :   0.0000 0.0000 0.0000  plane waves:   83445
 k-point  2 :   0.5000 0.0000 0.0000  plane waves:   83448
 k-point  3 :  -0.0000 0.5000 0.0000  plane waves:   83436
 k-point  4 :   0.5000 0.5000 0.0000  plane waves:   83444

 maximum and minimum number of plane-waves per node :      6984     6935

 maximum number of plane-waves:     83448
 maximum index in each direction: 
   IXMAX=   28   IYMAX=   28   IZMAX=   28
   IXMIN=  -28   IYMIN=  -28   IZMIN=  -28


 real space projection operators:
  total allocation   :      18578.86 KBytes
  max/ min on nodes  :       1558.23       1534.78


 parallel 3D FFT for wavefunctions:
    minimum data exchange during FFTs selected (reduces bandwidth)
 parallel 3D FFT for charge:
    minimum data exchange during FFTs selected (reduces bandwidth)


 total amount of memory used by VASP MPI-rank0   135455. kBytes
=======================================================================

   base      :      30000. kBytes
   nonlr-proj:      10466. kBytes
   fftplans  :      14072. kBytes
   grid      :      39398. kBytes
   one-center:        186. kBytes
   wavefun   :      41333. kBytes
 
     INWAV:  cpu time    0.0000: real time    0.0000
 Broyden mixing: mesh for mixing (old mesh)
   NGX = 57   NGY = 57   NGZ = 57
  (NGX  =240   NGY  =240   NGZ  =240)
  gives a total of 185193 points

 initial charge density was supplied:
 charge density of overlapping atoms calculated
 number of electron     293.0000000 magnetization       1.0000000
 keeping initial charge density in first step


--------------------------------------------------------------------------------------------------------


 Maximum index for non-local projection operator          621
 Maximum index for augmentation-charges          402 (set IRDMAX)


--------------------------------------------------------------------------------------------------------


 First call to EWALD:  gamma=   0.125
 Maximum number of real-space cells 3x 3x 3
 Maximum number of reciprocal cells 3x 3x 3

    FEWALD:  cpu time    0.0054: real time    0.0056


--------------------------------------- Iteration      1(   1)  ---------------------------------------


    POTLOK:  cpu time    0.5152: real time    0.5520
    SETDIJ:  cpu time    0.0186: real time    0.0709
     EDDAV:  cpu time   16.6380: real time   16.8341
       DOS:  cpu time    0.0013: real time    0.0020
    --------------------------------------------
      LOOP:  cpu time   17.1732: real time   17.4589

 eigenvalue-minimisations  :  3248
 total energy-change (2. order) : 0.2743968E+04  (-0.1173077E+05)
 number of electron     293.0000000 magnetization       1.0000000
 augmentation part      293.0000000 magnetization       1.0000000

 Free energy of the ion-electron system (eV)
  ---------------------------------------------------
  alpha Z        PSCENC =       156.95040625
  Ewald energy   TEWEN  =     30374.44582020
  -Hartree energ DENC   =    -39540.47911668
  -exchange      EXHF   =         0.00000000
  -V(xc)+E(xc)   XCENC  =       982.53715404
  PAW double counting   =      9000.30529238    -9089.18527416
  entropy T*S    EENTRO =        -0.11690444
  eigenvalues    EBANDS =     -1206.24764077
  atomic energy  EATOM  =     12065.75791449
  Solvation  Ediel_sol  =         0.00000000
  ---------------------------------------------------
  free energy    TOTEN  =      2743.96765130 eV

  energy without entropy =     2744.08455574  energy(sigma->0) =     2744.02610352


--------------------------------------------------------------------------------------------------------




--------------------------------------- Iteration      1(   2)  ---------------------------------------


     EDDAV:  cpu time   21.3694: real time   21.5996
       DOS:  cpu time    0.0009: real time    0.0009
    --------------------------------------------
      LOOP:  cpu time   21.3704: real time   21.6006

 eigenvalue-minimisations  :  4312
 total energy-change (2. order) :-0.2915791E+04  (-0.2786855E+04)
 number of electron     293.0000000 magnetization       1.0000000
 augmentation part      293.0000000 magnetization       1.0000000

 Free energy of the ion-electron system (eV)
  ---------------------------------------------------
  alpha Z        PSCENC =       156.95040625
  Ewald energy   TEWEN  =     30374.44582020
  -Hartree energ DENC   =    -39540.47911668
  -exchange      EXHF   =         0.00000000
  -V(xc)+E(xc)   XCENC  =       982.53715404
  PAW double counting   =      9000.30529238    -9089.18527416
  entropy T*S    EENTRO =        -0.03410785
  eigenvalues    EBANDS =     -4122.12162836
  atomic energy  EATOM  =     12065.75791449
  Solvation  Ediel_sol  =         0.00000000
  ---------------------------------------------------
  free energy    TOTEN  =      -171.82353970 eV

  energy without entropy =     -171.78943184  energy(sigma->0) =     -171.80648577


--------------------------------------------------------------------------------------------------------




--------------------------------------- Iteration      1(   3)  ---------------------------------------


     EDDAV:  cpu time   18.4711: real time   18.7391
       DOS:  cpu time    0.0010: real time    0.0010
    --------------------------------------------
      LOOP:  cpu time   18.4721: real time   18.7401

 eigenvalue-minimisations  :  3560
 total energy-change (2. order) :-0.5124707E+03  (-0.5094976E+03)
 number of electron     293.0000000 magnetization       1.0000000
 augmentation part      293.0000000 magnetization       1.0000000

 Free energy of the ion-electron system (eV)
  ---------------------------------------------------
  alpha Z        PSCENC =       156.95040625
  Ewald energy   TEWEN  =     30374.44582020
  -Hartree energ DENC   =    -39540.47911668
  -exchange      EXHF   =         0.00000000
  -V(xc)+E(xc)   XCENC  =       982.53715404
  PAW double counting   =      9000.30529238    -9089.18527416
  entropy T*S    EENTRO =        -0.02818263
  eigenvalues    EBANDS =     -4634.59829658
  atomic energy  EATOM  =     12065.75791449
  Solvation  Ediel_sol  =         0.00000000
  ---------------------------------------------------
  free energy    TOTEN  =      -684.29428269 eV

  energy without entropy =     -684.26610006  energy(sigma->0) =     -684.28019138


--------------------------------------------------------------------------------------------------------




--------------------------------------- Iteration      1(   4)  ---------------------------------------


     EDDAV:  cpu time   18.4213: real time   18.5836
       DOS:  cpu time    0.0009: real time    0.0009
    --------------------------------------------
      LOOP:  cpu time   18.4223: real time   18.5846

 eigenvalue-minimisations  :  3560
 total energy-change (2. order) :-0.1946887E+02  (-0.1932248E+02)
 number of electron     293.0000000 magnetization       1.0000000
 augmentation part      293.0000000 magnetization       1.0000000

 Free energy of the ion-electron system (eV)
  ---------------------------------------------------
  alpha Z        PSCENC =       156.95040625
  Ewald energy   TEWEN  =     30374.44582020
  -Hartree energ DENC   =    -39540.47911668
  -exchange      EXHF   =         0.00000000
  -V(xc)+E(xc)   XCENC  =       982.53715404
  PAW double counting   =      9000.30529238    -9089.18527416
  entropy T*S    EENTRO =        -0.02841799
  eigenvalues    EBANDS =     -4654.06693465
  atomic energy  EATOM  =     12065.75791449
  Solvation  Ediel_sol  =         0.00000000
  ---------------------------------------------------
  free energy    TOTEN  =      -703.76315613 eV

  energy without entropy =     -703.73473814  energy(sigma->0) =     -703.74894713


--------------------------------------------------------------------------------------------------------




--------------------------------------- Iteration      1(   5)  ---------------------------------------


     EDDAV:  cpu time   20.4383: real time   21.6461
       DOS:  cpu time    0.0010: real time    0.0010
    CHARGE:  cpu time    0.9735: real time    0.9887
    MIXING:  cpu time    0.0112: real time    0.0159
    --------------------------------------------
      LOOP:  cpu time   21.4240: real time   22.6517

 eigenvalue-minimisations  :  4088
 total energy-change (2. order) :-0.6216129E+00  (-0.6196857E+00)
 number of electron     292.9999997 magnetization       0.7731775
 augmentation part       11.6659563 magnetization       0.7644606

 Broyden mixing:
  rms(total) = 0.46548E+01    rms(broyden)= 0.46544E+01
  rms(prec ) = 0.54194E+01
  weight for this iteration     100.00

 Free energy of the ion-electron system (eV)
  ---------------------------------------------------
  alpha Z        PSCENC =       156.95040625
  Ewald energy   TEWEN  =     30374.44582020
  -Hartree energ DENC   =    -39540.47911668
  -exchange      EXHF   =         0.00000000
  -V(xc)+E(xc)   XCENC  =       982.53715404
  PAW double counting   =      9000.30529238    -9089.18527416
  entropy T*S    EENTRO =        -0.02891769
  eigenvalues    EBANDS =     -4654.68804785
  atomic energy  EATOM  =     12065.75791449
  Solvation  Ediel_sol  =         0.00000000
  ---------------------------------------------------
  free energy    TOTEN  =      -704.38476902 eV

  energy without entropy =     -704.35585133  energy(sigma->0) =     -704.37031018


--------------------------------------------------------------------------------------------------------




--------------------------------------- Iteration      1(   6)  ---------------------------------------


    POTLOK:  cpu time    0.5247: real time    0.5366
    SETDIJ:  cpu time    0.0144: real time    0.0146
    EDDIAG:  cpu time    3.2311: real time    3.2730
  RMM-DIIS:  cpu time   17.7391: real time   17.9118
    ORTHCH:  cpu time    0.2689: real time    0.2698
       DOS:  cpu time    0.0010: real time    0.0011
    CHARGE:  cpu time    0.9557: real time    0.9720
    MIXING:  cpu time    0.0106: real time    0.0117
    --------------------------------------------
      LOOP:  cpu time   22.7456: real time   22.9906

 eigenvalue-minimisations  :  4069
 total energy-change (2. order) :-0.2693888E+02  (-0.5264636E+02)
 number of electron     293.0000006 magnetization       0.7148495
 augmentation part       17.3185557 magnetization       0.9694931

 Broyden mixing:
  rms(total) = 0.83460E+01    rms(broyden)= 0.83458E+01
  rms(prec ) = 0.92223E+01
  weight for this iteration     100.00

 eigenvalues of (default mixing * dielectric matrix)
  average eigenvalue GAMMA=   0.2179
  0.2179

 Free energy of the ion-electron system (eV)
  ---------------------------------------------------
  alpha Z        PSCENC =       156.95040625
  Ewald energy   TEWEN  =     30374.44582020
  -Hartree energ DENC   =    -39832.73931429
  -exchange      EXHF   =         0.00000000
  -V(xc)+E(xc)   XCENC  =       996.31304458
  PAW double counting   =     15150.41297568   -15239.12987950
  entropy T*S    EENTRO =        -0.03965404
  eigenvalues    EBANDS =     -4403.29496017
  atomic energy  EATOM  =     12065.75791449
  Solvation  Ediel_sol  =         0.00000000
  ---------------------------------------------------
  free energy    TOTEN  =      -731.32364680 eV

  energy without entropy =     -731.28399275  energy(sigma->0) =     -731.30381977


--------------------------------------------------------------------------------------------------------




--------------------------------------- Iteration      1(   7)  ---------------------------------------


    POTLOK:  cpu time    0.5245: real time    0.5340
    SETDIJ:  cpu time    0.0148: real time    0.0150
    EDDIAG:  cpu time    3.2457: real time    3.2816
  RMM-DIIS:  cpu time   13.3255: real time   13.4493
    ORTHCH:  cpu time    0.3361: real time    0.3377
       DOS:  cpu time    0.0008: real time    0.0008
    CHARGE:  cpu time    0.9687: real time    0.9851
    MIXING:  cpu time    0.0098: real time    0.0104
    --------------------------------------------
      LOOP:  cpu time   18.4260: real time   18.6139

 eigenvalue-minimisations  :  3064
 total energy-change (2. order) : 0.6893520E+02  (-0.5919694E+01)
 number of electron     293.0000004 magnetization       0.6151434
 augmentation part       15.2634281 magnetization       0.6208976

 Broyden mixing:
  rms(total) = 0.31996E+01    rms(broyden)= 0.31995E+01
  rms(prec ) = 0.38459E+01
  weight for this iteration     100.00

 eigenvalues of (default mixing * dielectric matrix)
  average eigenvalue GAMMA=   0.4657
  0.4657  0.4657

 Free energy of the ion-electron system (eV)
  ---------------------------------------------------
  alpha Z        PSCENC =       156.95040625
  Ewald energy   TEWEN  =     30374.44582020
  -Hartree energ DENC   =    -39955.07329875
  -exchange      EXHF   =         0.00000000
  -V(xc)+E(xc)   XCENC  =      1000.87717758
  PAW double counting   =     16746.64965938   -16842.19583629
  entropy T*S    EENTRO =        -0.00028925
  eigenvalues    EBANDS =     -4209.79999903
  atomic energy  EATOM  =     12065.75791449
  Solvation  Ediel_sol  =         0.00000000
  ---------------------------------------------------
  free energy    TOTEN  =      -662.38844542 eV

  energy without entropy =     -662.38815617  energy(sigma->0) =     -662.38830079


--------------------------------------------------------------------------------------------------------




--------------------------------------- Iteration      1(   8)  ---------------------------------------


    POTLOK:  cpu time    0.5373: real time    0.5418
    SETDIJ:  cpu time    0.0145: real time    0.0146
    EDDIAG:  cpu time    3.1820: real time    3.2144
  RMM-DIIS:  cpu time   13.5171: real time   13.6396
    ORTHCH:  cpu time    0.5640: real time    0.5656
       DOS:  cpu time    0.0009: real time    0.0009
    CHARGE:  cpu time    0.9571: real time    0.9742
    MIXING:  cpu time    0.0112: real time    0.0116
    --------------------------------------------
      LOOP:  cpu time   18.7843: real time   18.9627

 eigenvalue-minimisations  :  3125
 total energy-change (2. order) : 0.2897078E-01  (-0.2242424E+01)
 number of electron     292.9999997 magnetization       0.3487173
 augmentation part       11.2305740 magnetization       0.3006084

 Broyden mixing:
  rms(total) = 0.28316E+01    rms(broyden)= 0.28313E+01
  rms(prec ) = 0.34766E+01
  weight for this iteration     100.00

 eigenvalues of (default mixing * dielectric matrix)
  average eigenvalue GAMMA=   0.8517
  1.8731  0.3410  0.3410

 Free energy of the ion-electron system (eV)
  ---------------------------------------------------
  alpha Z        PSCENC =       156.95040625
  Ewald energy   TEWEN  =     30374.44582020
  -Hartree energ DENC   =    -40135.26755371
  -exchange      EXHF   =         0.00000000
  -V(xc)+E(xc)   XCENC  =      1007.57568784
  PAW double counting   =     19643.81763722   -19743.36188256
  entropy T*S    EENTRO =        -0.02901488
  eigenvalues    EBANDS =     -4032.24848950
  atomic energy  EATOM  =     12065.75791449
  Solvation  Ediel_sol  =         0.00000000
  ---------------------------------------------------
  free energy    TOTEN  =      -662.35947464 eV

  energy without entropy =     -662.33045977  energy(sigma->0) =     -662.34496720


--------------------------------------------------------------------------------------------------------




--------------------------------------- Iteration      1(   9)  ---------------------------------------


    POTLOK:  cpu time    0.5640: real time    0.5695
    SETDIJ:  cpu time    0.0144: real time    0.0144
    EDDIAG:  cpu time    3.1525: real time    3.1800
  RMM-DIIS:  cpu time   13.0373: real time   13.1379
    ORTHCH:  cpu time    0.4970: real time    0.4984
       DOS:  cpu time    0.0009: real time    0.0009
    CHARGE:  cpu time    0.9893: real time    1.0005
    MIXING:  cpu time    0.0115: real time    0.0116
    --------------------------------------------
      LOOP:  cpu time   18.2669: real time   18.4133

 eigenvalue-minimisations  :  2973
 total energy-change (2. order) : 0.1523495E+02  (-0.1986155E+01)
 number of electron     293.0000001 magnetization       0.2590870
 augmentation part       12.1770407 magnetization       0.2755882

 Broyden mixing:
  rms(total) = 0.11655E+01    rms(broyden)= 0.11654E+01
  rms(prec ) = 0.13161E+01
  weight for this iteration     100.00

 eigenvalues of (default mixing * dielectric matrix)
  average eigenvalue GAMMA=   0.9108
  2.2126  0.7255  0.3526  0.3526

 Free energy of the ion-electron system (eV)
  ---------------------------------------------------
  alpha Z        PSCENC =       156.95040625
  Ewald energy   TEWEN  =     30374.44582020
  -Hartree energ DENC   =    -40438.40309184
  -exchange      EXHF   =         0.00000000
  -V(xc)+E(xc)   XCENC  =      1020.34485108
  PAW double counting   =     27771.43464755   -27873.71883955
  entropy T*S    EENTRO =        -0.00337825
  eigenvalues    EBANDS =     -3723.93285807
  atomic energy  EATOM  =     12065.75791449
  Solvation  Ediel_sol  =         0.00000000
  ---------------------------------------------------
  free energy    TOTEN  =      -647.12452813 eV

  energy without entropy =     -647.12114988  energy(sigma->0) =     -647.12283900


--------------------------------------------------------------------------------------------------------




--------------------------------------- Iteration      1(  10)  ---------------------------------------


    POTLOK:  cpu time    0.5293: real time    0.5349
    SETDIJ:  cpu time    0.0144: real time    0.0145
    EDDIAG:  cpu time    3.2096: real time    3.2365
  RMM-DIIS:  cpu time   13.0828: real time   13.1921
    ORTHCH:  cpu time    0.4619: real time    0.4635
       DOS:  cpu time    0.0009: real time    0.0009
    CHARGE:  cpu time    0.9293: real time    0.9403
    MIXING:  cpu time    0.0122: real time    0.0122
    --------------------------------------------
      LOOP:  cpu time   18.2405: real time   18.3949

 eigenvalue-minimisations  :  2999
 total energy-change (2. order) :-0.4661208E+00  (-0.3202387E+00)
 number of electron     293.0000004 magnetization       0.2061200
 augmentation part       13.7727552 magnetization       0.2264217

 Broyden mixing:
  rms(total) = 0.14502E+01    rms(broyden)= 0.14498E+01
  rms(prec ) = 0.18085E+01
  weight for this iteration     100.00

 eigenvalues of (default mixing * dielectric matrix)
  average eigenvalue GAMMA=   0.9206
  2.3361  1.0831  0.3487  0.3487  0.4863

 Free energy of the ion-electron system (eV)
  ---------------------------------------------------
  alpha Z        PSCENC =       156.95040625
  Ewald energy   TEWEN  =     30374.44582020
  -Hartree energ DENC   =    -40483.21882757
  -exchange      EXHF   =         0.00000000
  -V(xc)+E(xc)   XCENC  =      1021.35522489
  PAW double counting   =     29313.40581226   -29414.58719086
  entropy T*S    EENTRO =        -0.00415624
  eigenvalues    EBANDS =     -3681.69565232
  atomic energy  EATOM  =     12065.75791449
  Solvation  Ediel_sol  =         0.00000000
  ---------------------------------------------------
  free energy    TOTEN  =      -647.59064890 eV

  energy without entropy =     -647.58649266  energy(sigma->0) =     -647.58857078


--------------------------------------------------------------------------------------------------------




--------------------------------------- Iteration      1(  11)  ---------------------------------------


    POTLOK:  cpu time    0.5520: real time    0.5570
    SETDIJ:  cpu time    0.0144: real time    0.0145
    EDDIAG:  cpu time    3.1633: real time    3.1985
  RMM-DIIS:  cpu time   13.4529: real time   13.5735
    ORTHCH:  cpu time    0.3428: real time    0.3439
       DOS:  cpu time    0.0010: real time    0.0010
    CHARGE:  cpu time    0.9714: real time    0.9812
    MIXING:  cpu time    0.0111: real time    0.0111
    --------------------------------------------
      LOOP:  cpu time   18.5089: real time   18.6807

 eigenvalue-minimisations  :  3125
 total energy-change (2. order) : 0.1076643E+01  (-0.4298117E-01)
 number of electron     293.0000001 magnetization       0.1346105
 augmentation part       12.4956307 magnetization       0.1238961

 Broyden mixing:
  rms(total) = 0.79131E+00    rms(broyden)= 0.79072E+00
  rms(prec ) = 0.85146E+00
  weight for this iteration     100.00

 eigenvalues of (default mixing * dielectric matrix)
  average eigenvalue GAMMA=   0.9673
  2.1070  1.9932  0.6553  0.3462  0.3462  0.3558

 Free energy of the ion-electron system (eV)
  ---------------------------------------------------
  alpha Z        PSCENC =       156.95040625
  Ewald energy   TEWEN  =     30374.44582020
  -Hartree energ DENC   =    -40516.57600518
  -exchange      EXHF   =         0.00000000
  -V(xc)+E(xc)   XCENC  =      1021.79660345
  PAW double counting   =     29974.42706374   -30074.95159991
  entropy T*S    EENTRO =        -0.02099690
  eigenvalues    EBANDS =     -3648.34321251
  atomic energy  EATOM  =     12065.75791449
  Solvation  Ediel_sol  =         0.00000000
  ---------------------------------------------------
  free energy    TOTEN  =      -646.51400637 eV

  energy without entropy =     -646.49300947  energy(sigma->0) =     -646.50350792


--------------------------------------------------------------------------------------------------------




--------------------------------------- Iteration      1(  12)  ---------------------------------------


    POTLOK:  cpu time    0.5489: real time    0.5556
    SETDIJ:  cpu time    0.0144: real time    0.0145
    EDDIAG:  cpu time    3.2399: real time    3.2689
  RMM-DIIS:  cpu time   12.8336: real time   12.9514
    ORTHCH:  cpu time    0.2941: real time    0.2949
       DOS:  cpu time    0.0011: real time    0.0011
    CHARGE:  cpu time    0.9746: real time    0.9836
    MIXING:  cpu time    0.0126: real time    0.0128
    --------------------------------------------
      LOOP:  cpu time   17.9191: real time   18.0828

 eigenvalue-minimisations  :  2944
 total energy-change (2. order) : 0.1809649E+00  (-0.1609556E-01)
 number of electron     293.0000002 magnetization       0.1561872
 augmentation part       12.8874703 magnetization      -0.1401037

 Broyden mixing:
  rms(total) = 0.58917E+00    rms(broyden)= 0.58894E+00
  rms(prec ) = 0.61183E+00
  weight for this iteration     100.00

 eigenvalues of (default mixing * dielectric matrix)
  average eigenvalue GAMMA=   0.8682
  2.1234  2.1234  0.5653  0.3481  0.3481  0.3663  0.2028

 Free energy of the ion-electron system (eV)
  ---------------------------------------------------
  alpha Z        PSCENC =       156.95040625
  Ewald energy   TEWEN  =     30374.44582020
  -Hartree energ DENC   =    -40543.09169012
  -exchange      EXHF   =         0.00000000
  -V(xc)+E(xc)   XCENC  =      1021.39246475
  PAW double counting   =     30435.18270976   -30534.17763558
  entropy T*S    EENTRO =        -0.06739042
  eigenvalues    EBANDS =     -3622.72564078
  atomic energy  EATOM  =     12065.75791449
  Solvation  Ediel_sol  =         0.00000000
  ---------------------------------------------------
  free energy    TOTEN  =      -646.33304146 eV

  energy without entropy =     -646.26565104  energy(sigma->0) =     -646.29934625


--------------------------------------------------------------------------------------------------------




--------------------------------------- Iteration      1(  13)  ---------------------------------------


    POTLOK:  cpu time    0.5267: real time    0.5311
    SETDIJ:  cpu time    0.0204: real time    0.0205
    EDDIAG:  cpu time    3.2143: real time    3.2461
  RMM-DIIS:  cpu time   12.9722: real time   13.0799
    ORTHCH:  cpu time    0.2978: real time    0.2989
       DOS:  cpu time    0.0010: real time    0.0010
    CHARGE:  cpu time    0.9822: real time    0.9963
    MIXING:  cpu time    0.0094: real time    0.0127
    --------------------------------------------
      LOOP:  cpu time   18.0240: real time   18.1864

 eigenvalue-minimisations  :  2994
 total energy-change (2. order) :-0.1120813E+00  (-0.2968395E-02)
 number of electron     293.0000002 magnetization       0.0648393
 augmentation part       12.9677974 magnetization      -0.3820004

 Broyden mixing:
  rms(total) = 0.71977E+00    rms(broyden)= 0.71969E+00
  rms(prec ) = 0.75444E+00
  weight for this iteration     100.00

 eigenvalues of (default mixing * dielectric matrix)
  average eigenvalue GAMMA=   0.8870
  2.2076  2.2076  0.7150  0.5872  0.3464  0.3464  0.3426  0.3432

 Free energy of the ion-electron system (eV)
  ---------------------------------------------------
  alpha Z        PSCENC =       156.95040625
  Ewald energy   TEWEN  =     30374.44582020
  -Hartree energ DENC   =    -40546.75070186
  -exchange      EXHF   =         0.00000000
  -V(xc)+E(xc)   XCENC  =      1021.42003883
  PAW double counting   =     30448.08865286   -30546.96703300
  entropy T*S    EENTRO =        -0.03414963
  eigenvalues    EBANDS =     -3619.35607090
  atomic energy  EATOM  =     12065.75791449
  Solvation  Ediel_sol  =         0.00000000
  ---------------------------------------------------
  free energy    TOTEN  =      -646.44512277 eV

  energy without entropy =     -646.41097314  energy(sigma->0) =     -646.42804795


--------------------------------------------------------------------------------------------------------




--------------------------------------- Iteration      1(  14)  ---------------------------------------


    POTLOK:  cpu time    0.5283: real time    0.5333
    SETDIJ:  cpu time    0.0143: real time    0.0144
    EDDIAG:  cpu time    3.2141: real time    3.2445
  RMM-DIIS:  cpu time   13.0668: real time   13.1774
    ORTHCH:  cpu time    0.2480: real time    0.2492
       DOS:  cpu time    0.0010: real time    0.0010
    CHARGE:  cpu time    0.9656: real time    0.9749
    MIXING:  cpu time    0.0128: real time    0.0131
    --------------------------------------------
      LOOP:  cpu time   18.0510: real time   18.2077

 eigenvalue-minimisations  :  2984
 total energy-change (2. order) : 0.1864836E+00  (-0.2889540E-02)
 number of electron     293.0000002 magnetization      -0.0079572
 augmentation part       12.9969411 magnetization      -0.3298664

 Broyden mixing:
  rms(total) = 0.65979E+00    rms(broyden)= 0.65977E+00
  rms(prec ) = 0.70565E+00
  weight for this iteration     100.00

 eigenvalues of (default mixing * dielectric matrix)
  average eigenvalue GAMMA=   0.8002
  2.2173  2.2173  0.7147  0.5771  0.3464  0.3464  0.3431  0.2200  0.2200

 Free energy of the ion-electron system (eV)
  ---------------------------------------------------
  alpha Z        PSCENC =       156.95040625
  Ewald energy   TEWEN  =     30374.44582020
  -Hartree energ DENC   =    -40552.21279545
  -exchange      EXHF   =         0.00000000
  -V(xc)+E(xc)   XCENC  =      1021.47465726
  PAW double counting   =     30533.25818384   -30632.02547786
  entropy T*S    EENTRO =        -0.06777834
  eigenvalues    EBANDS =     -3613.83956953
  atomic energy  EATOM  =     12065.75791449
  Solvation  Ediel_sol  =         0.00000000
  ---------------------------------------------------
  free energy    TOTEN  =      -646.25863914 eV

  energy without entropy =     -646.19086080  energy(sigma->0) =     -646.22474997


--------------------------------------------------------------------------------------------------------




--------------------------------------- Iteration      1(  15)  ---------------------------------------


    POTLOK:  cpu time    0.5398: real time    0.5453
    SETDIJ:  cpu time    0.0143: real time    0.0144
    EDDIAG:  cpu time    3.1826: real time    3.2101
  RMM-DIIS:  cpu time   12.8746: real time   12.9772
    ORTHCH:  cpu time    0.2166: real time    0.2175
       DOS:  cpu time    0.0011: real time    0.0011
    CHARGE:  cpu time    0.9384: real time    0.9530
    MIXING:  cpu time    0.0132: real time    0.0134
    --------------------------------------------
      LOOP:  cpu time   17.7805: real time   17.9320

 eigenvalue-minimisations  :  3005
 total energy-change (2. order) :-0.1502529E-01  (-0.1544796E-02)
 number of electron     293.0000002 magnetization       0.0252030
 augmentation part       13.0034380 magnetization       0.2747766

 Broyden mixing:
  rms(total) = 0.59153E+00    rms(broyden)= 0.59091E+00
  rms(prec ) = 0.64499E+00
  weight for this iteration     100.00

 eigenvalues of (default mixing * dielectric matrix)
  average eigenvalue GAMMA=   0.8208
  2.2082  2.2082  0.4181  0.7342  0.7342  0.3462  0.3462  0.4372  0.4372  0.3384

 Free energy of the ion-electron system (eV)
  ---------------------------------------------------
  alpha Z        PSCENC =       156.95040625
  Ewald energy   TEWEN  =     30374.44582020
  -Hartree energ DENC   =    -40556.89149250
  -exchange      EXHF   =         0.00000000
  -V(xc)+E(xc)   XCENC  =      1021.56048731
  PAW double counting   =     30528.06181713   -30626.86643105
  entropy T*S    EENTRO =        -0.07188438
  eigenvalues    EBANDS =     -3609.22030187
  atomic energy  EATOM  =     12065.75791449
  Solvation  Ediel_sol  =         0.00000000
  ---------------------------------------------------
  free energy    TOTEN  =      -646.27366443 eV

  energy without entropy =     -646.20178005  energy(sigma->0) =     -646.23772224


--------------------------------------------------------------------------------------------------------




--------------------------------------- Iteration      1(  16)  ---------------------------------------


    POTLOK:  cpu time    0.5106: real time    0.5155
    SETDIJ:  cpu time    0.0144: real time    0.0145
    EDDIAG:  cpu time    3.1847: real time    3.2123
  RMM-DIIS:  cpu time   12.7527: real time   12.8638
    ORTHCH:  cpu time    0.2155: real time    0.2163
       DOS:  cpu time    0.0010: real time    0.0010
    CHARGE:  cpu time    0.9741: real time    0.9865
    MIXING:  cpu time    0.0119: real time    0.0140
    --------------------------------------------
      LOOP:  cpu time   17.6646: real time   17.8237

 eigenvalue-minimisations  :  2947
 total energy-change (2. order) :-0.2717675E-01  (-0.2861184E-02)
 number of electron     293.0000002 magnetization       0.0393580
 augmentation part       12.9337273 magnetization       0.3881278

 Broyden mixing:
  rms(total) = 0.61679E+00    rms(broyden)= 0.61671E+00
  rms(prec ) = 0.64670E+00
  weight for this iteration     100.00

 eigenvalues of (default mixing * dielectric matrix)
  average eigenvalue GAMMA=   0.8170
  2.2059  2.2059  0.4083  0.8766  0.8766  0.5404  0.3462  0.3462  0.4210  0.4210
  0.3396

 Free energy of the ion-electron system (eV)
  ---------------------------------------------------
  alpha Z        PSCENC =       156.95040625
  Ewald energy   TEWEN  =     30374.44582020
  -Hartree energ DENC   =    -40572.40926520
  -exchange      EXHF   =         0.00000000
  -V(xc)+E(xc)   XCENC  =      1021.78469069
  PAW double counting   =     30500.67765112   -30599.47162258
  entropy T*S    EENTRO =        -0.05986770
  eigenvalues    EBANDS =     -3593.97656844
  atomic energy  EATOM  =     12065.75791449
  Solvation  Ediel_sol  =         0.00000000
  ---------------------------------------------------
  free energy    TOTEN  =      -646.30084117 eV

  energy without entropy =     -646.24097347  energy(sigma->0) =     -646.27090732


--------------------------------------------------------------------------------------------------------




--------------------------------------- Iteration      1(  17)  ---------------------------------------


    POTLOK:  cpu time    0.5487: real time    0.5548
    SETDIJ:  cpu time    0.0146: real time    0.0147
    EDDIAG:  cpu time    3.2209: real time    3.2464
  RMM-DIIS:  cpu time   13.0317: real time   13.1410
    ORTHCH:  cpu time    0.3966: real time    0.3981
       DOS:  cpu time    0.0010: real time    0.0010
    CHARGE:  cpu time    0.9864: real time    0.9962
    MIXING:  cpu time    0.0141: real time    0.0143
    --------------------------------------------
      LOOP:  cpu time   18.2139: real time   18.3664

 eigenvalue-minimisations  :  3013
 total energy-change (2. order) : 0.4083773E-01  (-0.3983906E-02)
 number of electron     293.0000002 magnetization       0.0503105
 augmentation part       12.6338434 magnetization       0.2608243

 Broyden mixing:
  rms(total) = 0.39543E+00    rms(broyden)= 0.39532E+00
  rms(prec ) = 0.41927E+00
  weight for this iteration     100.00

 eigenvalues of (default mixing * dielectric matrix)
  average eigenvalue GAMMA=   0.8125
  2.2148  2.2148  0.4024  0.8344  0.8344  0.6110  0.6110  0.3460  0.3460  0.4959
  0.4959  0.3433

 Free energy of the ion-electron system (eV)
  ---------------------------------------------------
  alpha Z        PSCENC =       156.95040625
  Ewald energy   TEWEN  =     30374.44582020
  -Hartree energ DENC   =    -40598.32823325
  -exchange      EXHF   =         0.00000000
  -V(xc)+E(xc)   XCENC  =      1022.08726555
  PAW double counting   =     30438.00976346   -30536.71756666
  entropy T*S    EENTRO =        -0.06037406
  eigenvalues    EBANDS =     -3568.40499943
  atomic energy  EATOM  =     12065.75791449
  Solvation  Ediel_sol  =         0.00000000
  ---------------------------------------------------
  free energy    TOTEN  =      -646.26000344 eV

  energy without entropy =     -646.19962938  energy(sigma->0) =     -646.22981641


--------------------------------------------------------------------------------------------------------




--------------------------------------- Iteration      1(  18)  ---------------------------------------


    POTLOK:  cpu time    0.5189: real time    0.5229
    SETDIJ:  cpu time    0.0145: real time    0.0147
    EDDIAG:  cpu time    3.2226: real time    3.2526
  RMM-DIIS:  cpu time   12.9837: real time   13.0960
    ORTHCH:  cpu time    0.2331: real time    0.2343
       DOS:  cpu time    0.0009: real time    0.0010
    CHARGE:  cpu time    0.9818: real time    0.9938
    MIXING:  cpu time    0.0143: real time    0.0149
    --------------------------------------------
      LOOP:  cpu time   17.9699: real time   18.1302

 eigenvalue-minimisations  :  3023
 total energy-change (2. order) :-0.9055104E-03  (-0.2035651E-02)
 number of electron     293.0000002 magnetization       0.0524231
 augmentation part       12.8765406 magnetization       0.1115091

 Broyden mixing:
  rms(total) = 0.23262E+00    rms(broyden)= 0.23243E+00
  rms(prec ) = 0.27238E+00
  weight for this iteration     100.00

 eigenvalues of (default mixing * dielectric matrix)
  average eigenvalue GAMMA=   0.8543
  2.1968  2.1968  1.5131  0.7789  0.6709  0.6709  0.3462  0.3462  0.4870  0.4870
  0.3431  0.6702  0.3986

 Free energy of the ion-electron system (eV)
  ---------------------------------------------------
  alpha Z        PSCENC =       156.95040625
  Ewald energy   TEWEN  =     30374.44582020
  -Hartree energ DENC   =    -40619.62023307
  -exchange      EXHF   =         0.00000000
  -V(xc)+E(xc)   XCENC  =      1022.26695710
  PAW double counting   =     30383.79674903   -30482.39093466
  entropy T*S    EENTRO =        -0.08365693
  eigenvalues    EBANDS =     -3547.38393135
  atomic energy  EATOM  =     12065.75791449
  Solvation  Ediel_sol  =         0.00000000
  ---------------------------------------------------
  free energy    TOTEN  =      -646.26090895 eV

  energy without entropy =     -646.17725202  energy(sigma->0) =     -646.21908048


--------------------------------------------------------------------------------------------------------




--------------------------------------- Iteration      1(  19)  ---------------------------------------


    POTLOK:  cpu time    0.4511: real time    0.4586
    SETDIJ:  cpu time    0.0144: real time    0.0145
    EDDIAG:  cpu time    3.2397: real time    3.2668
  RMM-DIIS:  cpu time   13.2533: real time   13.3716
    ORTHCH:  cpu time    0.2661: real time    0.2669
       DOS:  cpu time    0.0010: real time    0.0010
    CHARGE:  cpu time    0.9925: real time    1.0031
    MIXING:  cpu time    0.0152: real time    0.0152
    --------------------------------------------
      LOOP:  cpu time   18.2333: real time   18.3978

 eigenvalue-minimisations  :  3046
 total energy-change (2. order) :-0.1653040E-01  (-0.4081707E-03)
 number of electron     293.0000002 magnetization       0.0807869
 augmentation part       12.8175954 magnetization      -0.0258219

 Broyden mixing:
  rms(total) = 0.23327E+00    rms(broyden)= 0.23313E+00
  rms(prec ) = 0.24809E+00
  weight for this iteration     100.00

 eigenvalues of (default mixing * dielectric matrix)
  average eigenvalue GAMMA=   0.8203
  2.2666  2.2666  1.6652  0.4410  0.4101  0.7553  0.7108  0.7108  0.3461  0.3461
  0.4873  0.4873  0.3392  0.2513

 Free energy of the ion-electron system (eV)
  ---------------------------------------------------
  alpha Z        PSCENC =       156.95040625
  Ewald energy   TEWEN  =     30374.44582020
  -Hartree energ DENC   =    -40620.49037708
  -exchange      EXHF   =         0.00000000
  -V(xc)+E(xc)   XCENC  =      1022.27056414
  PAW double counting   =     30382.62184704   -30481.20863621
  entropy T*S    EENTRO =        -0.07576075
  eigenvalues    EBANDS =     -3546.54921745
  atomic energy  EATOM  =     12065.75791449
  Solvation  Ediel_sol  =         0.00000000
  ---------------------------------------------------
  free energy    TOTEN  =      -646.27743935 eV

  energy without entropy =     -646.20167860  energy(sigma->0) =     -646.23955898


--------------------------------------------------------------------------------------------------------




--------------------------------------- Iteration      1(  20)  ---------------------------------------


    POTLOK:  cpu time    0.5230: real time    0.5283
    SETDIJ:  cpu time    0.0146: real time    0.0146
    EDDIAG:  cpu time    3.2312: real time    3.2649
  RMM-DIIS:  cpu time   12.8932: real time   12.9970
    ORTHCH:  cpu time    0.2751: real time    0.2770
       DOS:  cpu time    0.0011: real time    0.0011
    CHARGE:  cpu time    0.9557: real time    0.9656
    MIXING:  cpu time    0.0149: real time    0.0155
    --------------------------------------------
      LOOP:  cpu time   17.9089: real time   18.0640

 eigenvalue-minimisations  :  2974
 total energy-change (2. order) :-0.2433700E-01  (-0.7017524E-03)
 number of electron     293.0000002 magnetization       0.0906024
 augmentation part       12.7770838 magnetization      -0.1924364

 Broyden mixing:
  rms(total) = 0.39383E+00    rms(broyden)= 0.39369E+00
  rms(prec ) = 0.39678E+00
  weight for this iteration     100.00

 eigenvalues of (default mixing * dielectric matrix)
  average eigenvalue GAMMA=   0.8702
  2.4573  2.4573  1.8543  0.9031  0.9031  0.7826  0.3463  0.3463  0.4341  0.4341
  0.5225  0.5225  0.3455  0.3848  0.3588

 Free energy of the ion-electron system (eV)
  ---------------------------------------------------
  alpha Z        PSCENC =       156.95040625
  Ewald energy   TEWEN  =     30374.44582020
  -Hartree energ DENC   =    -40634.89954488
  -exchange      EXHF   =         0.00000000
  -V(xc)+E(xc)   XCENC  =      1022.39907052
  PAW double counting   =     30362.17528567   -30460.64818256
  entropy T*S    EENTRO =        -0.05757513
  eigenvalues    EBANDS =     -3532.42497093
  atomic energy  EATOM  =     12065.75791449
  Solvation  Ediel_sol  =         0.00000000
  ---------------------------------------------------
  free energy    TOTEN  =      -646.30177636 eV

  energy without entropy =     -646.24420123  energy(sigma->0) =     -646.27298879


[...]
  E(xc)   -1111.05481 -1110.72791 -1150.17030     0.00053     0.00068    -0.00225
  Local  -83743.01100-83736.15617 86085.59957    -5.51619    -2.97787    -1.42573
  n-local  -289.53581  -286.81546  -269.77144    -0.14008     0.05968     0.01347
  augment    66.63378    64.98347    65.43771    -0.04549    -0.03125    -0.01692
  Kinetic  4383.60140  4370.92291  4985.23426     0.14023    -0.12997    -0.07135
  Fock        0.00000     0.00000     0.00000     0.00000     0.00000     0.00000
  vdW        -1.51799    -1.67263    -0.04126     0.00568     0.00002     0.00009
  -------------------------------------------------------------------------------------
  Total       0.14793     0.20098    -0.74097     0.06326    -0.00314     0.00371
  in kB       0.08335     0.11325    -0.41751     0.03564    -0.00177     0.00209
  external pressure =       -0.07 kB  Pullay stress =        0.00 kB


 VOLUME and BASIS-vectors are now :
 -----------------------------------------------------------------------------
  energy-cutoff  :      550.00
  volume of cell :     2843.47
      direct lattice vectors                 reciprocal lattice vectors
    14.859800864  0.001585983  0.000000000     0.067291470  0.039194507  0.000000000
    -7.429900432 12.756096762  0.000000000    -0.000008366  0.078389013  0.000000000
     0.000000000  0.000000000 15.000000000     0.000000000  0.000000000  0.066666667

  length of vectors
    14.859800949 14.762161936 15.000000000     0.077873944  0.078389014  0.066666667


 FORCES acting on ions
    electron-ion (+dipol)            ewald-force                    non-local-force                 convergence-correction
 -----------------------------------------------------------------------------------------------
   0.176E+01 0.263E+02 0.761E+01   -.179E+01 -.326E+02 -.764E+01   0.176E-01 0.628E+01 0.313E-01   -.648E-03 -.858E-03 0.165E-03
   -.213E+01 0.810E+00 0.930E+01   0.253E+01 -.670E+00 -.944E+01   -.391E+00 -.154E+00 0.145E+00   -.562E-04 0.211E-02 0.197E-03
   -.711E+01 0.444E+01 0.746E+01   0.785E+01 -.474E+01 -.748E+01   -.755E+00 0.313E+00 0.208E-01   -.155E-02 0.146E-02 -.963E-04
   -.127E+02 -.108E+01 0.767E+01   0.142E+02 0.767E+00 -.769E+01   -.145E+01 0.307E+00 0.183E-01   -.104E-02 0.161E-02 0.263E-04
   -.245E+01 0.134E+01 0.654E+01   0.264E+01 -.123E+01 -.656E+01   -.193E+00 -.116E+00 0.193E-01   -.325E-02 0.186E-02 -.335E-03
   0.977E-01 -.561E+00 0.696E+01   0.847E-01 0.635E+00 -.696E+01   -.174E+00 -.819E-01 0.237E-02   -.358E-02 0.125E-02 -.269E-03
   -.176E+01 0.235E+00 0.762E+01   0.184E+01 -.233E+00 -.765E+01   -.727E-01 0.253E-01 0.250E-01   0.560E-03 -.708E-03 -.156E-03
   0.190E+01 -.536E+00 0.785E+01   -.198E+01 0.562E+00 -.789E+01   0.667E-01 -.366E-01 0.292E-01   -.160E-03 0.499E-03 -.132E-03
   0.446E+00 0.323E+00 0.755E+01   -.579E+00 -.430E+00 -.755E+01   0.140E+00 0.106E+00 0.696E-02   0.356E-02 -.152E-03 -.130E-03
   0.215E+01 -.131E+01 0.734E+01   -.238E+01 0.116E+01 -.736E+01   0.223E+00 0.132E+00 0.251E-01   0.323E-02 -.622E-03 -.158E-03
   0.889E+01 0.371E+01 0.689E+01   -.968E+01 -.425E+01 -.689E+01   0.791E+00 0.542E+00 0.614E-02   0.132E-02 -.729E-03 -.137E-03
   0.103E+02 -.175E+01 0.670E+01   -.117E+02 0.119E+01 -.672E+01   0.140E+01 0.562E+00 0.181E-01   0.115E-02 -.664E-03 -.263E-03
   0.257E+02 -.890E+01 0.686E+01   -.311E+02 0.119E+02 -.689E+01   0.545E+01 -.301E+01 0.239E-01   0.200E-02 0.246E-03 -.164E-03
   0.868E+01 -.591E+01 0.643E+01   -.899E+01 0.726E+01 -.645E+01   0.304E+00 -.134E+01 0.809E-02   0.248E-02 -.530E-03 -.291E-03
   -.213E+02 -.868E+01 0.825E+01   0.267E+02 0.119E+02 -.821E+01   -.544E+01 -.328E+01 -.361E-01   -.592E-03 0.152E-02 0.243E-03
   -.869E+01 -.156E+01 0.993E+01   0.959E+01 0.321E+01 -.998E+01   -.881E+00 -.166E+01 0.582E-01   -.961E-03 -.362E-03 0.345E-03
   -.361E+01 0.681E+01 0.757E+01   0.420E+01 -.611E+01 -.760E+01   -.579E+00 -.737E+00 0.213E-01   -.326E-02 0.938E-03 -.125E-03
   -.391E+01 0.454E+01 0.580E+01   0.418E+01 -.370E+01 -.538E+01   -.279E+00 -.847E+00 -.421E+00   -.345E-02 -.150E-02 0.105E-04
   -.253E+01 0.529E+01 0.831E+01   0.258E+01 -.513E+01 -.832E+01   -.366E-01 -.182E+00 0.120E-01   -.234E-02 0.827E-03 -.162E-03
   0.134E+01 0.654E+01 0.974E+01   -.179E+01 -.629E+01 -.983E+01   0.425E+00 -.255E+00 0.978E-01   -.225E-02 -.370E-03 -.109E-03
   -.973E+00 0.458E+01 0.779E+01   0.874E+00 -.459E+01 -.779E+01   0.846E-01 0.243E-01 0.686E-02   0.155E-02 0.276E-04 -.744E-04
   -.732E+00 0.271E+01 0.790E+01   0.600E+00 -.275E+01 -.793E+01   0.133E+00 0.414E-01 0.272E-01   0.147E-02 -.366E-03 -.289E-05
   0.372E+01 0.271E+01 0.603E+01   -.432E+01 -.247E+01 -.602E+01   0.574E+00 -.237E+00 -.151E-01   0.297E-02 -.863E-03 -.323E-03
   0.399E+01 0.396E+00 0.601E+01   -.426E+01 -.279E+00 -.603E+01   0.279E+00 -.118E+00 0.207E-01   0.270E-02 -.832E-03 -.389E-03
   0.256E+01 -.374E+00 0.517E+01   -.309E+01 0.713E+00 -.516E+01   0.536E+00 -.316E+00 -.177E-01   0.226E-02 -.148E-02 -.503E-03
   0.480E+01 0.306E+01 0.543E+01   -.486E+01 -.284E+01 -.547E+01   0.746E-01 -.199E+00 0.292E-01   0.211E-02 -.283E-02 -.503E-03
   0.434E+01 0.977E+00 0.690E+01   -.414E+01 -.167E+00 -.686E+01   -.225E+00 -.807E+00 -.397E-01   0.138E-02 -.142E-02 -.111E-04
   0.115E+02 0.243E+01 0.609E+01   -.112E+02 -.178E+01 -.622E+01   -.221E+00 -.648E+00 0.126E+00   0.140E-02 -.308E-02 -.751E-04
   -.270E+01 0.146E+02 0.117E+02   0.353E+01 -.132E+02 -.118E+02   -.852E+00 -.133E+01 0.166E+00   -.223E-02 -.220E-02 0.561E-03
   -.103E+02 0.325E+02 0.236E+02   0.168E+02 -.287E+02 -.226E+02   -.647E+01 -.380E+01 -.962E+00   -.157E-02 -.155E-02 0.137E-02
   0.472E+00 0.176E+02 0.111E+02   -.583E+00 -.165E+02 -.113E+02   0.116E+00 -.106E+01 0.243E+00   -.280E-02 -.343E-03 -.857E-04
   0.725E+01 0.340E+02 0.228E+02   -.134E+02 -.304E+02 -.218E+02   0.619E+01 -.359E+01 -.958E+00   -.251E-02 0.850E-03 0.500E-03
   -.411E+01 0.986E+01 0.780E+01   0.389E+01 -.988E+01 -.776E+01   0.230E+00 0.524E-02 -.365E-01   -.809E-03 0.742E-03 0.548E-04
   -.111E+02 0.671E+01 0.754E+01   0.109E+02 -.661E+01 -.767E+01   0.225E+00 -.979E-01 0.132E+00   -.110E-02 0.130E-02 0.691E-04
   -.570E+00 0.274E+01 0.659E+01   0.340E+00 -.267E+01 -.658E+01   0.222E+00 -.681E-01 -.187E-01   0.232E-02 -.663E-03 -.138E-03
   -.238E+01 0.348E+01 0.738E+01   0.231E+01 -.341E+01 -.741E+01   0.871E-01 -.568E-01 0.391E-01   0.120E-02 -.192E-02 -.813E-04
   0.689E-01 -.986E+00 0.618E+01   -.172E+00 0.108E+01 -.620E+01   0.805E-01 -.786E-01 0.162E-01   0.169E-02 -.203E-02 -.390E-03
   0.728E+00 0.257E+00 0.624E+01   -.710E+00 -.267E+00 -.626E+01   -.147E-01 0.359E-02 0.138E-01   0.291E-03 0.347E-03 -.404E-03
   0.553E+01 -.165E+01 0.390E+01   -.557E+01 0.183E+01 -.387E+01   0.453E-01 -.182E+00 -.376E-01   0.245E-02 -.282E-02 -.364E-03
   0.523E+01 -.162E+01 0.399E+01   -.518E+01 0.173E+01 -.396E+01   -.495E-01 -.120E+00 -.364E-01   0.178E-02 -.219E-02 -.329E-03
   0.246E+02 0.565E+01 0.141E+02   -.236E+02 -.594E+01 -.145E+02   -.976E+00 0.298E+00 0.514E+00   -.501E-03 -.336E-02 0.619E-03
   0.247E+02 -.886E+01 0.140E+02   -.238E+02 0.943E+01 -.145E+02   -.880E+00 -.605E+00 0.552E+00   0.347E-03 -.200E-02 0.522E-03
   -.247E+02 0.836E+01 0.135E+02   0.238E+02 -.884E+01 -.140E+02   0.822E+00 0.503E+00 0.511E+00   -.741E-03 0.122E-02 0.100E-04
   -.243E+02 -.725E+01 0.135E+02   0.234E+02 0.765E+01 -.140E+02   0.882E+00 -.392E+00 0.520E+00   -.957E-04 0.253E-02 0.215E-03
   -.545E+01 0.362E+00 0.666E+01   0.535E+01 -.379E+00 -.663E+01   0.120E+00 0.298E-01 -.260E-01   -.188E-02 0.612E-03 0.182E-03
   -.560E+01 0.492E+00 0.666E+01   0.555E+01 -.558E+00 -.663E+01   0.674E-01 0.702E-01 -.269E-01   -.264E-02 0.244E-02 0.168E-03
   -.401E+01 -.361E+01 0.746E+01   0.399E+01 0.349E+01 -.750E+01   0.193E-01 0.894E-01 0.418E-01   -.184E-02 0.237E-02 -.114E-03
   -.152E+01 -.120E+01 0.664E+01   0.161E+01 0.106E+01 -.662E+01   -.941E-01 0.146E+00 -.182E-01   -.229E-02 0.137E-02 -.154E-03
   0.257E+01 -.448E+01 0.552E+01   -.256E+01 0.446E+01 -.555E+01   -.812E-02 0.308E-02 0.262E-01   0.260E-03 -.294E-03 -.484E-03
   0.469E+00 -.280E+01 0.515E+01   -.351E+00 0.276E+01 -.513E+01   -.111E+00 0.481E-01 -.224E-01   -.971E-03 -.174E-03 -.447E-03
   0.116E+02 -.747E+01 0.610E+01   -.114E+02 0.742E+01 -.621E+01   -.237E+00 0.684E-01 0.115E+00   0.109E-02 -.225E-02 -.315E-04
   0.429E+01 -.953E+01 0.686E+01   -.408E+01 0.956E+01 -.682E+01   -.227E+00 -.431E-01 -.381E-01   0.127E-02 -.331E-03 -.864E-04
   -.710E+01 -.348E+02 0.243E+02   0.133E+02 0.312E+02 -.233E+02   -.625E+01 0.353E+01 -.983E+00   0.152E-02 -.193E-02 0.113E-02
   -.327E+00 -.175E+02 0.124E+02   0.551E+00 0.165E+02 -.127E+02   -.225E+00 0.102E+01 0.246E+00   0.150E-02 0.232E-04 0.109E-03
   0.805E+01 -.337E+02 0.215E+02   -.143E+02 0.301E+02 -.204E+02   0.627E+01 0.362E+01 -.104E+01   0.701E-03 0.844E-03 0.844E-03
   0.123E+01 -.161E+02 0.113E+02   -.164E+01 0.149E+02 -.115E+02   0.429E+00 0.116E+01 0.214E+00   0.213E-02 0.171E-02 0.101E-03
   -.113E+02 -.582E+01 0.754E+01   0.111E+02 0.553E+01 -.767E+01   0.238E+00 0.303E+00 0.132E+00   -.155E-02 0.240E-02 0.142E-03
   -.415E+01 -.502E+01 0.779E+01   0.394E+01 0.474E+01 -.775E+01   0.224E+00 0.286E+00 -.441E-01   -.166E-02 0.239E-02 0.152E-03
   -.440E+01 -.220E+00 0.802E+01   0.438E+01 -.416E+00 -.804E+01   0.383E-01 0.608E+00 0.227E-01   -.310E-02 0.211E-02 0.616E-04
   -.639E+01 0.623E+01 0.786E+01   0.746E+01 -.714E+01 -.788E+01   -.106E+01 0.895E+00 0.184E-01   -.197E-02 0.328E-03 0.678E-04
   -.182E+01 -.134E+01 0.605E+01   0.191E+01 0.122E+01 -.608E+01   -.979E-01 0.129E+00 0.217E-01   -.254E-02 0.129E-02 -.366E-03
   -.364E+01 0.715E-01 0.599E+01   0.410E+01 -.275E+00 -.598E+01   -.446E+00 0.190E+00 -.186E-01   -.312E-02 0.234E-02 -.314E-03
   0.133E+01 -.262E+01 0.635E+01   -.125E+01 0.265E+01 -.637E+01   -.845E-01 -.359E-01 0.199E-01   0.401E-03 0.228E-03 -.294E-03
   0.128E+01 -.368E+01 0.677E+01   -.120E+01 0.371E+01 -.678E+01   -.961E-01 -.287E-01 0.587E-02   -.131E-03 0.156E-03 -.285E-03
   -.148E+01 -.656E+01 0.102E+02   0.195E+01 0.630E+01 -.103E+02   -.469E+00 0.262E+00 0.100E+00   0.103E-02 0.265E-03 -.286E-04
   0.246E+01 -.435E+01 0.866E+01   -.250E+01 0.420E+01 -.868E+01   0.426E-01 0.177E+00 0.173E-01   0.141E-02 -.779E-03 -.544E-04
   0.186E+01 -.578E+01 0.626E+01   -.195E+01 0.494E+01 -.582E+01   0.882E-01 0.859E+00 -.441E+00   0.309E-02 0.175E-02 -.205E-03
   0.343E+01 -.384E+01 0.739E+01   -.387E+01 0.319E+01 -.742E+01   0.431E+00 0.675E+00 0.196E-01   0.320E-02 0.455E-03 -.235E-03
   0.434E+01 -.401E+01 0.980E+01   -.488E+01 0.309E+01 -.988E+01   0.540E+00 0.908E+00 0.744E-01   0.106E-02 0.198E-02 0.898E-04
   0.256E+01 0.520E+01 0.804E+01   -.366E+01 -.632E+01 -.803E+01   0.111E+01 0.113E+01 -.196E-02   0.556E-03 -.967E-03 0.997E-04
   -.368E+00 0.579E+00 -.622E+03   0.445E+00 -.387E+00 0.604E+03   -.754E-01 -.197E+00 0.177E+02   -.890E-03 0.186E-03 0.626E-02
 -----------------------------------------------------------------------------------------------
   0.412E+00 0.372E+00 -.171E+02   0.373E-13 -.279E-12 -.341E-12   -.408E+00 -.360E+00 0.170E+02   -.651E-03 0.145E-02 0.501E-02
 
 
 POSITION                                       TOTAL-FORCE (eV/Angst)
 -----------------------------------------------------------------------------------
      0.00219      0.01074      7.46552        -0.006728      0.020381      0.002541
      0.00074      1.42138      7.46647         0.011092     -0.012375      0.002329
      2.48292      0.02449      7.46288        -0.016193      0.009142     -0.002446
      2.46626      1.44297      7.47344         0.004951      0.001706      0.000987
      4.95098      0.02835      7.46614        -0.008133     -0.002597     -0.004693
      4.94774      1.44757      7.47567         0.004667     -0.005102     -0.004057
      0.00171     12.75539      7.46596         0.005384      0.027173     -0.000861
      7.43249      1.42175      7.46475        -0.008318     -0.011411     -0.000665
      2.48118     12.73116      7.47374         0.010636     -0.002744      0.000310
      9.91788      1.39472      7.46310        -0.007658     -0.012944     -0.001204
      4.95195     12.72881      7.47588         0.008003      0.006550     -0.000700
     12.39521      1.39094      7.46588         0.005113      0.001692     -0.003944
     13.62982      2.10691      7.46724         0.003931     -0.000480     -0.002899
     -1.23814      3.52058      7.47721        -0.003140      0.000197     -0.004087
      1.22553      2.13705      7.47616        -0.028511     -0.029615      0.002326
      1.22548      3.55814      7.50095         0.014608     -0.019421      0.003238
      3.70656      2.17355      7.49060         0.016954     -0.035308     -0.004096
      3.71365      3.58949      7.53801        -0.010527      0.000047     -0.001242
      6.19238      2.14538      7.47625         0.017319     -0.015692     -0.001717
      6.19702      3.56813      7.50078        -0.025947     -0.001984     -0.001113
      8.67930      2.11247      7.46286        -0.013914      0.014439      0.000250
      8.68204      3.53073      7.47055         0.003111     -0.000184      0.003027
     11.15689      2.10616      7.46411        -0.021575     -0.000108     -0.004827
     11.14978      3.52531      7.46631         0.011403     -0.004034     -0.006343
     12.38114      4.23095      7.47470         0.004708      0.021451     -0.007351
     -2.48625      5.65619      7.48174         0.013770      0.015835     -0.005395
     -0.01571      4.24801      7.49997        -0.023112     -0.005805      0.000237
     -0.04155      5.66078      7.52499         0.004934     -0.007344     -0.004247
      2.46820      4.30016      7.55183        -0.012013      0.010267      0.015880
      2.42147      5.71437      7.64343         0.016226     -0.012565      0.032502
      4.95893      4.31050      7.55375        -0.010120     -0.002301      0.000342
      5.00828      5.72211      7.64675        -0.017557     -0.007452     -0.007321
      7.44875      4.24724      7.49485         0.014502     -0.012639      0.002275
      7.47484      5.66387      7.51797        -0.004814     -0.006842      0.001071
      9.91650      4.23898      7.46867        -0.006027     -0.001713     -0.000641
      9.92203      5.66221      7.47390         0.014066      0.006292      0.001480
     -3.71203      6.37336      7.47439        -0.021398      0.010189     -0.004678
     -3.71350      7.79836      7.47422         0.004247     -0.004355     -0.005083
     -1.26934      6.37484      7.50461        -0.000083     -0.008579     -0.005014
     -1.26806      7.79653      7.50450        -0.002996     -0.015422     -0.004305
      1.18017      6.36676      7.57813        -0.010518     -0.001334      0.009016
      1.17977      7.80435      7.57837         0.009140     -0.027552      0.007390
      6.25508      6.37059      7.57751        -0.016143      0.016635     -0.001592
      6.25543      7.80705      7.57777        -0.004463      0.015867      0.004427
      8.70052      6.37734      7.49327         0.020776      0.011648      0.004410
      8.70009      7.80028      7.49324         0.018340      0.008585      0.003140
     -4.94023      8.51540      7.47367        -0.004489     -0.028102      0.000231
     -4.94805      9.94090      7.46848        -0.001757      0.004006     -0.002214
     -2.48929      8.51222      7.48151        -0.007943     -0.015634     -0.005717
     -2.48375      9.93627      7.47478         0.005571      0.010971     -0.005700
     -0.04027      8.51004      7.52527         0.001546      0.012775     -0.000766
     -0.01506      9.92868      7.50017        -0.013509     -0.003969      0.000752
      2.42716      8.45267      7.64428         0.016467      0.002447      0.008387
      2.47531      9.86530      7.55072         0.012966      0.010611      0.006518
      5.01043      8.45870      7.64932        -0.003904      0.004269      0.022770
      4.96455      9.87174      7.55328         0.000682      0.013785      0.007787
      7.47421      8.51382      7.51808        -0.002553      0.010964      0.000098
      7.44903      9.93299      7.49477         0.016364      0.019207      0.003201
     -6.18559     10.65214      7.47036         0.013721     -0.025782      0.002131
     -6.18737     12.07620      7.46282        -0.004039     -0.010576      0.000598
     -3.71533     10.64879      7.46619        -0.004331      0.008128     -0.005369
     -3.71515     12.07284      7.46416         0.005263     -0.010383     -0.004372
     -1.24810     10.64548      7.47745         0.004420     -0.010862     -0.001407
     -1.24308     12.06477      7.46740        -0.015364      0.000416     -0.003104
      1.23692     10.60789      7.50076         0.010305     -0.001323      0.000961
      1.23941     12.03188      7.47558         0.009240      0.031000      0.000498
      3.71908     10.58486      7.53711         0.003420      0.014297     -0.005513
      3.71884     12.00618      7.49069        -0.000626      0.021076     -0.004801
      6.20391     10.61660      7.50047        -0.012612     -0.004545      0.000104
      6.19927     12.04467      7.47670         0.012326      0.021730      0.000719
      3.71671      7.08929      8.31687         0.000842     -0.004699     -0.022450
 -----------------------------------------------------------------------------------
    total drift:                                0.003955      0.013366     -0.020866


--------------------------------------------------------------------------------------------------------



  FREE ENERGIE OF THE ION-ELECTRON SYSTEM (eV)
  ---------------------------------------------------
  free  energy   TOTEN  =      -653.35925495 eV

  energy  without entropy=     -653.32616360  energy(sigma->0) =     -653.34270927
 
 d Force = 0.8113080E-03[ 0.540E-04, 0.157E-02]  d Energy = 0.8591008E-03-0.478E-04
 d Force =-0.5304369E+00[-0.536E+00,-0.525E+00]  d Ewald  =-0.1127494E+02 0.107E+02


--------------------------------------------------------------------------------------------------------


    POTLOK:  cpu time    0.5747: real time    0.5779


--------------------------------------------------------------------------------------------------------


 Conjugate gradient step on ions:
 trial-energy change:   -0.000859  1 .order   -0.000869   -0.001727   -0.000011
  (g-gl).g = 0.220E-02      g.g   = 0.218E-02  gl.gl    = 0.475E-02
 g(Force)  = 0.191E-02   g(Stress)= 0.268E-03 ortho     =-0.225E-04
 gamma     =   0.46312
 trial     =   0.79773
 opt step  =   0.80307  (harmonic =   0.80307) maximal distance =0.00182641
 next E    =  -653.359265   (d E  =  -0.00087)


--------------------------------------------------------------------------------------------------------


  
 reached required accuracy - stopping structural energy minimisation
     LOOP+:  cpu time  122.1777: real time  123.2216
    4ORBIT:  cpu time    0.0000: real time    0.0000

 total amount of memory used by VASP MPI-rank0   135455. kBytes
=======================================================================

   base      :      30000. kBytes
   nonlr-proj:      10466. kBytes
   fftplans  :      14072. kBytes
   grid      :      39398. kBytes
   one-center:        186. kBytes
   wavefun   :      41333. kBytes
 
  
  
 General timing and accounting informations for this job:
 ========================================================
  
                  Total CPU time used (sec):     2974.501
                            User time (sec):     2947.454
                          System time (sec):       27.047
                         Elapsed time (sec):     3004.543
  
                   Maximum memory used (kb):      618268.
                   Average memory used (kb):           0.
  
                          Minor page faults:      5311056
                          Major page faults:           33
                 Voluntary context switches:        23889
