       N       E                     dE             d eps       ncg     rms          ort
DAV:   1     0.252295900457E+04    0.25230E+04   -0.11619E+05   768   0.110E+03
DAV:   2    -0.243727938691E+03   -0.27667E+04   -0.26436E+04   768   0.279E+02
DAV:   3    -0.702373292297E+03   -0.45865E+03   -0.45541E+03   768   0.120E+02
DAV:   4    -0.718890565626E+03   -0.16517E+02   -0.16388E+02   768   0.280E+01
DAV:   5    -0.719432891701E+03   -0.54233E+00   -0.54064E+00   768   0.425E+00
SDA:   6    -0.551515291890E+03    0.16792E+03   -0.54064E+00   768   0.497E+03 0.000E+00
CGA:   7    -0.605530905822E+03   -0.54016E+02   -0.26340E+02   768   0.324E+03 0.462E+03
CGA:   8    -0.639875470071E+03   -0.34345E+02   -0.15147E+02   768   0.168E+03 0.323E+03
CGA:   9    -0.651857639047E+03   -0.11982E+02   -0.99007E+01   768   0.352E+02 0.289E+02
CGA:  10    -0.659602444079E+03   -0.77448E+01   -0.77515E+01   768   0.122E+02-0.292E+00
CGA:  11    -0.660543018707E+03   -0.94057E+00   -0.71713E+00   768   0.493E+01 0.223E+01
CGA:  12    -0.661441331699E+03   -0.89831E+00   -0.89747E+00   768   0.897E+01-0.234E-01
CGA:  13    -0.661825108244E+03   -0.38378E+00   -0.32045E+00   768   0.279E+01 0.156E+01
CGA:  14    -0.661949289949E+03   -0.12418E+00   -0.13614E+00   768   0.139E+01-0.175E+00
CGA:  15    -0.662082864182E+03   -0.13357E+00   -0.13372E+00   768   0.209E+01 0.858E-02
CGA:  16    -0.662186841441E+03   -0.10398E+00   -0.70224E-01   768   0.120E+01 0.101E+01
CGA:  17    -0.662265590900E+03   -0.78749E-01   -0.65352E-01   768   0.427E+00 0.347E+00
CGA:  18    -0.662313099042E+03   -0.47508E-01   -0.48972E-01   768   0.738E+00-0.306E-02
CGA:  19    -0.662340513001E+03   -0.27414E-01   -0.16355E-01   768   0.695E+00 0.493E+00
CGA:  20    -0.662390841542E+03   -0.50329E-01   -0.52139E-01   768   0.157E+00-0.647E-02
CGA:  21    -0.662440807005E+03   -0.49965E-01   -0.45535E-01   768   0.493E-01 0.254E-01
CGA:  22    -0.662470139629E+03   -0.29333E-01   -0.26961E-01   768   0.304E-01 0.691E-02
CGA:  23    -0.662481804359E+03   -0.11665E-01   -0.11704E-01   768   0.538E-01-0.283E-04
CGA:  24    -0.662488175802E+03   -0.63714E-02   -0.63408E-02   768   0.120E-01-0.471E-04
CGA:  25    -0.662492319674E+03   -0.41439E-02   -0.41653E-02   768   0.118E-01-0.149E-03
CGA:  26    -0.662493616696E+03   -0.12970E-02   -0.12916E-02   768   0.614E-02 0.124E-04
CGA:  27    -0.662495802466E+03   -0.21858E-02   -0.21800E-02   768   0.489E-02 0.301E-04
CGA:  28    -0.662496506174E+03   -0.70371E-03   -0.70861E-03   768   0.448E-02 0.190E-04
CGA:  29    -0.662497793714E+03   -0.12875E-02   -0.12976E-02   768   0.136E-02-0.738E-04
CGA:  30    -0.662498137595E+03   -0.34388E-03   -0.34411E-03   768   0.185E-02 0.305E-05
CGA:  31    -0.662498387609E+03   -0.25001E-03   -0.25139E-03   768   0.430E-03 0.624E-05
CGA:  32    -0.662498548364E+03   -0.16075E-03   -0.15904E-03   768   0.397E-03 0.911E-05
CGA:  33    -0.662498598531E+03   -0.50167E-04   -0.50399E-04   768   0.228E-03 0.445E-05
   1 F= -.66903494E+03 E0= -.66901776E+03  d E =-.669035E+03  mag=     1.4560
       N       E                     dE             d eps       ncg     rms          ort
SDA:   1    -0.661358537792E+03    0.11400E+01    0.00000E+00   768   0.385E+01 0.000E+00
CGA:   2    -0.661902759001E+03   -0.54422E+00   -0.54587E+00   768   0.162E+01 0.485E-02
CGA:   3    -0.662216292749E+03   -0.31353E+00   -0.31344E+00   768   0.106E+01-0.172E-01
CGA:   4    -0.662403735808E+03   -0.18744E+00   -0.18773E+00   768   0.384E+00 0.743E-02
CGA:   5    -0.662471994423E+03   -0.68259E-01   -0.68212E-01   768   0.132E+00-0.902E-03
CGA:   6    -0.662496612250E+03   -0.24618E-01   -0.24627E-01   768   0.573E-01 0.603E-03
CGA:   7    -0.662507291751E+03   -0.10680E-01   -0.10676E-01   768   0.300E-01-0.205E-03
CGA:   8    -0.662512250092E+03   -0.49583E-02   -0.49623E-02   768   0.114E-01 0.642E-04
CGA:   9    -0.662514441934E+03   -0.21918E-02   -0.21918E-02   768   0.354E-02-0.682E-05
CGA:  10    -0.662515118217E+03   -0.67628E-03   -0.67630E-03   768   0.135E-02 0.133E-04
CGA:  11    -0.662515338508E+03   -0.22029E-03   -0.22030E-03   768   0.559E-03 0.110E-05
CGA:  12    -0.662515441536E+03   -0.10303E-03   -0.10304E-03   768   0.185E-03 0.124E-05
CGA:  13    -0.662515482188E+03   -0.40652E-04   -0.40697E-04   768   0.105E-03-0.158E-05
   2 F= -.66905143E+03 E0= -.66903519E+03  d E =-.164883E-01  mag=     1.4201
       N       E                     dE             d eps       ncg     rms          ort
SDA:   1    -0.662425355391E+03    0.90086E-01    0.00000E+00   768   0.306E+00 0.000E+00
CGA:   2    -0.662469636468E+03   -0.44281E-01   -0.44265E-01   768   0.130E+00-0.189E-03
CGA:   3    -0.662494912621E+03   -0.25276E-01   -0.25274E-01   768   0.815E-01 0.158E-03
CGA:   4    -0.662509754543E+03   -0.14842E-01   -0.14839E-01   768   0.317E-01-0.217E-03
CGA:   5    -0.662515202031E+03   -0.54475E-02   -0.54481E-02   768   0.107E-01 0.464E-05
CGA:   6    -0.662517204102E+03   -0.20021E-02   -0.20021E-02   768   0.481E-02-0.109E-04
CGA:   7    -0.662518065556E+03   -0.86145E-03   -0.86154E-03   768   0.244E-02 0.595E-05
CGA:   8    -0.662518469662E+03   -0.40411E-03   -0.40393E-03   768   0.930E-03-0.603E-05
CGA:   9    -0.662518647778E+03   -0.17812E-03   -0.17814E-03   768   0.294E-03-0.408E-05
CGA:  10    -0.662518703502E+03   -0.55724E-04   -0.55738E-04   768   0.112E-03-0.345E-05
   3 F= -.66905477E+03 E0= -.66903832E+03  d E =-.198272E-01  mag=     1.4272
       N       E                     dE             d eps       ncg     rms          ort
SDA:   1    -0.662237947840E+03    0.28070E+00    0.00000E+00   768   0.106E+01 0.000E+00
CGA:   2    -0.662376397553E+03   -0.13845E+00   -0.13870E+00   768   0.388E+00 0.921E-03
CGA:   3    -0.662452247999E+03   -0.75850E-01   -0.75909E-01   768   0.273E+00-0.282E-02
CGA:   4    -0.662504470327E+03   -0.52222E-01   -0.52193E-01   768   0.119E+00 0.179E-02
CGA:   5    -0.662526270033E+03   -0.21800E-01   -0.21799E-01   768   0.422E-01-0.271E-03
CGA:   6    -0.662533581340E+03   -0.73113E-02   -0.73133E-02   768   0.157E-01 0.104E-03
CGA:   7    -0.662536305122E+03   -0.27238E-02   -0.27234E-02   768   0.757E-02-0.189E-04
CGA:   8    -0.662537564394E+03   -0.12593E-02   -0.12596E-02   768   0.282E-02 0.155E-04
CGA:   9    -0.662538101223E+03   -0.53683E-03   -0.53681E-03   768   0.885E-03 0.407E-05
CGA:  10    -0.662538265006E+03   -0.16378E-03   -0.16377E-03   768   0.346E-03 0.462E-05
CGA:  11    -0.662538321215E+03   -0.56209E-04   -0.56210E-04   768   0.141E-03 0.628E-07
   4 F= -.66907392E+03 E0= -.66905813E+03  d E =-.191543E-01  mag=     1.4015
       N       E                     dE             d eps       ncg     rms          ort
SDA:   1    -0.659867820057E+03    0.26704E+01    0.00000E+00   768   0.983E+01 0.000E+00
CGA:   2    -0.661106455996E+03   -0.12386E+01   -0.12479E+01   768   0.356E+01 0.409E-02
CGA:   3    -0.661784149674E+03   -0.67769E+00   -0.67962E+00   768   0.261E+01-0.110E+00
CGA:   4    -0.662266520551E+03   -0.48237E+00   -0.48137E+00   768   0.104E+01 0.523E-01
CGA:   5    -0.662467617497E+03   -0.20110E+00   -0.20123E+00   768   0.370E+00-0.735E-02
CGA:   6    -0.662533324431E+03   -0.65707E-01   -0.65716E-01   768   0.132E+00 0.279E-02
CGA:   7    -0.662557661976E+03   -0.24338E-01   -0.24341E-01   768   0.669E-01-0.642E-03
CGA:   8    -0.662568444446E+03   -0.10782E-01   -0.10790E-01   768   0.256E-01 0.194E-03
CGA:   9    -0.662573240865E+03   -0.47964E-02   -0.47972E-02   768   0.799E-02-0.595E-04
CGA:  10    -0.662574799517E+03   -0.15587E-02   -0.15583E-02   768   0.303E-02 0.204E-04
CGA:  11    -0.662575321131E+03   -0.52161E-03   -0.52156E-03   768   0.147E-02-0.370E-05
CGA:  12    -0.662575590977E+03   -0.26985E-03   -0.26985E-03   768   0.586E-03-0.360E-06
CGA:  13    -0.662575739484E+03   -0.14851E-03   -0.14882E-03   768   0.406E-03-0.440E-05
CGA:  14    -0.662575818031E+03   -0.78546E-04   -0.78555E-04   768   0.304E-03-0.614E-06
   5 F= -.66911051E+03 E0= -.66909689E+03  d E =-.557434E-01  mag=     1.3333
       N       E                     dE             d eps       ncg     rms          ort
SDA:   1    -0.651637172582E+03    0.10939E+02    0.00000E+00   768   0.420E+02 0.000E+00
CGA:   2    -0.656562235443E+03   -0.49251E+01   -0.50263E+01   768   0.151E+02-0.361E+00
CGA:   3    -0.659240700557E+03   -0.26785E+01   -0.26686E+01   768   0.111E+02-0.901E+00
CGA:   4    -0.661264314759E+03   -0.20236E+01   -0.20170E+01   768   0.394E+01 0.426E+00
CGA:   5    -0.662099902606E+03   -0.83559E+00   -0.83531E+00   768   0.141E+01 0.115E-01
CGA:   6    -0.662368774789E+03   -0.26887E+00   -0.26888E+00   768   0.501E+00-0.754E-03
CGA:   7    -0.662473629464E+03   -0.10485E+00   -0.10465E+00   768   0.220E+00 0.576E-02
CGA:   8    -0.662513433998E+03   -0.39805E-01   -0.39782E-01   768   0.117E+00-0.136E-02
CGA:   9    -0.662530713383E+03   -0.17279E-01   -0.17308E-01   768   0.361E-01 0.250E-03
CGA:  10    -0.662537973000E+03   -0.72596E-02   -0.72621E-02   768   0.115E-01-0.952E-04
CGA:  11    -0.662540798543E+03   -0.28255E-02   -0.28241E-02   768   0.506E-02 0.206E-04
CGA:  12    -0.662541792358E+03   -0.99382E-03   -0.99398E-03   768   0.392E-02-0.171E-04
CGA:  13    -0.662542474926E+03   -0.68257E-03   -0.68246E-03   768   0.178E-02-0.472E-05
CGA:  14    -0.662543047249E+03   -0.57232E-03   -0.57365E-03   768   0.115E-02-0.102E-04
CGA:  15    -0.662543334639E+03   -0.28739E-03   -0.28733E-03   768   0.119E-02 0.193E-05
CGA:  16    -0.662543531890E+03   -0.19725E-03   -0.19716E-03   768   0.447E-03-0.185E-05
CGA:  17    -0.662543666912E+03   -0.13502E-03   -0.13486E-03   768   0.244E-03 0.171E-05
CGA:  18    -0.662543717282E+03   -0.50370E-04   -0.50374E-04   768   0.210E-03-0.112E-05
   6 F= -.66907995E+03 E0= -.66906756E+03  d E =-.251861E-01  mag=     1.2972
       N       E                     dE             d eps       ncg     rms          ort
SDA:   1    -0.656745040321E+03    0.57986E+01    0.00000E+00   768   0.204E+02 0.000E+00
CGA:   2    -0.659530449140E+03   -0.27854E+01   -0.27979E+01   768   0.727E+01-0.157E+00
CGA:   3    -0.661011624978E+03   -0.14812E+01   -0.14826E+01   768   0.524E+01-0.177E+00
CGA:   4    -0.661966326410E+03   -0.95470E+00   -0.95389E+00   768   0.222E+01-0.626E-01
CGA:   5    -0.662363157732E+03   -0.39683E+00   -0.39665E+00   768   0.729E+00-0.109E-01
CGA:   6    -0.662500325531E+03   -0.13717E+00   -0.13710E+00   768   0.253E+00-0.500E-02
CGA:   7    -0.662550797714E+03   -0.50472E-01   -0.50465E-01   768   0.102E+00 0.769E-03
CGA:   8    -0.662569486603E+03   -0.18689E-01   -0.18671E-01   768   0.519E-01-0.603E-03
CGA:   9    -0.662576953994E+03   -0.74674E-02   -0.74760E-02   768   0.160E-01 0.122E-04
CGA:  10    -0.662580057282E+03   -0.31033E-02   -0.31033E-02   768   0.457E-02-0.499E-04
CGA:  11    -0.662581093523E+03   -0.10362E-02   -0.10361E-02   768   0.194E-02 0.207E-05
CGA:  12    -0.662581420285E+03   -0.32676E-03   -0.32675E-03   768   0.117E-02-0.909E-06
CGA:  13    -0.662581638722E+03   -0.21844E-03   -0.21846E-03   768   0.494E-03 0.433E-05
CGA:  14    -0.662581789405E+03   -0.15068E-03   -0.15033E-03   768   0.366E-03 0.295E-05
CGA:  15    -0.662581869616E+03   -0.80211E-04   -0.80174E-04   768   0.356E-03 0.229E-05
   7 F= -.66911658E+03 E0= -.66910419E+03  d E =-.618099E-01  mag=     1.3041
       N       E                     dE             d eps       ncg     rms          ort
SDA:   1    -0.661970447365E+03    0.61134E+00    0.00000E+00   768   0.218E+01 0.000E+00
CGA:   2    -0.662262889829E+03   -0.29244E+00   -0.29353E+00   768   0.938E+00-0.716E-03
CGA:   3    -0.662437322880E+03   -0.17443E+00   -0.17423E+00   768   0.602E+00-0.965E-02
CGA:   4    -0.662545480872E+03   -0.10816E+00   -0.10828E+00   768   0.217E+00 0.382E-02
CGA:   5    -0.662584862258E+03   -0.39381E-01   -0.39366E-01   768   0.738E-01-0.339E-03
CGA:   6    -0.662598352147E+03   -0.13490E-01   -0.13497E-01   768   0.322E-01 0.293E-03
CGA:   7    -0.662604173341E+03   -0.58212E-02   -0.58192E-02   768   0.167E-01-0.502E-04
CGA:   8    -0.662607032021E+03   -0.28587E-02   -0.28605E-02   768   0.654E-02 0.440E-04
CGA:   9    -0.662608287169E+03   -0.12551E-02   -0.12551E-02   768   0.205E-02-0.448E-05
CGA:  10    -0.662608657362E+03   -0.37019E-03   -0.37027E-03   768   0.817E-03 0.484E-05
CGA:  11    -0.662608788866E+03   -0.13150E-03   -0.13148E-03   768   0.310E-03-0.391E-06
CGA:  12    -0.662608848224E+03   -0.59358E-04   -0.59358E-04   768   0.112E-03 0.653E-06
   8 F= -.66914411E+03 E0= -.66913159E+03  d E =-.275323E-01  mag=     1.3032
       N       E                     dE             d eps       ncg     rms          ort
SDA:   1    -0.657507533080E+03    0.51013E+01    0.00000E+00   768   0.182E+02 0.000E+00
CGA:   2    -0.659800125362E+03   -0.22926E+01   -0.23166E+01   768   0.781E+01-0.666E-01
CGA:   3    -0.661202458830E+03   -0.14023E+01   -0.13988E+01   768   0.513E+01-0.236E+00
CGA:   4    -0.662116221927E+03   -0.91376E+00   -0.91461E+00   768   0.166E+01 0.108E+00
CGA:   5    -0.662439093213E+03   -0.32287E+00   -0.32291E+00   768   0.577E+00-0.451E-02
CGA:   6    -0.662548968844E+03   -0.10988E+00   -0.10984E+00   768   0.245E+00 0.678E-02
CGA:   7    -0.662595294953E+03   -0.46326E-01   -0.46321E-01   768   0.139E+00-0.165E-02
CGA:   8    -0.662617355362E+03   -0.22060E-01   -0.22091E-01   768   0.555E-01 0.495E-03
CGA:   9    -0.662627900224E+03   -0.10545E-01   -0.10546E-01   768   0.167E-01-0.214E-03
CGA:  10    -0.662631134402E+03   -0.32342E-02   -0.32337E-02   768   0.653E-02 0.421E-04
CGA:  11    -0.662632206305E+03   -0.10719E-02   -0.10715E-02   768   0.311E-02-0.903E-05
CGA:  12    -0.662632754211E+03   -0.54791E-03   -0.54790E-03   768   0.110E-02 0.541E-06
CGA:  13    -0.662633027514E+03   -0.27330E-03   -0.27356E-03   768   0.723E-03-0.423E-05
CGA:  14    -0.662633155007E+03   -0.12749E-03   -0.12748E-03   768   0.504E-03-0.893E-07
CGA:  15    -0.662633279502E+03   -0.12449E-03   -0.12458E-03   768   0.304E-03-0.168E-05
CGA:  16    -0.662633357576E+03   -0.78074E-04   -0.78011E-04   768   0.268E-03 0.114E-05
   9 F= -.66917130E+03 E0= -.66915751E+03  d E =-.547267E-01  mag=     1.3211
       N       E                     dE             d eps       ncg     rms          ort
SDA:   1    -0.662252585609E+03    0.38069E+00    0.00000E+00   768   0.124E+01 0.000E+00
CGA:   2    -0.662440770526E+03   -0.18818E+00   -0.18812E+00   768   0.744E+00-0.102E-02
CGA:   3    -0.662563303955E+03   -0.12253E+00   -0.12243E+00   768   0.366E+00-0.195E-02
CGA:   4    -0.662626783373E+03   -0.63479E-01   -0.63515E-01   768   0.984E-01 0.112E-02
CGA:   5    -0.662643702812E+03   -0.16919E-01   -0.16919E-01   768   0.318E-01 0.323E-04
CGA:   6    -0.662649638982E+03   -0.59362E-02   -0.59364E-02   768   0.160E-01 0.101E-03
CGA:   7    -0.662652320477E+03   -0.26815E-02   -0.26811E-02   768   0.812E-02 0.359E-05
CGA:   8    -0.662653821672E+03   -0.15012E-02   -0.15013E-02   768   0.353E-02 0.205E-04
CGA:   9    -0.662654534214E+03   -0.71254E-03   -0.71263E-03   768   0.131E-02-0.427E-05
CGA:  10    -0.662654763137E+03   -0.22892E-03   -0.22898E-03   768   0.619E-03 0.321E-05
CGA:  11    -0.662654863497E+03   -0.10036E-03   -0.10037E-03   768   0.214E-03 0.435E-06
CGA:  12    -0.662654906704E+03   -0.43207E-04   -0.43188E-04   768   0.867E-04 0.114E-05
  10 F= -.66919423E+03 E0= -.66918016E+03  d E =-.229223E-01  mag=     1.3273
       N       E                     dE             d eps       ncg     rms          ort
SDA:   1    -0.659084665901E+03    0.35702E+01    0.00000E+00   768   0.114E+02 0.000E+00
CGA:   2    -0.660724201878E+03   -0.16395E+01   -0.16422E+01   768   0.690E+01-0.209E-01
CGA:   3    -0.661846366079E+03   -0.11222E+01   -0.11202E+01   768   0.341E+01-0.512E-01
CGA:   4    -0.662432448770E+03   -0.58608E+00   -0.58671E+00   768   0.871E+00 0.363E-01
CGA:   5    -0.662587475725E+03   -0.15503E+00   -0.15502E+00   768   0.287E+00 0.922E-03
CGA:   6    -0.662643185340E+03   -0.55710E-01   -0.55667E-01   768   0.141E+00 0.258E-02
CGA:   7    -0.662667757941E+03   -0.24573E-01   -0.24565E-01   768   0.807E-01-0.249E-03
CGA:   8    -0.662681245940E+03   -0.13488E-01   -0.13498E-01   768   0.341E-01 0.347E-03
CGA:   9    -0.662688210371E+03   -0.69644E-02   -0.69678E-02   768   0.114E-01-0.103E-03
CGA:  10    -0.662690390622E+03   -0.21803E-02   -0.21799E-02   768   0.560E-02 0.303E-04
CGA:  11    -0.662691215457E+03   -0.82483E-03   -0.82459E-03   768   0.210E-02-0.276E-05
CGA:  12    -0.662691623751E+03   -0.40829E-03   -0.40826E-03   768   0.703E-03 0.284E-05
CGA:  13    -0.662691768411E+03   -0.14466E-03   -0.14471E-03   768   0.454E-03-0.218E-05
CGA:  14    -0.662691837746E+03   -0.69335E-04   -0.69330E-04   768   0.203E-03 0.209E-06
  11 F= -.66923546E+03 E0= -.66921930E+03  d E =-.641549E-01  mag=     1.3835
       N       E                     dE             d eps       ncg     rms          ort
SDA:   1    -0.662215488433E+03    0.47628E+00    0.00000E+00   768   0.151E+01 0.000E+00
CGA:   2    -0.662436199751E+03   -0.22071E+00   -0.22091E+00   768   0.895E+00-0.533E-04
CGA:   3    -0.662580628231E+03   -0.14443E+00   -0.14433E+00   768   0.450E+00-0.234E-02
CGA:   4    -0.662660647541E+03   -0.80019E-01   -0.80034E-01   768   0.116E+00 0.171E-02
CGA:   5    -0.662680663828E+03   -0.20016E-01   -0.20015E-01   768   0.386E-01-0.241E-05
CGA:   6    -0.662687752654E+03   -0.70888E-02   -0.70886E-02   768   0.196E-01 0.136E-03
CGA:   7    -0.662690920863E+03   -0.31682E-02   -0.31678E-02   768   0.101E-01 0.575E-05
CGA:   8    -0.662692793416E+03   -0.18726E-02   -0.18724E-02   768   0.436E-02 0.300E-04
CGA:   9    -0.662693689401E+03   -0.89599E-03   -0.89622E-03   768   0.170E-02-0.738E-05
CGA:  10    -0.662693968046E+03   -0.27864E-03   -0.27872E-03   768   0.806E-03 0.291E-05
CGA:  11    -0.662694097748E+03   -0.12970E-03   -0.12970E-03   768   0.268E-03 0.283E-06
CGA:  12    -0.662694153039E+03   -0.55291E-04   -0.55261E-04   768   0.116E-03 0.115E-05
  12 F= -.66923937E+03 E0= -.66922227E+03  d E =-.680643E-01  mag=     1.4166
       N       E                     dE             d eps       ncg     rms          ort
SDA:   1    -0.662300845291E+03    0.39325E+00    0.00000E+00   768   0.121E+01 0.000E+00
CGA:   2    -0.662508186681E+03   -0.20734E+00   -0.20740E+00   768   0.719E+00 0.102E-02
CGA:   3    -0.662637241587E+03   -0.12905E+00   -0.12904E+00   768   0.445E+00-0.562E-02
CGA:   4    -0.662704355751E+03   -0.67114E-01   -0.67180E-01   768   0.117E+00 0.373E-03
CGA:   5    -0.662724379634E+03   -0.20024E-01   -0.20019E-01   768   0.454E-01-0.341E-03
CGA:   6    -0.662732254931E+03   -0.78753E-02   -0.78762E-02   768   0.212E-01 0.101E-03
CGA:   7    -0.662735784576E+03   -0.35296E-02   -0.35288E-02   768   0.106E-01-0.302E-04
CGA:   8    -0.662737773549E+03   -0.19890E-02   -0.19887E-02   768   0.468E-02 0.156E-04
CGA:   9    -0.662738640939E+03   -0.86739E-03   -0.86749E-03   768   0.186E-02-0.129E-04
CGA:  10    -0.662738940336E+03   -0.29940E-03   -0.29943E-03   768   0.756E-03 0.378E-06
CGA:  11    -0.662739065681E+03   -0.12535E-03   -0.12533E-03   768   0.246E-03-0.800E-06
CGA:  12    -0.662739113039E+03   -0.47358E-04   -0.47341E-04   768   0.118E-03 0.107E-05
  13 F= -.66928551E+03 E0= -.66926857E+03  d E =-.461426E-01  mag=     1.4148
       N       E                     dE             d eps       ncg     rms          ort
SDA:   1    -0.662157442419E+03    0.58162E+00    0.00000E+00   768   0.168E+01 0.000E+00
CGA:   2    -0.662444458002E+03   -0.28702E+00   -0.28708E+00   768   0.988E+00 0.226E-02
CGA:   3    -0.662622509411E+03   -0.17805E+00   -0.17809E+00   768   0.614E+00-0.967E-02
CGA:   4    -0.662715012321E+03   -0.92503E-01   -0.92596E-01   768   0.159E+00 0.726E-03
CGA:   5    -0.662742619052E+03   -0.27607E-01   -0.27604E-01   768   0.608E-01-0.575E-03
CGA:   6    -0.662753289378E+03   -0.10670E-01   -0.10670E-01   768   0.288E-01 0.169E-03
CGA:   7    -0.662758090488E+03   -0.48011E-02   -0.48000E-02   768   0.146E-01-0.527E-04
CGA:   8    -0.662760812068E+03   -0.27216E-02   -0.27210E-02   768   0.635E-02 0.285E-04
CGA:   9    -0.662762006993E+03   -0.11949E-02   -0.11952E-02   768   0.249E-02-0.178E-04
CGA:  10    -0.662762413165E+03   -0.40617E-03   -0.40621E-03   768   0.105E-02 0.997E-06
CGA:  11    -0.662762585227E+03   -0.17206E-03   -0.17205E-03   768   0.344E-03-0.994E-06
CGA:  12    -0.662762654141E+03   -0.68914E-04   -0.68881E-04   768   0.171E-03 0.129E-05
  14 F= -.66931038E+03 E0= -.66929375E+03  d E =-.710121E-01  mag=     1.4091
       N       E                     dE             d eps       ncg     rms          ort
SDA:   1    -0.661885043087E+03    0.87754E+00    0.00000E+00   768   0.274E+01 0.000E+00
CGA:   2    -0.662320773305E+03   -0.43573E+00   -0.43599E+00   768   0.129E+01 0.154E-03
CGA:   3    -0.662579234362E+03   -0.25846E+00   -0.25907E+00   768   0.895E+00-0.186E-01
CGA:   4    -0.662717398958E+03   -0.13816E+00   -0.13831E+00   768   0.272E+00 0.157E-02
CGA:   5    -0.662765734710E+03   -0.48336E-01   -0.48339E-01   768   0.109E+00-0.175E-02
CGA:   6    -0.662784788513E+03   -0.19054E-01   -0.19054E-01   768   0.522E-01 0.272E-03
CGA:   7    -0.662793227760E+03   -0.84392E-02   -0.84334E-02   768   0.251E-01-0.181E-03
CGA:   8    -0.662797680441E+03   -0.44527E-02   -0.44524E-02   768   0.941E-02 0.457E-04
CGA:   9    -0.662799432557E+03   -0.17521E-02   -0.17525E-02   768   0.348E-02-0.281E-04
CGA:  10    -0.662799990260E+03   -0.55770E-03   -0.55780E-03   768   0.148E-02 0.338E-05
CGA:  11    -0.662800226395E+03   -0.23614E-03   -0.23613E-03   768   0.480E-03 0.372E-06
CGA:  12    -0.662800322259E+03   -0.95864E-04   -0.95793E-04   768   0.218E-03 0.278E-05
  15 F= -.66934832E+03 E0= -.66933194E+03  d E =-.379440E-01  mag=     1.3746
       N       E                     dE             d eps       ncg     rms          ort
SDA:   1    -0.662437977996E+03    0.36225E+00    0.00000E+00   768   0.110E+01 0.000E+00
CGA:   2    -0.662614077922E+03   -0.17610E+00   -0.17615E+00   768   0.518E+00 0.102E-03
CGA:   3    -0.662718032583E+03   -0.10395E+00   -0.10410E+00   768   0.355E+00-0.425E-02
CGA:   4    -0.662773568714E+03   -0.55536E-01   -0.55569E-01   768   0.110E+00 0.416E-03
CGA:   5    -0.662792911838E+03   -0.19343E-01   -0.19343E-01   768   0.439E-01-0.436E-03
CGA:   6    -0.662800519530E+03   -0.76077E-02   -0.76079E-02   768   0.215E-01 0.727E-04
CGA:   7    -0.662803977818E+03   -0.34583E-02   -0.34567E-02   768   0.102E-01-0.493E-04
CGA:   8    -0.662805819622E+03   -0.18418E-02   -0.18417E-02   768   0.385E-02 0.846E-05
CGA:   9    -0.662806533855E+03   -0.71423E-03   -0.71439E-03   768   0.145E-02-0.114E-04
CGA:  10    -0.662806762802E+03   -0.22895E-03   -0.22898E-03   768   0.617E-03 0.112E-05
CGA:  11    -0.662806863958E+03   -0.10116E-03   -0.10116E-03   768   0.206E-03 0.448E-06
CGA:  12    -0.662806905725E+03   -0.41767E-04   -0.41711E-04   768   0.102E-03 0.187E-05
  16 F= -.66935505E+03 E0= -.66933887E+03  d E =-.446693E-01  mag=     1.3502
       N       E                     dE             d eps       ncg     rms          ort
SDA:   1    -0.662184063431E+03    0.62280E+00    0.00000E+00   768   0.200E+01 0.000E+00
CGA:   2    -0.662481446147E+03   -0.29738E+00   -0.29763E+00   768   0.839E+00-0.930E-03
CGA:   3    -0.662655209827E+03   -0.17376E+00   -0.17435E+00   768   0.680E+00-0.132E-01
CGA:   4    -0.662767313499E+03   -0.11210E+00   -0.11215E+00   768   0.225E+00 0.201E-02
CGA:   5    -0.662806066426E+03   -0.38753E-01   -0.38743E-01   768   0.841E-01-0.137E-02
CGA:   6    -0.662820052392E+03   -0.13986E-01   -0.13989E-01   768   0.384E-01 0.186E-03
CGA:   7    -0.662826155114E+03   -0.61027E-02   -0.60992E-02   768   0.180E-01-0.950E-04
CGA:   8    -0.662829359449E+03   -0.32043E-02   -0.32041E-02   768   0.697E-02 0.265E-04
CGA:   9    -0.662830641738E+03   -0.12823E-02   -0.12825E-02   768   0.260E-02-0.195E-04
CGA:  10    -0.662831039938E+03   -0.39820E-03   -0.39824E-03   768   0.104E-02-0.650E-07
CGA:  11    -0.662831209284E+03   -0.16935E-03   -0.16933E-03   768   0.345E-03-0.138E-05
CGA:  12    -0.662831278434E+03   -0.69150E-04   -0.69113E-04   768   0.176E-03 0.140E-05
  17 F= -.66937967E+03 E0= -.66936213E+03  d E =-.246260E-01  mag=     1.3620
       N       E                     dE             d eps       ncg     rms          ort
SDA:   1    -0.661611447291E+03    0.12198E+01    0.00000E+00   768   0.380E+01 0.000E+00
CGA:   2    -0.662176259199E+03   -0.56481E+00   -0.56554E+00   768   0.160E+01-0.227E-02
CGA:   3    -0.662504022850E+03   -0.32776E+00   -0.32941E+00   768   0.133E+01-0.392E-01
CGA:   4    -0.662720035690E+03   -0.21601E+00   -0.21616E+00   768   0.433E+00 0.620E-02
CGA:   5    -0.662794421913E+03   -0.74386E-01   -0.74365E-01   768   0.165E+00-0.369E-02
CGA:   6    -0.662821281803E+03   -0.26860E-01   -0.26870E-01   768   0.741E-01 0.463E-03
CGA:   7    -0.662833138126E+03   -0.11856E-01   -0.11848E-01   768   0.348E-01-0.263E-03
CGA:   8    -0.662839286203E+03   -0.61481E-02   -0.61475E-02   768   0.138E-01 0.738E-04
CGA:   9    -0.662841774538E+03   -0.24883E-02   -0.24888E-02   768   0.528E-02-0.405E-04
CGA:  10    -0.662842576414E+03   -0.80188E-03   -0.80202E-03   768   0.206E-02 0.132E-05
CGA:  11    -0.662842915519E+03   -0.33911E-03   -0.33908E-03   768   0.700E-03-0.271E-05
CGA:  12    -0.662843050939E+03   -0.13542E-03   -0.13538E-03   768   0.362E-03 0.175E-05
CGA:  13    -0.662843113623E+03   -0.62684E-04   -0.62684E-04   768   0.212E-03 0.649E-06
  18 F= -.66939176E+03 E0= -.66937201E+03  d E =-.367122E-01  mag=     1.3917
       N       E                     dE             d eps       ncg     rms          ort
SDA:   1    -0.662739459804E+03    0.10359E+00    0.00000E+00   768   0.303E+00 0.000E+00
CGA:   2    -0.662803314665E+03   -0.63855E-01   -0.63849E-01   768   0.181E+00 0.827E-04
CGA:   3    -0.662836128068E+03   -0.32813E-01   -0.32817E-01   768   0.995E-01-0.477E-03
CGA:   4    -0.662850070806E+03   -0.13943E-01   -0.13949E-01   768   0.263E-01 0.102E-04
CGA:   5    -0.662854278923E+03   -0.42081E-02   -0.42074E-02   768   0.105E-01-0.192E-04
CGA:   6    -0.662855957271E+03   -0.16783E-02   -0.16785E-02   768   0.514E-02 0.754E-05
CGA:   7    -0.662856880696E+03   -0.92342E-03   -0.92349E-03   768   0.246E-02-0.665E-05
CGA:   8    -0.662857355656E+03   -0.47496E-03   -0.47499E-03   768   0.123E-02-0.216E-05
CGA:   9    -0.662857567550E+03   -0.21189E-03   -0.21189E-03   768   0.570E-03-0.353E-05
CGA:  10    -0.662857658877E+03   -0.91327E-04   -0.91341E-04   768   0.213E-03 0.969E-06
  19 F= -.66940659E+03 E0= -.66938625E+03  d E =-.148248E-01  mag=     1.4124
       N       E                     dE             d eps       ncg     rms          ort
SDA:   1    -0.661821410752E+03    0.10362E+01    0.00000E+00   768   0.273E+01 0.000E+00
CGA:   2    -0.662389845267E+03   -0.56843E+00   -0.56816E+00   768   0.167E+01 0.358E-02
CGA:   3    -0.662682685292E+03   -0.29284E+00   -0.29282E+00   768   0.945E+00-0.145E-01
CGA:   4    -0.662811963670E+03   -0.12928E+00   -0.12947E+00   768   0.244E+00 0.536E-03
CGA:   5    -0.662850810931E+03   -0.38847E-01   -0.38824E-01   768   0.976E-01-0.689E-03
CGA:   6    -0.662866762104E+03   -0.15951E-01   -0.15954E-01   768   0.468E-01 0.132E-03
CGA:   7    -0.662875082018E+03   -0.83199E-02   -0.83211E-02   768   0.234E-01-0.147E-03
CGA:   8    -0.662879300860E+03   -0.42188E-02   -0.42185E-02   768   0.115E-01 0.252E-04
CGA:   9    -0.662881295471E+03   -0.19946E-02   -0.19946E-02   768   0.507E-02-0.228E-04
CGA:  10    -0.662882126014E+03   -0.83054E-03   -0.83061E-03   768   0.199E-02 0.500E-05
CGA:  11    -0.662882465018E+03   -0.33900E-03   -0.33901E-03   768   0.778E-03 0.628E-06
CGA:  12    -0.662882594212E+03   -0.12919E-03   -0.12921E-03   768   0.345E-03 0.270E-05
CGA:  13    -0.662882656372E+03   -0.62160E-04   -0.62161E-04   768   0.173E-03-0.243E-06
  20 F= -.66943232E+03 E0= -.66941029E+03  d E =-.405574E-01  mag=     1.4818
       N       E                     dE             d eps       ncg     rms          ort
SDA:   1    -0.662735904615E+03    0.14669E+00    0.00000E+00   768   0.426E+00 0.000E+00
CGA:   2    -0.662827998903E+03   -0.92094E-01   -0.92070E-01   768   0.251E+00 0.449E-03
CGA:   3    -0.662871562208E+03   -0.43563E-01   -0.43561E-01   768   0.140E+00-0.516E-03
CGA:   4    -0.662890420915E+03   -0.18859E-01   -0.18872E-01   768   0.339E-01 0.591E-04
CGA:   5    -0.662895511043E+03   -0.50901E-02   -0.50889E-02   768   0.133E-01-0.763E-05
CGA:   6    -0.662897683610E+03   -0.21726E-02   -0.21728E-02   768   0.635E-02 0.158E-04
CGA:   7    -0.662898847887E+03   -0.11643E-02   -0.11644E-02   768   0.309E-02-0.999E-05
CGA:   8    -0.662899399620E+03   -0.55173E-03   -0.55173E-03   768   0.159E-02-0.137E-05
CGA:   9    -0.662899671661E+03   -0.27204E-03   -0.27203E-03   768   0.721E-03-0.301E-05
CGA:  10    -0.662899794781E+03   -0.12312E-03   -0.12313E-03   768   0.291E-03 0.270E-05
CGA:  11    -0.662899845546E+03   -0.50766E-04   -0.50765E-04   768   0.128E-03 0.143E-05
  21 F= -.66944969E+03 E0= -.66942756E+03  d E =-.173695E-01  mag=     1.4839
       N       E                     dE             d eps       ncg     rms          ort
SDA:   1    -0.661548578231E+03    0.13512E+01    0.00000E+00   768   0.356E+01 0.000E+00
CGA:   2    -0.662313882631E+03   -0.76530E+00   -0.76448E+00   768   0.213E+01 0.140E-01
CGA:   3    -0.662676486338E+03   -0.36260E+00   -0.36247E+00   768   0.122E+01-0.141E-01
CGA:   4    -0.662838721967E+03   -0.16224E+00   -0.16253E+00   768   0.292E+00 0.154E-02
CGA:   5    -0.662882644664E+03   -0.43923E-01   -0.43887E-01   768   0.113E+00-0.497E-03
CGA:   6    -0.662901511679E+03   -0.18867E-01   -0.18869E-01   768   0.551E-01 0.281E-03
CGA:   7    -0.662911289446E+03   -0.97778E-02   -0.97797E-02   768   0.278E-01-0.180E-03
CGA:   8    -0.662916016916E+03   -0.47275E-02   -0.47275E-02   768   0.135E-01 0.413E-04
CGA:   9    -0.662918389502E+03   -0.23726E-02   -0.23728E-02   768   0.609E-02-0.291E-04
CGA:  10    -0.662919396603E+03   -0.10071E-02   -0.10072E-02   768   0.259E-02 0.114E-04
CGA:  11    -0.662919827455E+03   -0.43085E-03   -0.43086E-03   768   0.104E-02 0.218E-05
CGA:  12    -0.662919998632E+03   -0.17118E-03   -0.17121E-03   768   0.424E-03 0.437E-05
CGA:  13    -0.662920070794E+03   -0.72162E-04   -0.72162E-04   768   0.201E-03-0.388E-06
  22 F= -.66947035E+03 E0= -.66944878E+03  d E =-.380273E-01  mag=     1.4515
       N       E                     dE             d eps       ncg     rms          ort
SDA:   1    -0.662880230642E+03    0.39768E-01    0.00000E+00   768   0.124E+00 0.000E+00
CGA:   2    -0.662905178876E+03   -0.24948E-01   -0.24945E-01   768   0.738E-01 0.700E-04
CGA:   3    -0.662917812633E+03   -0.12634E-01   -0.12633E-01   768   0.452E-01-0.132E-03
CGA:   4    -0.662924149437E+03   -0.63368E-02   -0.63384E-02   768   0.120E-01 0.607E-05
CGA:   5    -0.662925868251E+03   -0.17188E-02   -0.17186E-02   768   0.444E-02 0.174E-05
CGA:   6    -0.662926584936E+03   -0.71669E-03   -0.71676E-03   768   0.211E-02 0.834E-05
CGA:   7    -0.662926983744E+03   -0.39881E-03   -0.39882E-03   768   0.115E-02-0.855E-07
CGA:   8    -0.662927179166E+03   -0.19542E-03   -0.19542E-03   768   0.599E-03 0.996E-07
CGA:   9    -0.662927282820E+03   -0.10365E-03   -0.10366E-03   768   0.260E-03-0.165E-05
CGA:  10    -0.662927326581E+03   -0.43760E-04   -0.43762E-04   768   0.111E-03 0.963E-06
  23 F= -.66947774E+03 E0= -.66945626E+03  d E =-.739744E-02  mag=     1.4450
       N       E                     dE             d eps       ncg     rms          ort
SDA:   1    -0.662520249070E+03    0.40703E+00    0.00000E+00   768   0.112E+01 0.000E+00
CGA:   2    -0.662741896409E+03   -0.22165E+00   -0.22155E+00   768   0.689E+00 0.229E-02
CGA:   3    -0.662854816504E+03   -0.11292E+00   -0.11287E+00   768   0.424E+00-0.361E-02
CGA:   4    -0.662914786266E+03   -0.59970E-01   -0.60017E-01   768   0.110E+00 0.560E-03
CGA:   5    -0.662930775770E+03   -0.15990E-01   -0.15981E-01   768   0.397E-01-0.837E-04
CGA:   6    -0.662937522920E+03   -0.67472E-02   -0.67468E-02   768   0.198E-01 0.104E-03
CGA:   7    -0.662940979159E+03   -0.34562E-02   -0.34566E-02   768   0.110E-01-0.312E-04
CGA:   8    -0.662942788842E+03   -0.18097E-02   -0.18098E-02   768   0.503E-02 0.125E-04
CGA:   9    -0.662943711432E+03   -0.92259E-03   -0.92278E-03   768   0.225E-02-0.984E-05
CGA:  10    -0.662944064297E+03   -0.35287E-03   -0.35292E-03   768   0.970E-03 0.357E-05
CGA:  11    -0.662944220859E+03   -0.15656E-03   -0.15657E-03   768   0.366E-03 0.750E-06
CGA:  12    -0.662944284078E+03   -0.63219E-04   -0.63209E-04   768   0.164E-03 0.219E-05
  24 F= -.66949510E+03 E0= -.66947386E+03  d E =-.247507E-01  mag=     1.4262
       N       E                     dE             d eps       ncg     rms          ort
SDA:   1    -0.661260500984E+03    0.16837E+01    0.00000E+00   768   0.447E+01 0.000E+00
CGA:   2    -0.662142039477E+03   -0.88154E+00   -0.88058E+00   768   0.278E+01 0.210E-01
CGA:   3    -0.662592420008E+03   -0.45038E+00   -0.44983E+00   768   0.174E+01-0.314E-01
CGA:   4    -0.662834851683E+03   -0.24243E+00   -0.24287E+00   768   0.439E+00 0.510E-02
CGA:   5    -0.662900580838E+03   -0.65729E-01   -0.65675E-01   768   0.159E+00-0.907E-03
CGA:   6    -0.662927445474E+03   -0.26865E-01   -0.26862E-01   768   0.814E-01 0.770E-03
CGA:   7    -0.662941263471E+03   -0.13818E-01   -0.13819E-01   768   0.462E-01-0.287E-03
CGA:   8    -0.662948803234E+03   -0.75398E-02   -0.75405E-02   768   0.202E-01 0.119E-03
CGA:   9    -0.662952642814E+03   -0.38396E-02   -0.38414E-02   768   0.937E-02-0.579E-04
CGA:  10    -0.662954042047E+03   -0.13992E-02   -0.13997E-02   768   0.410E-02 0.139E-04
CGA:  11    -0.662954711122E+03   -0.66907E-03   -0.66906E-03   768   0.149E-02-0.135E-05
CGA:  12    -0.662954971801E+03   -0.26068E-03   -0.26064E-03   768   0.716E-03 0.425E-05
CGA:  13    -0.662955085081E+03   -0.11328E-03   -0.11327E-03   768   0.369E-03-0.800E-06
CGA:  14    -0.662955160172E+03   -0.75091E-04   -0.75080E-04   768   0.224E-03 0.484E-06
  25 F= -.66950663E+03 E0= -.66948682E+03  d E =-.362889E-01  mag=     1.3565
       N       E                     dE             d eps       ncg     rms          ort
SDA:   1    -0.662901515035E+03    0.53570E-01    0.00000E+00   768   0.141E+00 0.000E+00
CGA:   2    -0.662930429482E+03   -0.28914E-01   -0.28918E-01   768   0.846E-01-0.932E-04
CGA:   3    -0.662945047984E+03   -0.14619E-01   -0.14618E-01   768   0.507E-01 0.159E-03
CGA:   4    -0.662952078308E+03   -0.70303E-02   -0.70273E-02   768   0.145E-01-0.175E-04
CGA:   5    -0.662954022040E+03   -0.19437E-02   -0.19442E-02   768   0.526E-02-0.244E-05
CGA:   6    -0.662954910246E+03   -0.88821E-03   -0.88821E-03   768   0.258E-02-0.111E-04
CGA:   7    -0.662955381641E+03   -0.47139E-03   -0.47137E-03   768   0.132E-02 0.525E-06
CGA:   8    -0.662955598303E+03   -0.21666E-03   -0.21666E-03   768   0.701E-03-0.334E-06
CGA:   9    -0.662955712612E+03   -0.11431E-03   -0.11432E-03   768   0.274E-03 0.184E-05
CGA:  10    -0.662955761114E+03   -0.48502E-04   -0.48510E-04   768   0.119E-03-0.100E-05
  26 F= -.66950713E+03 E0= -.66948741E+03  d E =-.367838E-01  mag=     1.3565
       N       E                     dE             d eps       ncg     rms          ort
SDA:   1    -0.662931230266E+03    0.24482E-01    0.00000E+00   768   0.878E-01 0.000E+00
CGA:   2    -0.662948871532E+03   -0.17641E-01   -0.17639E-01   768   0.557E-01 0.371E-04
CGA:   3    -0.662958178899E+03   -0.93074E-02   -0.93068E-02   768   0.332E-01-0.118E-03
CGA:   4    -0.662962814154E+03   -0.46353E-02   -0.46360E-02   768   0.963E-02-0.802E-05
CGA:   5    -0.662964214037E+03   -0.13999E-02   -0.13996E-02   768   0.370E-02-0.411E-05
CGA:   6    -0.662964787990E+03   -0.57395E-03   -0.57404E-03   768   0.160E-02 0.574E-05
CGA:   7    -0.662965083231E+03   -0.29524E-03   -0.29523E-03   768   0.910E-03 0.114E-05
CGA:   8    -0.662965232993E+03   -0.14976E-03   -0.14977E-03   768   0.467E-03 0.125E-05
CGA:   9    -0.662965313746E+03   -0.80752E-04   -0.80761E-04   768   0.203E-03-0.156E-05
  27 F= -.66951683E+03 E0= -.66949751E+03  d E =-.970150E-02  mag=     1.3404
       N       E                     dE             d eps       ncg     rms          ort
SDA:   1    -0.662675709271E+03    0.28952E+00    0.00000E+00   768   0.791E+00 0.000E+00
CGA:   2    -0.662833039230E+03   -0.15733E+00   -0.15726E+00   768   0.508E+00 0.113E-02
CGA:   3    -0.662916489343E+03   -0.83450E-01   -0.83423E-01   768   0.304E+00-0.293E-02
CGA:   4    -0.662959148512E+03   -0.42659E-01   -0.42690E-01   768   0.847E-01 0.220E-03
CGA:   5    -0.662971709868E+03   -0.12561E-01   -0.12555E-01   768   0.335E-01-0.128E-03
CGA:   6    -0.662976980362E+03   -0.52705E-02   -0.52715E-02   768   0.148E-01 0.602E-04
CGA:   7    -0.662979647422E+03   -0.26671E-02   -0.26676E-02   768   0.850E-02-0.224E-04
CGA:   8    -0.662981029486E+03   -0.13821E-02   -0.13821E-02   768   0.410E-02 0.111E-04
CGA:   9    -0.662981757494E+03   -0.72801E-03   -0.72811E-03   768   0.184E-02-0.744E-05
CGA:  10    -0.662982055137E+03   -0.29764E-03   -0.29765E-03   768   0.800E-03 0.709E-06
CGA:  11    -0.662982182050E+03   -0.12691E-03   -0.12690E-03   768   0.335E-03-0.120E-05
CGA:  12    -0.662982241245E+03   -0.59195E-04   -0.59178E-04   768   0.164E-03 0.163E-05
  28 F= -.66953418E+03 E0= -.66951623E+03  d E =-.270490E-01  mag=     1.2894
       N       E                     dE             d eps       ncg     rms          ort
SDA:   1    -0.662919153067E+03    0.63029E-01    0.00000E+00   768   0.168E+00 0.000E+00
CGA:   2    -0.662952318356E+03   -0.33165E-01   -0.33158E-01   768   0.110E+00 0.125E-03
CGA:   3    -0.662969839228E+03   -0.17521E-01   -0.17516E-01   768   0.650E-01-0.279E-03
CGA:   4    -0.662979138703E+03   -0.92995E-02   -0.93015E-02   768   0.184E-01 0.461E-05
CGA:   5    -0.662981879988E+03   -0.27413E-02   -0.27407E-02   768   0.675E-02-0.108E-04
CGA:   6    -0.662982960408E+03   -0.10804E-02   -0.10805E-02   768   0.317E-02 0.101E-04
CGA:   7    -0.662983522895E+03   -0.56249E-03   -0.56250E-03   768   0.185E-02 0.510E-06
CGA:   8    -0.662983829821E+03   -0.30693E-03   -0.30693E-03   768   0.901E-03 0.254E-05
CGA:   9    -0.662983996024E+03   -0.16620E-03   -0.16624E-03   768   0.423E-03-0.210E-05
CGA:  10    -0.662984064204E+03   -0.68179E-04   -0.68180E-04   768   0.202E-03 0.109E-06
  29 F= -.66953618E+03 E0= -.66951903E+03  d E =-.290520E-01  mag=     1.2618
       N       E                     dE             d eps       ncg     rms          ort
SDA:   1    -0.662920455631E+03    0.63540E-01    0.00000E+00   768   0.203E+00 0.000E+00
CGA:   2    -0.662959057572E+03   -0.38602E-01   -0.38595E-01   768   0.119E+00 0.127E-03
CGA:   3    -0.662979222447E+03   -0.20165E-01   -0.20165E-01   768   0.675E-01-0.304E-03
CGA:   4    -0.662989090383E+03   -0.98679E-02   -0.98709E-02   768   0.208E-01 0.219E-04
CGA:   5    -0.662992137974E+03   -0.30476E-02   -0.30467E-02   768   0.910E-02-0.173E-04
CGA:   6    -0.662993544195E+03   -0.14062E-02   -0.14064E-02   768   0.400E-02 0.693E-05
CGA:   7    -0.662994286038E+03   -0.74184E-03   -0.74201E-03   768   0.205E-02-0.584E-05
CGA:   8    -0.662994643547E+03   -0.35751E-03   -0.35749E-03   768   0.110E-02 0.105E-05
CGA:   9    -0.662994815163E+03   -0.17162E-03   -0.17159E-03   768   0.468E-03-0.202E-05
CGA:  10    -0.662994896997E+03   -0.81834E-04   -0.81827E-04   768   0.191E-03 0.751E-06
  30 F= -.66954706E+03 E0= -.66953088E+03  d E =-.108766E-01  mag=     1.2285
       N       E                     dE             d eps       ncg     rms          ort
SDA:   1    -0.662346187518E+03    0.64863E+00    0.00000E+00   768   0.182E+01 0.000E+00
CGA:   2    -0.662692254393E+03   -0.34607E+00   -0.34587E+00   768   0.106E+01 0.373E-02
CGA:   3    -0.662873846280E+03   -0.18159E+00   -0.18162E+00   768   0.612E+00-0.755E-02
CGA:   4    -0.662962389245E+03   -0.88543E-01   -0.88636E-01   768   0.183E+00 0.984E-03
CGA:   5    -0.662990267189E+03   -0.27878E-01   -0.27862E-01   768   0.792E-01-0.475E-03
CGA:   6    -0.663002431850E+03   -0.12165E-01   -0.12168E-01   768   0.351E-01 0.118E-03
CGA:   7    -0.663008874131E+03   -0.64423E-02   -0.64459E-02   768   0.177E-01-0.132E-03
CGA:   8    -0.663011969360E+03   -0.30952E-02   -0.30948E-02   768   0.895E-02 0.305E-04
CGA:   9    -0.663013396218E+03   -0.14269E-02   -0.14267E-02   768   0.380E-02-0.105E-04
CGA:  10    -0.663014034166E+03   -0.63795E-03   -0.63794E-03   768   0.143E-02 0.435E-05
CGA:  11    -0.663014273508E+03   -0.23934E-03   -0.23934E-03   768   0.646E-03 0.815E-07
CGA:  12    -0.663014377113E+03   -0.10360E-03   -0.10362E-03   768   0.286E-03 0.297E-05
CGA:  13    -0.663014433251E+03   -0.56138E-04   -0.56104E-04   768   0.166E-03 0.104E-05
  31 F= -.66956669E+03 E0= -.66955276E+03  d E =-.305100E-01  mag=     1.1556
       N       E                     dE             d eps       ncg     rms          ort
SDA:   1    -0.660335023954E+03    0.26794E+01    0.00000E+00   768   0.726E+01 0.000E+00
CGA:   2    -0.661707340498E+03   -0.13723E+01   -0.13709E+01   768   0.423E+01 0.297E-01
CGA:   3    -0.662435630427E+03   -0.72829E+00   -0.72838E+00   768   0.245E+01-0.558E-01
CGA:   4    -0.662792406934E+03   -0.35678E+00   -0.35745E+00   768   0.691E+00 0.634E-02
CGA:   5    -0.662905177395E+03   -0.11277E+00   -0.11272E+00   768   0.287E+00-0.408E-02
CGA:   6    -0.662950434789E+03   -0.45257E-01   -0.45275E-01   768   0.133E+00 0.677E-03
CGA:   7    -0.662974442290E+03   -0.24008E-01   -0.24026E-01   768   0.663E-01-0.910E-03
CGA:   8    -0.662986325259E+03   -0.11883E-01   -0.11879E-01   768   0.303E-01 0.202E-03
CGA:   9    -0.662991574803E+03   -0.52495E-02   -0.52498E-02   768   0.133E-01-0.568E-04
CGA:  10    -0.662993695137E+03   -0.21203E-02   -0.21207E-02   768   0.488E-02 0.183E-04
CGA:  11    -0.662994547435E+03   -0.85230E-03   -0.85230E-03   768   0.194E-02-0.149E-05
CGA:  12    -0.662994877327E+03   -0.32989E-03   -0.32989E-03   768   0.911E-03 0.500E-05
CGA:  13    -0.662995041968E+03   -0.16464E-03   -0.16461E-03   768   0.460E-03 0.186E-05
CGA:  14    -0.662995138166E+03   -0.96198E-04   -0.96107E-04   768   0.327E-03 0.265E-05
  32 F= -.66954746E+03 E0= -.66953625E+03  d E =-.112736E-01  mag=     1.0746
       N       E                     dE             d eps       ncg     rms          ort
SDA:   1    -0.661541223686E+03    0.14538E+01    0.00000E+00   768   0.401E+01 0.000E+00
CGA:   2    -0.662316324843E+03   -0.77510E+00   -0.77527E+00   768   0.228E+01-0.505E-02
CGA:   3    -0.662716739693E+03   -0.40041E+00   -0.40040E+00   768   0.123E+01 0.871E-02
CGA:   4    -0.662910395849E+03   -0.19366E+00   -0.19352E+00   768   0.349E+00-0.293E-02
CGA:   5    -0.662970283409E+03   -0.59888E-01   -0.59892E-01   768   0.135E+00 0.854E-03
CGA:   6    -0.662993885786E+03   -0.23602E-01   -0.23602E-01   768   0.780E-01-0.453E-03
CGA:   7    -0.663005535080E+03   -0.11649E-01   -0.11662E-01   768   0.375E-01 0.179E-03
CGA:   8    -0.663012486019E+03   -0.69509E-02   -0.69532E-02   768   0.147E-01-0.112E-03
CGA:   9    -0.663015389864E+03   -0.29038E-02   -0.29031E-02   768   0.598E-02 0.240E-04
CGA:  10    -0.663016285775E+03   -0.89591E-03   -0.89556E-03   768   0.276E-02-0.748E-05
CGA:  11    -0.663016706886E+03   -0.42111E-03   -0.42109E-03   768   0.789E-03-0.100E-05
CGA:  12    -0.663016869747E+03   -0.16286E-03   -0.16301E-03   768   0.358E-03-0.432E-05
CGA:  13    -0.663016922261E+03   -0.52514E-04   -0.52490E-04   768   0.189E-03-0.626E-06
  33 F= -.66956921E+03 E0= -.66955665E+03  d E =-.330302E-01  mag=     1.1125
       N       E                     dE             d eps       ncg     rms          ort
SDA:   1    -0.662842837933E+03    0.17403E+00    0.00000E+00   768   0.502E+00 0.000E+00
CGA:   2    -0.662940516654E+03   -0.97679E-01   -0.97650E-01   768   0.315E+00 0.591E-03
CGA:   3    -0.662993258354E+03   -0.52742E-01   -0.52728E-01   768   0.173E+00-0.108E-02
CGA:   4    -0.663018829972E+03   -0.25572E-01   -0.25585E-01   768   0.501E-01 0.781E-04
CGA:   5    -0.663026682464E+03   -0.78525E-02   -0.78503E-02   768   0.203E-01-0.621E-04
CGA:   6    -0.663029914851E+03   -0.32324E-02   -0.32329E-02   768   0.939E-02 0.198E-04
CGA:   7    -0.663031589617E+03   -0.16748E-02   -0.16749E-02   768   0.467E-02-0.133E-04
CGA:   8    -0.663032435835E+03   -0.84622E-03   -0.84614E-03   768   0.228E-02 0.513E-05
CGA:   9    -0.663032817737E+03   -0.38190E-03   -0.38188E-03   768   0.968E-03-0.358E-05
CGA:  10    -0.663032973807E+03   -0.15607E-03   -0.15608E-03   768   0.352E-03 0.254E-06
CGA:  11    -0.663033032973E+03   -0.59166E-04   -0.59164E-04   768   0.138E-03-0.563E-06
  34 F= -.66958551E+03 E0= -.66957347E+03  d E =-.163031E-01  mag=     1.0917
       N       E                     dE             d eps       ncg     rms          ort
SDA:   1    -0.661768959765E+03    0.12640E+01    0.00000E+00   768   0.339E+01 0.000E+00
CGA:   2    -0.662425516684E+03   -0.65656E+00   -0.65598E+00   768   0.211E+01 0.112E-01
CGA:   3    -0.662783407450E+03   -0.35789E+00   -0.35780E+00   768   0.117E+01-0.193E-01
CGA:   4    -0.662955008566E+03   -0.17160E+00   -0.17180E+00   768   0.322E+00 0.170E-02
CGA:   5    -0.663007723542E+03   -0.52715E-01   -0.52699E-01   768   0.129E+00-0.123E-02
CGA:   6    -0.663028539813E+03   -0.20816E-01   -0.20821E-01   768   0.602E-01 0.271E-03
CGA:   7    -0.663039369595E+03   -0.10830E-01   -0.10834E-01   768   0.309E-01-0.247E-03
CGA:   8    -0.663044974532E+03   -0.56049E-02   -0.56036E-02   768   0.141E-01 0.696E-04
CGA:   9    -0.663047499834E+03   -0.25253E-02   -0.25255E-02   768   0.613E-02-0.213E-04
CGA:  10    -0.663048475722E+03   -0.97589E-03   -0.97600E-03   768   0.230E-02 0.451E-05
CGA:  11    -0.663048874292E+03   -0.39857E-03   -0.39857E-03   768   0.887E-03-0.198E-05
CGA:  12    -0.663049030631E+03   -0.15634E-03   -0.15633E-03   768   0.424E-03 0.244E-05
CGA:  13    -0.663049107827E+03   -0.77196E-04   -0.77187E-04   768   0.225E-03 0.637E-06
  35 F= -.66960204E+03 E0= -.66959131E+03  d E =-.328326E-01  mag=     1.0354
       N       E                     dE             d eps       ncg     rms          ort
SDA:   1    -0.662958676505E+03    0.90354E-01    0.00000E+00   768   0.234E+00 0.000E+00
CGA:   2    -0.663025032126E+03   -0.66356E-01   -0.66359E-01   768   0.142E+00-0.353E-04
CGA:   3    -0.663045705545E+03   -0.20673E-01   -0.20667E-01   768   0.663E-01-0.779E-04
CGA:   4    -0.663054678217E+03   -0.89727E-02   -0.89748E-02   768   0.150E-01-0.109E-04
CGA:   5    -0.663057207979E+03   -0.25298E-02   -0.25298E-02   768   0.537E-02 0.892E-05
CGA:   6    -0.663058064599E+03   -0.85662E-03   -0.85673E-03   768   0.225E-02 0.610E-05
CGA:   7    -0.663058468601E+03   -0.40400E-03   -0.40401E-03   768   0.115E-02-0.180E-05
CGA:   8    -0.663058678165E+03   -0.20956E-03   -0.20957E-03   768   0.631E-03-0.115E-05
CGA:   9    -0.663058802237E+03   -0.12407E-03   -0.12410E-03   768   0.298E-03-0.126E-05
CGA:  10    -0.663058857180E+03   -0.54943E-04   -0.54931E-04   768   0.162E-03 0.129E-05
  36 F= -.66961221E+03 E0= -.66960179E+03  d E =-.101611E-01  mag=     1.0259
       N       E                     dE             d eps       ncg     rms          ort
SDA:   1    -0.662197672541E+03    0.86113E+00    0.00000E+00   768   0.204E+01 0.000E+00
CGA:   2    -0.662769302522E+03   -0.57163E+00   -0.57164E+00   768   0.130E+01-0.625E-03
CGA:   3    -0.662950270813E+03   -0.18097E+00   -0.18084E+00   768   0.582E+00-0.119E-02
CGA:   4    -0.663031334451E+03   -0.81064E-01   -0.81119E-01   768   0.129E+00 0.170E-03
CGA:   5    -0.663053648607E+03   -0.22314E-01   -0.22313E-01   768   0.453E-01-0.719E-04
CGA:   6    -0.663061223361E+03   -0.75748E-02   -0.75755E-02   768   0.194E-01 0.506E-04
CGA:   7    -0.663064572888E+03   -0.33495E-02   -0.33494E-02   768   0.100E-01-0.192E-04
CGA:   8    -0.663066370692E+03   -0.17978E-02   -0.17978E-02   768   0.496E-02 0.396E-05
CGA:   9    -0.663067382094E+03   -0.10114E-02   -0.10114E-02   768   0.223E-02-0.244E-05
CGA:  10    -0.663067787642E+03   -0.40555E-03   -0.40553E-03   768   0.120E-02 0.426E-05
CGA:  11    -0.663067985941E+03   -0.19830E-03   -0.19831E-03   768   0.426E-03 0.649E-06
CGA:  12    -0.663068070300E+03   -0.84359E-04   -0.84333E-04   768   0.199E-03 0.138E-05
  37 F= -.66962259E+03 E0= -.66961284E+03  d E =-.205504E-01  mag=     1.0084
       N       E                     dE             d eps       ncg     rms          ort
SDA:   1    -0.663026172243E+03    0.41814E-01    0.00000E+00   768   0.114E+00 0.000E+00
CGA:   2    -0.663058773292E+03   -0.32601E-01   -0.32594E-01   768   0.627E-01 0.592E-04
CGA:   3    -0.663068209172E+03   -0.94359E-02   -0.94371E-02   768   0.305E-01 0.483E-05
CGA:   4    -0.663072113656E+03   -0.39045E-02   -0.39056E-02   768   0.621E-02-0.719E-05
CGA:   5    -0.663073214763E+03   -0.11011E-02   -0.11011E-02   768   0.206E-02 0.679E-05
CGA:   6    -0.663073565480E+03   -0.35072E-03   -0.35072E-03   768   0.895E-03 0.426E-06
CGA:   7    -0.663073718169E+03   -0.15269E-03   -0.15266E-03   768   0.441E-03-0.274E-05
CGA:   8    -0.663073797322E+03   -0.79153E-04   -0.79155E-04   768   0.228E-03-0.150E-05
  38 F= -.66962852E+03 E0= -.66961888E+03  d E =-.592681E-02  mag=     1.0061
       N       E                     dE             d eps       ncg     rms          ort
SDA:   1    -0.662656436506E+03    0.41728E+00    0.00000E+00   768   0.102E+01 0.000E+00
CGA:   2    -0.662951109125E+03   -0.29467E+00   -0.29443E+00   768   0.536E+00 0.194E-02
CGA:   3    -0.663036675317E+03   -0.85566E-01   -0.85573E-01   768   0.259E+00 0.991E-04
CGA:   4    -0.663068906525E+03   -0.32231E-01   -0.32281E-01   768   0.546E-01-0.228E-04
CGA:   5    -0.663078548366E+03   -0.96418E-02   -0.96416E-02   768   0.197E-01-0.150E-04
CGA:   6    -0.663081783812E+03   -0.32354E-02   -0.32356E-02   768   0.804E-02 0.926E-05
CGA:   7    -0.663083189826E+03   -0.14060E-02   -0.14059E-02   768   0.386E-02-0.101E-04
CGA:   8    -0.663083884201E+03   -0.69438E-03   -0.69438E-03   768   0.193E-02-0.216E-05
CGA:   9    -0.663084259495E+03   -0.37529E-03   -0.37530E-03   768   0.896E-03-0.784E-06
CGA:  10    -0.663084428556E+03   -0.16906E-03   -0.16903E-03   768   0.447E-03 0.405E-05
CGA:  11    -0.663084503035E+03   -0.74479E-04   -0.74499E-04   768   0.174E-03 0.136E-05
  39 F= -.66963982E+03 E0= -.66963045E+03  d E =-.172237E-01  mag=     1.0022
       N       E                     dE             d eps       ncg     rms          ort
SDA:   1    -0.661373065746E+03    0.17114E+01    0.00000E+00   768   0.406E+01 0.000E+00
CGA:   2    -0.662554273248E+03   -0.11812E+01   -0.11794E+01   768   0.207E+01 0.148E-01
CGA:   3    -0.662896579774E+03   -0.34231E+00   -0.34223E+00   768   0.969E+00-0.116E-02
CGA:   4    -0.663017309645E+03   -0.12073E+00   -0.12111E+00   768   0.216E+00-0.693E-04
CGA:   5    -0.663054588432E+03   -0.37279E-01   -0.37273E-01   768   0.756E-01-0.268E-03
CGA:   6    -0.663067291427E+03   -0.12703E-01   -0.12704E-01   768   0.315E-01 0.621E-04
CGA:   7    -0.663072768944E+03   -0.54775E-02   -0.54771E-02   768   0.148E-01-0.309E-04
CGA:   8    -0.663075520158E+03   -0.27512E-02   -0.27511E-02   768   0.736E-02 0.840E-05
CGA:   9    -0.663076932100E+03   -0.14119E-02   -0.14119E-02   768   0.341E-02-0.144E-05
CGA:  10    -0.663077573389E+03   -0.64129E-03   -0.64122E-03   768   0.164E-02 0.901E-05
CGA:  11    -0.663077852178E+03   -0.27879E-03   -0.27882E-03   768   0.634E-03 0.219E-05
CGA:  12    -0.663077970313E+03   -0.11814E-03   -0.11812E-03   768   0.259E-03 0.223E-05
CGA:  13    -0.663078015781E+03   -0.45468E-04   -0.45464E-04   768   0.117E-03-0.729E-06
  40 F= -.66963448E+03 E0= -.66962555E+03  d E =-.118825E-01  mag=     0.9970
       N       E                     dE             d eps       ncg     rms          ort
SDA:   1    -0.662402886036E+03    0.67508E+00    0.00000E+00   768   0.164E+01 0.000E+00
CGA:   2    -0.662874276903E+03   -0.47139E+00   -0.47170E+00   768   0.838E+00-0.246E-02
CGA:   3    -0.663011846447E+03   -0.13757E+00   -0.13759E+00   768   0.398E+00 0.362E-03
CGA:   4    -0.663062260153E+03   -0.50414E-01   -0.50310E-01   768   0.875E-01 0.573E-04
CGA:   5    -0.663077028404E+03   -0.14768E-01   -0.14770E-01   768   0.309E-01 0.476E-04
CGA:   6    -0.663082204828E+03   -0.51764E-02   -0.51761E-02   768   0.122E-01-0.155E-04
CGA:   7    -0.663084344920E+03   -0.21401E-02   -0.21402E-02   768   0.574E-02 0.156E-04
CGA:   8    -0.663085385471E+03   -0.10406E-02   -0.10406E-02   768   0.289E-02 0.279E-05
CGA:   9    -0.663085932722E+03   -0.54725E-03   -0.54723E-03   768   0.133E-02 0.234E-05
CGA:  10    -0.663086192146E+03   -0.25942E-03   -0.25949E-03   768   0.639E-03-0.478E-05
CGA:  11    -0.663086298204E+03   -0.10606E-03   -0.10604E-03   768   0.259E-03-0.147E-05
CGA:  12    -0.663086344797E+03   -0.46593E-04   -0.46592E-04   768   0.953E-04-0.155E-05
  41 F= -.66964209E+03 E0= -.66963292E+03  d E =-.194938E-01  mag=     0.9995
       N       E                     dE             d eps       ncg     rms          ort
SDA:   1    -0.663063792874E+03    0.22505E-01    0.00000E+00   768   0.698E-01 0.000E+00
CGA:   2    -0.663085143675E+03   -0.21351E-01   -0.21352E-01   768   0.330E-01-0.140E-04
CGA:   3    -0.663090414170E+03   -0.52705E-02   -0.52705E-02   768   0.163E-01-0.577E-05
CGA:   4    -0.663092443915E+03   -0.20297E-02   -0.20298E-02   768   0.357E-02-0.589E-05
CGA:   5    -0.663093083993E+03   -0.64008E-03   -0.64010E-03   768   0.120E-02 0.799E-05
CGA:   6    -0.663093283189E+03   -0.19920E-03   -0.19921E-03   768   0.423E-03 0.100E-05
CGA:   7    -0.663093361482E+03   -0.78293E-04   -0.78300E-04   768   0.233E-03-0.198E-05
  42 F= -.66964928E+03 E0= -.66964012E+03  d E =-.718685E-02  mag=     0.9972
       N       E                     dE             d eps       ncg     rms          ort
SDA:   1    -0.662836066856E+03    0.25722E+00    0.00000E+00   768   0.628E+00 0.000E+00
CGA:   2    -0.663027359930E+03   -0.19129E+00   -0.19130E+00   768   0.306E+00-0.101E-03
CGA:   3    -0.663074602149E+03   -0.47242E-01   -0.47260E-01   768   0.150E+00 0.150E-03
CGA:   4    -0.663093418131E+03   -0.18816E-01   -0.18823E-01   768   0.330E-01-0.153E-04
CGA:   5    -0.663099607899E+03   -0.61898E-02   -0.61897E-02   768   0.996E-02 0.138E-04
CGA:   6    -0.663101387558E+03   -0.17797E-02   -0.17797E-02   768   0.406E-02 0.488E-05
CGA:   7    -0.663102092187E+03   -0.70463E-03   -0.70459E-03   768   0.218E-02-0.444E-05
CGA:   8    -0.663102481321E+03   -0.38913E-03   -0.38913E-03   768   0.109E-02-0.155E-05
CGA:   9    -0.663102708880E+03   -0.22756E-03   -0.22754E-03   768   0.502E-03 0.655E-06
CGA:  10    -0.663102812289E+03   -0.10341E-03   -0.10333E-03   768   0.272E-03 0.349E-05
CGA:  11    -0.663102854394E+03   -0.42106E-04   -0.42126E-04   768   0.108E-03 0.639E-06
  43 F= -.66965925E+03 E0= -.66965017E+03  d E =-.171591E-01  mag=     0.9905
       N       E                     dE             d eps       ncg     rms          ort
SDA:   1    -0.663088642727E+03    0.14170E-01    0.00000E+00   768   0.431E-01 0.000E+00
CGA:   2    -0.663100865768E+03   -0.12223E-01   -0.12223E-01   768   0.234E-01-0.177E-05
CGA:   3    -0.663104436144E+03   -0.35704E-02   -0.35693E-02   768   0.102E-01-0.131E-04
CGA:   4    -0.663105858839E+03   -0.14227E-02   -0.14227E-02   768   0.264E-02-0.304E-05
CGA:   5    -0.663106295071E+03   -0.43623E-03   -0.43630E-03   768   0.821E-03 0.406E-05
CGA:   6    -0.663106430757E+03   -0.13569E-03   -0.13571E-03   768   0.358E-03 0.103E-05
CGA:   7    -0.663106493929E+03   -0.63172E-04   -0.63168E-04   768   0.170E-03-0.491E-06
  44 F= -.66966298E+03 E0= -.66965397E+03  d E =-.372766E-02  mag=     0.9899
       N       E                     dE             d eps       ncg     rms          ort
SDA:   1    -0.662966135313E+03    0.14030E+00    0.00000E+00   768   0.348E+00 0.000E+00
CGA:   2    -0.663064440001E+03   -0.98305E-01   -0.98301E-01   768   0.192E+00-0.172E-04
CGA:   3    -0.663093323580E+03   -0.28884E-01   -0.28863E-01   768   0.832E-01-0.197E-03
CGA:   4    -0.663104914237E+03   -0.11591E-01   -0.11594E-01   768   0.219E-01-0.144E-04
CGA:   5    -0.663108632436E+03   -0.37182E-02   -0.37181E-02   768   0.683E-02 0.241E-05
CGA:   6    -0.663109780491E+03   -0.11481E-02   -0.11482E-02   768   0.295E-02 0.492E-05
CGA:   7    -0.663110300419E+03   -0.51993E-03   -0.51991E-03   768   0.142E-02-0.159E-05
CGA:   8    -0.663110564444E+03   -0.26402E-03   -0.26402E-03   768   0.731E-03-0.132E-06
CGA:   9    -0.663110712335E+03   -0.14789E-03   -0.14791E-03   768   0.345E-03-0.105E-05
CGA:  10    -0.663110776816E+03   -0.64481E-04   -0.64476E-04   768   0.172E-03 0.131E-05
  45 F= -.66966749E+03 E0= -.66965868E+03  d E =-.824403E-02  mag=     0.9878
       N       E                     dE             d eps       ncg     rms          ort
SDA:   1    -0.663093993565E+03    0.16719E-01    0.00000E+00   768   0.494E-01 0.000E+00
CGA:   2    -0.663106396560E+03   -0.12403E-01   -0.12402E-01   768   0.302E-01 0.106E-04
CGA:   3    -0.663110982356E+03   -0.45858E-02   -0.45847E-02   768   0.115E-01-0.155E-04
CGA:   4    -0.663112711800E+03   -0.17294E-02   -0.17295E-02   768   0.308E-02-0.165E-05
CGA:   5    -0.663113225319E+03   -0.51352E-03   -0.51350E-03   768   0.108E-02-0.161E-07
CGA:   6    -0.663113418392E+03   -0.19307E-03   -0.19307E-03   768   0.492E-03-0.141E-05
CGA:   7    -0.663113502674E+03   -0.84282E-04   -0.84265E-04   768   0.269E-03-0.153E-05
  46 F= -.66967024E+03 E0= -.66966147E+03  d E =-.275047E-02  mag=     0.9881
       N       E                     dE             d eps       ncg     rms          ort
SDA:   1    -0.662942413966E+03    0.17100E+00    0.00000E+00   768   0.440E+00 0.000E+00
CGA:   2    -0.663054040268E+03   -0.11163E+00   -0.11160E+00   768   0.267E+00 0.293E-03
CGA:   3    -0.663094898587E+03   -0.40858E-01   -0.40850E-01   768   0.102E+00-0.145E-03
CGA:   4    -0.663109971643E+03   -0.15073E-01   -0.15074E-01   768   0.282E-01-0.124E-04
CGA:   5    -0.663114963338E+03   -0.49917E-02   -0.49917E-02   768   0.885E-02-0.628E-05
CGA:   6    -0.663116718460E+03   -0.17551E-02   -0.17552E-02   768   0.349E-02-0.489E-05
CGA:   7    -0.663117513111E+03   -0.79465E-03   -0.79489E-03   768   0.157E-02-0.502E-05
CGA:   8    -0.663117889182E+03   -0.37607E-03   -0.37614E-03   768   0.685E-03-0.140E-05
CGA:   9    -0.663118031887E+03   -0.14270E-03   -0.14271E-03   768   0.375E-03-0.147E-06
CGA:  10    -0.663118083305E+03   -0.51418E-04   -0.51489E-04   768   0.149E-03 0.133E-05
  47 F= -.66967489E+03 E0= -.66966622E+03  d E =-.740221E-02  mag=     0.9892
       N       E                     dE             d eps       ncg     rms          ort
SDA:   1    -0.663100312122E+03    0.17720E-01    0.00000E+00   768   0.455E-01 0.000E+00
CGA:   2    -0.663111796682E+03   -0.11485E-01   -0.11484E-01   768   0.277E-01 0.678E-05
CGA:   3    -0.663115985609E+03   -0.41889E-02   -0.41881E-02   768   0.108E-01-0.117E-04
CGA:   4    -0.663117585575E+03   -0.16000E-02   -0.16000E-02   768   0.287E-02-0.128E-05
CGA:   5    -0.663118080084E+03   -0.49451E-03   -0.49451E-03   768   0.898E-03 0.249E-06
CGA:   6    -0.663118259828E+03   -0.17974E-03   -0.17976E-03   768   0.393E-03-0.141E-05
CGA:   7    -0.663118334671E+03   -0.74844E-04   -0.74851E-04   768   0.233E-03-0.138E-05
  48 F= -.66967517E+03 E0= -.66966652E+03  d E =-.767573E-02  mag=     0.9896
       N       E                     dE             d eps       ncg     rms          ort
SDA:   1    -0.663090950080E+03    0.27310E-01    0.00000E+00   768   0.760E-01 0.000E+00
CGA:   2    -0.663110732085E+03   -0.19782E-01   -0.19781E-01   768   0.463E-01 0.751E-05
CGA:   3    -0.663117794448E+03   -0.70624E-02   -0.70607E-02   768   0.172E-01-0.223E-04
CGA:   4    -0.663120277622E+03   -0.24832E-02   -0.24833E-02   768   0.506E-02-0.388E-05
CGA:   5    -0.663121183511E+03   -0.90589E-03   -0.90588E-03   768   0.155E-02-0.882E-06
CGA:   6    -0.663121486285E+03   -0.30277E-03   -0.30278E-03   768   0.677E-03-0.448E-06
CGA:   7    -0.663121621977E+03   -0.13569E-03   -0.13570E-03   768   0.374E-03-0.658E-06
CGA:   8    -0.663121683912E+03   -0.61935E-04   -0.61937E-04   768   0.206E-03 0.264E-07
  49 F= -.66967863E+03 E0= -.66967000E+03  d E =-.345984E-02  mag=     0.9885
       N       E                     dE             d eps       ncg     rms          ort
SDA:   1    -0.662851153958E+03    0.27047E+00    0.00000E+00   768   0.688E+00 0.000E+00
CGA:   2    -0.663027932071E+03   -0.17678E+00   -0.17672E+00   768   0.428E+00 0.452E-03
CGA:   3    -0.663091912515E+03   -0.63980E-01   -0.63908E-01   768   0.162E+00-0.649E-03
CGA:   4    -0.663115481907E+03   -0.23569E-01   -0.23581E-01   768   0.432E-01-0.127E-04
CGA:   5    -0.663123162025E+03   -0.76801E-02   -0.76795E-02   768   0.145E-01-0.502E-04
CGA:   6    -0.663125668672E+03   -0.25066E-02   -0.25068E-02   768   0.668E-02 0.399E-05
CGA:   7    -0.663126831648E+03   -0.11630E-02   -0.11629E-02   768   0.348E-02-0.689E-05
CGA:   8    -0.663127453795E+03   -0.62215E-03   -0.62216E-03   768   0.157E-02 0.188E-05
CGA:   9    -0.663127789821E+03   -0.33603E-03   -0.33612E-03   768   0.677E-03-0.250E-05
CGA:  10    -0.663127913987E+03   -0.12417E-03   -0.12417E-03   768   0.336E-03 0.908E-06
CGA:  11    -0.663127967572E+03   -0.53585E-04   -0.53572E-04   768   0.123E-03-0.508E-06
  50 F= -.66968524E+03 E0= -.66967666E+03  d E =-.100715E-01  mag=     0.9848
       N       E                     dE             d eps       ncg     rms          ort
SDA:   1    -0.662012041546E+03    0.11159E+01    0.00000E+00   768   0.276E+01 0.000E+00
CGA:   2    -0.662723361036E+03   -0.71132E+00   -0.71090E+00   768   0.170E+01 0.346E-02
CGA:   3    -0.662980552223E+03   -0.25719E+00   -0.25671E+00   768   0.641E+00-0.495E-02
CGA:   4    -0.663073349197E+03   -0.92797E-01   -0.92889E-01   768   0.173E+00 0.949E-05
CGA:   5    -0.663103841439E+03   -0.30492E-01   -0.30487E-01   768   0.557E-01-0.403E-03
CGA:   6    -0.663113758488E+03   -0.99170E-02   -0.99176E-02   768   0.251E-01 0.390E-04
CGA:   7    -0.663118228413E+03   -0.44699E-02   -0.44695E-02   768   0.135E-01-0.468E-04
CGA:   8    -0.663120551650E+03   -0.23232E-02   -0.23235E-02   768   0.615E-02 0.123E-04
CGA:   9    -0.663121863265E+03   -0.13116E-02   -0.13121E-02   768   0.253E-02-0.113E-04
CGA:  10    -0.663122358042E+03   -0.49478E-03   -0.49473E-03   768   0.125E-02 0.313E-05
CGA:  11    -0.663122552749E+03   -0.19471E-03   -0.19466E-03   768   0.499E-03-0.124E-05
CGA:  12    -0.663122648946E+03   -0.96197E-04   -0.96184E-04   768   0.179E-03 0.129E-05
  51 F= -.66968056E+03 E0= -.66967209E+03  d E =-.539418E-02  mag=     0.9778
       N       E                     dE             d eps       ncg     rms          ort
SDA:   1    -0.662580183476E+03    0.54237E+00    0.00000E+00   768   0.136E+01 0.000E+00
CGA:   2    -0.662934167725E+03   -0.35398E+00   -0.35406E+00   768   0.830E+00-0.566E-03
CGA:   3    -0.663059042198E+03   -0.12487E+00   -0.12502E+00   768   0.311E+00 0.141E-02
CGA:   4    -0.663104916266E+03   -0.45874E-01   -0.45849E-01   768   0.851E-01-0.991E-05
CGA:   5    -0.663119624894E+03   -0.14709E-01   -0.14711E-01   768   0.278E-01 0.111E-03
CGA:   6    -0.663124608128E+03   -0.49832E-02   -0.49831E-02   768   0.124E-01-0.146E-04
CGA:   7    -0.663126794657E+03   -0.21865E-02   -0.21868E-02   768   0.673E-02 0.158E-04
CGA:   8    -0.663127954069E+03   -0.11594E-02   -0.11593E-02   768   0.306E-02-0.379E-05
CGA:   9    -0.663128594337E+03   -0.64027E-03   -0.64010E-03   768   0.123E-02 0.504E-05
CGA:  10    -0.663128835918E+03   -0.24158E-03   -0.24160E-03   768   0.588E-03-0.131E-05
CGA:  11    -0.663128925506E+03   -0.89588E-04   -0.89615E-04   768   0.228E-03 0.755E-06
  52 F= -.66968639E+03 E0= -.66967781E+03  d E =-.112226E-01  mag=     0.9815
       N       E                     dE             d eps       ncg     rms          ort
SDA:   1    -0.663059755560E+03    0.69080E-01    0.00000E+00   768   0.192E+00 0.000E+00
CGA:   2    -0.663104067681E+03   -0.44312E-01   -0.44310E-01   768   0.114E+00 0.137E-04
CGA:   3    -0.663121865238E+03   -0.17798E-01   -0.17796E-01   768   0.463E-01-0.300E-04
CGA:   4    -0.663128918918E+03   -0.70537E-02   -0.70536E-02   768   0.129E-01-0.392E-05
CGA:   5    -0.663131256311E+03   -0.23374E-02   -0.23374E-02   768   0.432E-02-0.252E-05
CGA:   6    -0.663132094082E+03   -0.83777E-03   -0.83784E-03   768   0.181E-02-0.532E-05
CGA:   7    -0.663132489459E+03   -0.39538E-03   -0.39539E-03   768   0.919E-03-0.648E-06
CGA:   8    -0.663132653251E+03   -0.16379E-03   -0.16378E-03   768   0.546E-03-0.908E-06
CGA:   9    -0.663132737867E+03   -0.84616E-04   -0.84640E-04   768   0.189E-03 0.659E-06
  53 F= -.66969024E+03 E0= -.66968175E+03  d E =-.385218E-02  mag=     0.9793
       N       E                     dE             d eps       ncg     rms          ort
SDA:   1    -0.662540630655E+03    0.59202E+00    0.00000E+00   768   0.157E+01 0.000E+00
CGA:   2    -0.662903055721E+03   -0.36243E+00   -0.36238E+00   768   0.929E+00 0.474E-03
CGA:   3    -0.663048289213E+03   -0.14523E+00   -0.14523E+00   768   0.380E+00-0.371E-03
CGA:   4    -0.663105838079E+03   -0.57549E-01   -0.57541E-01   768   0.107E+00-0.162E-03
CGA:   5    -0.663124867792E+03   -0.19030E-01   -0.19030E-01   768   0.355E-01-0.103E-04
CGA:   6    -0.663131780221E+03   -0.69124E-02   -0.69136E-02   768   0.156E-01-0.658E-04
CGA:   7    -0.663134964071E+03   -0.31838E-02   -0.31832E-02   768   0.865E-02 0.162E-04
CGA:   8    -0.663136369152E+03   -0.14051E-02   -0.14046E-02   768   0.455E-02-0.102E-04
CGA:   9    -0.663137177759E+03   -0.80861E-03   -0.80866E-03   768   0.154E-02 0.504E-05
CGA:  10    -0.663137506698E+03   -0.32894E-03   -0.32900E-03   768   0.533E-03-0.168E-05
CGA:  11    -0.663137603876E+03   -0.97178E-04   -0.97181E-04   768   0.281E-03 0.107E-05
  54 F= -.66969520E+03 E0= -.66968695E+03  d E =-.880846E-02  mag=     0.9723
       N       E                     dE             d eps       ncg     rms          ort
SDA:   1    -0.663047609713E+03    0.89897E-01    0.00000E+00   768   0.260E+00 0.000E+00
CGA:   2    -0.663100504077E+03   -0.52894E-01   -0.52898E-01   768   0.147E+00-0.969E-04
CGA:   3    -0.663124285854E+03   -0.23782E-01   -0.23788E-01   768   0.716E-01 0.119E-03
CGA:   4    -0.663135474305E+03   -0.11188E-01   -0.11186E-01   768   0.209E-01-0.121E-04
CGA:   5    -0.663139188368E+03   -0.37141E-02   -0.37142E-02   768   0.763E-02 0.152E-04
CGA:   6    -0.663140609904E+03   -0.14215E-02   -0.14216E-02   768   0.404E-02-0.125E-04
CGA:   7    -0.663141305047E+03   -0.69514E-03   -0.69516E-03   768   0.214E-02-0.828E-06
CGA:   8    -0.663141682746E+03   -0.37770E-03   -0.37768E-03   768   0.868E-03-0.228E-05
CGA:   9    -0.663141855956E+03   -0.17321E-03   -0.17317E-03   768   0.317E-03 0.186E-05
CGA:  10    -0.663141913215E+03   -0.57258E-04   -0.57258E-04   768   0.143E-03 0.127E-06
  55 F= -.66969933E+03 E0= -.66969118E+03  d E =-.413561E-02  mag=     0.9718
       N       E                     dE             d eps       ncg     rms          ort
SDA:   1    -0.662298981398E+03    0.84287E+00    0.00000E+00   768   0.233E+01 0.000E+00
CGA:   2    -0.662775658207E+03   -0.47668E+00   -0.47676E+00   768   0.132E+01-0.223E-02
CGA:   3    -0.662989900262E+03   -0.21424E+00   -0.21439E+00   768   0.638E+00 0.336E-02
CGA:   4    -0.663090040907E+03   -0.10014E+00   -0.10008E+00   768   0.188E+00-0.866E-03
CGA:   5    -0.663123235124E+03   -0.33194E-01   -0.33196E-01   768   0.707E-01 0.371E-03
CGA:   6    -0.663136121542E+03   -0.12886E-01   -0.12888E-01   768   0.364E-01-0.240E-03
CGA:   7    -0.663142434380E+03   -0.63128E-02   -0.63134E-02   768   0.189E-01 0.471E-04
CGA:   8    -0.663145813675E+03   -0.33793E-02   -0.33793E-02   768   0.770E-02-0.424E-04
CGA:   9    -0.663147342355E+03   -0.15287E-02   -0.15283E-02   768   0.287E-02 0.145E-04
CGA:  10    -0.663147844011E+03   -0.50166E-03   -0.50164E-03   768   0.125E-02-0.168E-05
CGA:  11    -0.663148035656E+03   -0.19165E-03   -0.19171E-03   768   0.430E-03 0.212E-05
CGA:  12    -0.663148122158E+03   -0.86502E-04   -0.86506E-04   768   0.172E-03-0.237E-06
  56 F= -.66970501E+03 E0= -.66969715E+03  d E =-.981349E-02  mag=     0.9720
       N       E                     dE             d eps       ncg     rms          ort
SDA:   1    -0.663055280034E+03    0.92756E-01    0.00000E+00   768   0.264E+00 0.000E+00
CGA:   2    -0.663110270550E+03   -0.54991E-01   -0.54995E-01   768   0.146E+00-0.957E-04
CGA:   3    -0.663134120957E+03   -0.23850E-01   -0.23855E-01   768   0.733E-01 0.123E-03
CGA:   4    -0.663145528690E+03   -0.11408E-01   -0.11406E-01   768   0.209E-01-0.769E-05
CGA:   5    -0.663149284133E+03   -0.37554E-02   -0.37554E-02   768   0.756E-02 0.170E-04
CGA:   6    -0.663150708112E+03   -0.14240E-02   -0.14241E-02   768   0.405E-02-0.107E-04
CGA:   7    -0.663151414022E+03   -0.70591E-03   -0.70593E-03   768   0.217E-02 0.969E-06
CGA:   8    -0.663151787827E+03   -0.37381E-03   -0.37379E-03   768   0.890E-03-0.132E-05
CGA:   9    -0.663151966131E+03   -0.17830E-03   -0.17825E-03   768   0.318E-03 0.216E-05
CGA:  10    -0.663152025415E+03   -0.59284E-04   -0.59283E-04   768   0.146E-03 0.146E-06
  57 F= -.66970877E+03 E0= -.66970098E+03  d E =-.375712E-02  mag=     0.9697
       N       E                     dE             d eps       ncg     rms          ort
SDA:   1    -0.662331879135E+03    0.82009E+00    0.00000E+00   768   0.225E+01 0.000E+00
CGA:   2    -0.662801881372E+03   -0.47000E+00   -0.47003E+00   768   0.123E+01-0.879E-03
CGA:   3    -0.663006181575E+03   -0.20430E+00   -0.20434E+00   768   0.615E+00 0.101E-02
CGA:   4    -0.663101946984E+03   -0.95765E-01   -0.95742E-01   768   0.176E+00-0.381E-03
CGA:   5    -0.663133642861E+03   -0.31696E-01   -0.31695E-01   768   0.634E-01 0.172E-03
CGA:   6    -0.663146189427E+03   -0.12547E-01   -0.12552E-01   768   0.313E-01-0.197E-03
CGA:   7    -0.663152079365E+03   -0.58899E-02   -0.58890E-02   768   0.175E-01 0.551E-04
CGA:   8    -0.663154844166E+03   -0.27648E-02   -0.27634E-02   768   0.767E-02-0.235E-04
CGA:   9    -0.663156283587E+03   -0.14394E-02   -0.14393E-02   768   0.248E-02 0.131E-04
CGA:  10    -0.663156789458E+03   -0.50587E-03   -0.50593E-03   768   0.932E-03-0.143E-05
CGA:  11    -0.663156938096E+03   -0.14864E-03   -0.14867E-03   768   0.447E-03 0.162E-05
CGA:  12    -0.663157012590E+03   -0.74494E-04   -0.74487E-04   768   0.151E-03-0.509E-06
  58 F= -.66971333E+03 E0= -.66970573E+03  d E =-.831972E-02  mag=     0.9635
       N       E                     dE             d eps       ncg     rms          ort
SDA:   1    -0.662924051775E+03    0.23289E+00    0.00000E+00   768   0.633E+00 0.000E+00
CGA:   2    -0.663066860417E+03   -0.14281E+00   -0.14280E+00   768   0.341E+00 0.133E-03
CGA:   3    -0.663122768967E+03   -0.55909E-01   -0.55914E-01   768   0.164E+00 0.105E-03
CGA:   4    -0.663147471548E+03   -0.24703E-01   -0.24703E-01   768   0.438E-01 0.130E-04
CGA:   5    -0.663155423305E+03   -0.79518E-02   -0.79518E-02   768   0.150E-01 0.144E-04
CGA:   6    -0.663158522706E+03   -0.30994E-02   -0.31000E-02   768   0.712E-02-0.175E-04
CGA:   7    -0.663160008440E+03   -0.14857E-02   -0.14854E-02   768   0.369E-02 0.656E-05
CGA:   8    -0.663160626899E+03   -0.61846E-03   -0.61837E-03   768   0.202E-02-0.197E-05
CGA:   9    -0.663160952364E+03   -0.32547E-03   -0.32557E-03   768   0.661E-03 0.352E-05
CGA:  10    -0.663161091357E+03   -0.13899E-03   -0.13897E-03   768   0.212E-03 0.891E-06
CGA:  11    -0.663161133555E+03   -0.42198E-04   -0.42180E-04   768   0.113E-03 0.112E-05
  59 F= -.66971729E+03 E0= -.66970979E+03  d E =-.396305E-02  mag=     0.9637
       N       E                     dE             d eps       ncg     rms          ort
SDA:   1    -0.663018417602E+03    0.14267E+00    0.00000E+00   768   0.384E+00 0.000E+00
CGA:   2    -0.663105035063E+03   -0.86617E-01   -0.86612E-01   768   0.206E+00 0.930E-04
CGA:   3    -0.663138922681E+03   -0.33888E-01   -0.33887E-01   768   0.995E-01-0.244E-04
CGA:   4    -0.663153895340E+03   -0.14973E-01   -0.14974E-01   768   0.267E-01 0.195E-04
CGA:   5    -0.663158707827E+03   -0.48125E-02   -0.48125E-02   768   0.908E-02-0.851E-06
CGA:   6    -0.663160630187E+03   -0.19224E-02   -0.19225E-02   768   0.412E-02-0.543E-05
CGA:   7    -0.663161565861E+03   -0.93567E-03   -0.93570E-03   768   0.176E-02-0.738E-06
CGA:   8    -0.663161979842E+03   -0.41398E-03   -0.41391E-03   768   0.661E-03 0.142E-05
CGA:   9    -0.663162133215E+03   -0.15337E-03   -0.15329E-03   768   0.208E-03 0.194E-05
CGA:  10    -0.663162180063E+03   -0.46848E-04   -0.46825E-04   768   0.862E-04 0.649E-06
  60 F= -.66971822E+03 E0= -.66971080E+03  d E =-.489299E-02  mag=     0.9640
       N       E                     dE             d eps       ncg     rms          ort
SDA:   1    -0.663012427113E+03    0.14971E+00    0.00000E+00   768   0.403E+00 0.000E+00
CGA:   2    -0.663107909524E+03   -0.95482E-01   -0.95474E-01   768   0.214E+00 0.989E-04
CGA:   3    -0.663142882187E+03   -0.34973E-01   -0.34958E-01   768   0.101E+00-0.207E-03
CGA:   4    -0.663157694039E+03   -0.14812E-01   -0.14820E-01   768   0.270E-01 0.227E-04
CGA:   5    -0.663162451130E+03   -0.47571E-02   -0.47566E-02   768   0.918E-02-0.151E-04
CGA:   6    -0.663164204528E+03   -0.17534E-02   -0.17534E-02   768   0.470E-02 0.571E-05
CGA:   7    -0.663165034824E+03   -0.83030E-03   -0.83022E-03   768   0.251E-02-0.265E-05
CGA:   8    -0.663165459950E+03   -0.42513E-03   -0.42520E-03   768   0.109E-02 0.298E-05
CGA:   9    -0.663165683844E+03   -0.22389E-03   -0.22390E-03   768   0.410E-03 0.183E-06
CGA:  10    -0.663165763345E+03   -0.79501E-04   -0.79491E-04   768   0.186E-03 0.147E-05
  61 F= -.66972189E+03 E0= -.66971457E+03  d E =-.366834E-02  mag=     0.9641
       N       E                     dE             d eps       ncg     rms          ort
SDA:   1    -0.662824238686E+03    0.34145E+00    0.00000E+00   768   0.902E+00 0.000E+00
CGA:   2    -0.663037518272E+03   -0.21328E+00   -0.21323E+00   768   0.485E+00 0.553E-03
CGA:   3    -0.663115889211E+03   -0.78371E-01   -0.78311E-01   768   0.228E+00-0.943E-03
CGA:   4    -0.663149344070E+03   -0.33455E-01   -0.33482E-01   768   0.612E-01 0.875E-04
CGA:   5    -0.663159984806E+03   -0.10641E-01   -0.10639E-01   768   0.216E-01-0.758E-04
CGA:   6    -0.663163955629E+03   -0.39708E-02   -0.39708E-02   768   0.108E-01 0.198E-04
CGA:   7    -0.663165883858E+03   -0.19282E-02   -0.19281E-02   768   0.564E-02-0.117E-04
CGA:   8    -0.663166863667E+03   -0.97981E-03   -0.97992E-03   768   0.244E-02 0.680E-05
CGA:   9    -0.663167364021E+03   -0.50035E-03   -0.50040E-03   768   0.969E-03-0.919E-06
CGA:  10    -0.663167541959E+03   -0.17794E-03   -0.17794E-03   768   0.437E-03 0.237E-05
CGA:  11    -0.663167611058E+03   -0.69099E-04   -0.69094E-04   768   0.163E-03-0.128E-06
  62 F= -.66972388E+03 E0= -.66971671E+03  d E =-.565099E-02  mag=     0.9643
       N       E                     dE             d eps       ncg     rms          ort
SDA:   1    -0.663031675880E+03    0.13587E+00    0.00000E+00   768   0.358E+00 0.000E+00
CGA:   2    -0.663125801356E+03   -0.94125E-01   -0.94102E-01   768   0.175E+00 0.208E-03
CGA:   3    -0.663153744409E+03   -0.27943E-01   -0.27931E-01   768   0.796E-01-0.174E-03
CGA:   4    -0.663164931202E+03   -0.11187E-01   -0.11192E-01   768   0.204E-01 0.150E-05
CGA:   5    -0.663168365224E+03   -0.34340E-02   -0.34337E-02   768   0.640E-02-0.829E-05
CGA:   6    -0.663169528942E+03   -0.11637E-02   -0.11637E-02   768   0.314E-02 0.576E-06
CGA:   7    -0.663170067866E+03   -0.53892E-03   -0.53888E-03   768   0.152E-02-0.214E-05
CGA:   8    -0.663170343289E+03   -0.27542E-03   -0.27542E-03   768   0.707E-03 0.111E-05
CGA:   9    -0.663170489737E+03   -0.14645E-03   -0.14645E-03   768   0.314E-03-0.834E-07
CGA:  10    -0.663170548276E+03   -0.58539E-04   -0.58535E-04   768   0.152E-03 0.135E-05
  63 F= -.66972703E+03 E0= -.66971990E+03  d E =-.314971E-02  mag=     0.9639
       N       E                     dE             d eps       ncg     rms          ort
SDA:   1    -0.662723049996E+03    0.44744E+00    0.00000E+00   768   0.116E+01 0.000E+00
CGA:   2    -0.663026662842E+03   -0.30361E+00   -0.30346E+00   768   0.574E+00 0.141E-02
CGA:   3    -0.663117083917E+03   -0.90421E-01   -0.90342E-01   768   0.261E+00-0.109E-02
CGA:   4    -0.663153941792E+03   -0.36858E-01   -0.36887E-01   768   0.663E-01 0.191E-04
CGA:   5    -0.663165113180E+03   -0.11171E-01   -0.11169E-01   768   0.216E-01-0.709E-04
CGA:   6    -0.663168947436E+03   -0.38343E-02   -0.38344E-02   768   0.102E-01 0.944E-05
CGA:   7    -0.663170741357E+03   -0.17939E-02   -0.17938E-02   768   0.489E-02-0.910E-05
CGA:   8    -0.663171624324E+03   -0.88297E-03   -0.88297E-03   768   0.228E-02 0.410E-05
CGA:   9    -0.663172091421E+03   -0.46710E-03   -0.46714E-03   768   0.102E-02-0.114E-05
CGA:  10    -0.663172278280E+03   -0.18686E-03   -0.18686E-03   768   0.476E-03 0.259E-05
CGA:  11    -0.663172357879E+03   -0.79599E-04   -0.79600E-04   768   0.178E-03 0.152E-06
  64 F= -.66972922E+03 E0= -.66972218E+03  d E =-.534006E-02  mag=     0.9635
       N       E                     dE             d eps       ncg     rms          ort
SDA:   1    -0.663042394541E+03    0.12988E+00    0.00000E+00   768   0.354E+00 0.000E+00
CGA:   2    -0.663131601322E+03   -0.89207E-01   -0.89196E-01   768   0.174E+00 0.101E-03
CGA:   3    -0.663159098837E+03   -0.27498E-01   -0.27487E-01   768   0.743E-01-0.177E-03
CGA:   4    -0.663170014839E+03   -0.10916E-01   -0.10919E-01   768   0.201E-01-0.612E-05
CGA:   5    -0.663173339296E+03   -0.33245E-02   -0.33241E-02   768   0.595E-02-0.776E-05
CGA:   6    -0.663174426933E+03   -0.10876E-02   -0.10876E-02   768   0.279E-02 0.758E-06
CGA:   7    -0.663174915119E+03   -0.48819E-03   -0.48815E-03   768   0.140E-02-0.328E-05
CGA:   8    -0.663175158954E+03   -0.24383E-03   -0.24383E-03   768   0.634E-03-0.972E-06
CGA:   9    -0.663175292809E+03   -0.13386E-03   -0.13391E-03   768   0.276E-03-0.154E-05
CGA:  10    -0.663175347324E+03   -0.54515E-04   -0.54503E-04   768   0.140E-03 0.774E-06
  65 F= -.66973266E+03 E0= -.66972561E+03  d E =-.344548E-02  mag=     0.9609
       N       E                     dE             d eps       ncg     rms          ort
SDA:   1    -0.661980919450E+03    0.11944E+01    0.00000E+00   768   0.320E+01 0.000E+00
CGA:   2    -0.662781697336E+03   -0.80078E+00   -0.80042E+00   768   0.159E+01 0.333E-02
CGA:   3    -0.663030531341E+03   -0.24883E+00   -0.24850E+00   768   0.677E+00-0.492E-02
CGA:   4    -0.663129532364E+03   -0.99001E-01   -0.99090E-01   768   0.182E+00 0.424E-04
CGA:   5    -0.663159834093E+03   -0.30302E-01   -0.30289E-01   768   0.559E-01-0.374E-03
CGA:   6    -0.663169657809E+03   -0.98237E-02   -0.98241E-02   768   0.257E-01 0.300E-04
CGA:   7    -0.663174156581E+03   -0.44988E-02   -0.44983E-02   768   0.124E-01-0.387E-04
CGA:   8    -0.663176363702E+03   -0.22071E-02   -0.22072E-02   768   0.556E-02 0.562E-05
CGA:   9    -0.663177535231E+03   -0.11715E-02   -0.11719E-02   768   0.253E-02-0.106E-04
CGA:  10    -0.663178006910E+03   -0.47168E-03   -0.47166E-03   768   0.125E-02 0.340E-05
CGA:  11    -0.663178212544E+03   -0.20563E-03   -0.20562E-03   768   0.460E-03-0.485E-06
CGA:  12    -0.663178304295E+03   -0.91751E-04   -0.91725E-04   768   0.190E-03 0.148E-05
[...]
CGA:  12    -0.663229035940E+03   -0.55877E-04   -0.55892E-04   768   0.114E-03-0.148E-05
  89 F= -.66979714E+03 E0= -.66978931E+03  d E =-.665525E-02  mag=     0.9488
       N       E                     dE             d eps       ncg     rms          ort
SDA:   1    -0.663139941573E+03    0.89038E-01    0.00000E+00   768   0.245E+00 0.000E+00
CGA:   2    -0.663208318934E+03   -0.68377E-01   -0.68370E-01   768   0.920E-01 0.720E-04
CGA:   3    -0.663223257121E+03   -0.14938E-01   -0.14939E-01   768   0.469E-01 0.489E-05
CGA:   4    -0.663229125247E+03   -0.58681E-02   -0.58703E-02   768   0.106E-01 0.118E-04
CGA:   5    -0.663230905389E+03   -0.17801E-02   -0.17802E-02   768   0.247E-02 0.168E-05
CGA:   6    -0.663231356449E+03   -0.45106E-03   -0.45106E-03   768   0.109E-02-0.183E-05
CGA:   7    -0.663231526858E+03   -0.17041E-03   -0.17034E-03   768   0.402E-03-0.275E-05
CGA:   8    -0.663231595269E+03   -0.68412E-04   -0.68396E-04   768   0.203E-03-0.150E-05
  90 F= -.66979986E+03 E0= -.66979203E+03  d E =-.271742E-02  mag=     0.9516
       N       E                     dE             d eps       ncg     rms          ort
SDA:   1    -0.662903911944E+03    0.32761E+00    0.00000E+00   768   0.880E+00 0.000E+00
CGA:   2    -0.663149670322E+03   -0.24576E+00   -0.24571E+00   768   0.326E+00 0.498E-03
CGA:   3    -0.663203840282E+03   -0.54170E-01   -0.54177E-01   768   0.165E+00 0.130E-03
CGA:   4    -0.663224311167E+03   -0.20471E-01   -0.20481E-01   768   0.380E-01 0.325E-04
CGA:   5    -0.663230687363E+03   -0.63762E-02   -0.63763E-02   768   0.943E-02 0.638E-05
CGA:   6    -0.663232362325E+03   -0.16750E-02   -0.16749E-02   768   0.401E-02-0.501E-05
CGA:   7    -0.663233014076E+03   -0.65175E-03   -0.65165E-03   768   0.151E-02-0.515E-05
CGA:   8    -0.663233267975E+03   -0.25390E-03   -0.25387E-03   768   0.772E-03-0.271E-05
CGA:   9    -0.663233427066E+03   -0.15909E-03   -0.15905E-03   768   0.359E-03 0.141E-05
CGA:  10    -0.663233503623E+03   -0.76556E-04   -0.76546E-04   768   0.220E-03 0.319E-06
  91 F= -.66980206E+03 E0= -.66979426E+03  d E =-.491719E-02  mag=     0.9580
       N       E                     dE             d eps       ncg     rms          ort
SDA:   1    -0.663129396848E+03    0.10403E+00    0.00000E+00   768   0.282E+00 0.000E+00
CGA:   2    -0.663209876108E+03   -0.80479E-01   -0.80502E-01   768   0.937E-01-0.196E-03
CGA:   3    -0.663228505277E+03   -0.18629E-01   -0.18628E-01   768   0.380E-01 0.539E-04
CGA:   4    -0.663233242321E+03   -0.47370E-02   -0.47382E-02   768   0.119E-01 0.130E-04
CGA:   5    -0.663234939539E+03   -0.16972E-02   -0.16971E-02   768   0.270E-02 0.111E-05
CGA:   6    -0.663235463606E+03   -0.52407E-03   -0.52407E-03   768   0.104E-02-0.481E-06
CGA:   7    -0.663235636016E+03   -0.17241E-03   -0.17240E-03   768   0.396E-03-0.701E-06
CGA:   8    -0.663235702959E+03   -0.66944E-04   -0.66944E-04   768   0.216E-03 0.229E-07
  92 F= -.66980444E+03 E0= -.66979666E+03  d E =-.237931E-02  mag=     0.9599
       N       E                     dE             d eps       ncg     rms          ort
SDA:   1    -0.663164834155E+03    0.70802E-01    0.00000E+00   768   0.190E+00 0.000E+00
CGA:   2    -0.663218702819E+03   -0.53869E-01   -0.53882E-01   768   0.635E-01-0.112E-03
CGA:   3    -0.663231286243E+03   -0.12583E-01   -0.12583E-01   768   0.260E-01 0.269E-04
CGA:   4    -0.663234456545E+03   -0.31703E-02   -0.31706E-02   768   0.803E-02 0.990E-05
CGA:   5    -0.663235680535E+03   -0.12240E-02   -0.12240E-02   768   0.181E-02 0.141E-05
CGA:   6    -0.663236023355E+03   -0.34282E-03   -0.34282E-03   768   0.810E-03-0.432E-06
CGA:   7    -0.663236149322E+03   -0.12597E-03   -0.12595E-03   768   0.273E-03-0.598E-06
CGA:   8    -0.663236201373E+03   -0.52051E-04   -0.52051E-04   768   0.167E-03 0.208E-07
  93 F= -.66980508E+03 E0= -.66979731E+03  d E =-.302287E-02  mag=     0.9613
       N       E                     dE             d eps       ncg     rms          ort
SDA:   1    -0.663148719945E+03    0.87429E-01    0.00000E+00   768   0.238E+00 0.000E+00
CGA:   2    -0.663216637913E+03   -0.67918E-01   -0.67920E-01   768   0.804E-01-0.119E-04
CGA:   3    -0.663231966041E+03   -0.15328E-01   -0.15328E-01   768   0.348E-01 0.381E-04
CGA:   4    -0.663236222678E+03   -0.42566E-02   -0.42562E-02   768   0.100E-01 0.120E-04
CGA:   5    -0.663237766105E+03   -0.15434E-02   -0.15434E-02   768   0.238E-02-0.134E-05
CGA:   6    -0.663238196773E+03   -0.43067E-03   -0.43066E-03   768   0.104E-02-0.191E-05
CGA:   7    -0.663238361020E+03   -0.16425E-03   -0.16424E-03   768   0.361E-03-0.186E-06
CGA:   8    -0.663238427631E+03   -0.66611E-04   -0.66610E-04   768   0.200E-03 0.374E-06
  94 F= -.66980741E+03 E0= -.66979962E+03  d E =-.232870E-02  mag=     0.9609
       N       E                     dE             d eps       ncg     rms          ort
SDA:   1    -0.662711568597E+03    0.52679E+00    0.00000E+00   768   0.140E+01 0.000E+00
CGA:   2    -0.663112108422E+03   -0.40054E+00   -0.40056E+00   768   0.472E+00-0.129E-03
CGA:   3    -0.663202926527E+03   -0.90818E-01   -0.90812E-01   768   0.198E+00 0.685E-03
CGA:   4    -0.663227686230E+03   -0.24760E-01   -0.24744E-01   768   0.591E-01 0.588E-04
CGA:   5    -0.663236523780E+03   -0.88375E-02   -0.88369E-02   768   0.139E-01 0.590E-06
CGA:   6    -0.663239019084E+03   -0.24953E-02   -0.24953E-02   768   0.608E-02-0.563E-05
CGA:   7    -0.663239967138E+03   -0.94805E-03   -0.94806E-03   768   0.201E-02 0.203E-06
CGA:   8    -0.663240344693E+03   -0.37755E-03   -0.37755E-03   768   0.111E-02 0.106E-05
CGA:   9    -0.663240552227E+03   -0.20753E-03   -0.20752E-03   768   0.529E-03 0.276E-05
CGA:  10    -0.663240662779E+03   -0.11055E-03   -0.11054E-03   768   0.301E-03 0.294E-06
CGA:  11    -0.663240717298E+03   -0.54519E-04   -0.54521E-04   768   0.141E-03 0.939E-06
  95 F= -.66980994E+03 E0= -.66980209E+03  d E =-.485590E-02  mag=     0.9588
       N       E                     dE             d eps       ncg     rms          ort
SDA:   1    -0.663106741782E+03    0.13392E+00    0.00000E+00   768   0.358E+00 0.000E+00
CGA:   2    -0.663210437190E+03   -0.10370E+00   -0.10367E+00   768   0.122E+00 0.256E-03
CGA:   3    -0.663233418589E+03   -0.22981E-01   -0.22981E-01   768   0.513E-01 0.489E-04
CGA:   4    -0.663239901557E+03   -0.64830E-02   -0.64818E-02   768   0.155E-01 0.983E-05
CGA:   5    -0.663242146876E+03   -0.22453E-02   -0.22451E-02   768   0.350E-02-0.508E-05
CGA:   6    -0.663242799983E+03   -0.65311E-03   -0.65312E-03   768   0.148E-02-0.415E-05
CGA:   7    -0.663243030814E+03   -0.23083E-03   -0.23081E-03   768   0.525E-03-0.706E-06
CGA:   8    -0.663243126042E+03   -0.95229E-04   -0.95228E-04   768   0.277E-03 0.203E-06
  96 F= -.66981248E+03 E0= -.66980456E+03  d E =-.253886E-02  mag=     0.9591
       N       E                     dE             d eps       ncg     rms          ort
SDA:   1    -0.663215141477E+03    0.27889E-01    0.00000E+00   768   0.748E-01 0.000E+00
CGA:   2    -0.663236323032E+03   -0.21182E-01   -0.21179E-01   768   0.288E-01 0.225E-04
CGA:   3    -0.663240877737E+03   -0.45547E-02   -0.45549E-02   768   0.144E-01 0.102E-05
CGA:   4    -0.663242670815E+03   -0.17931E-02   -0.17934E-02   768   0.318E-02 0.599E-05
CGA:   5    -0.663243249120E+03   -0.57830E-03   -0.57830E-03   768   0.795E-03-0.224E-05
CGA:   6    -0.663243392093E+03   -0.14297E-03   -0.14297E-03   768   0.395E-03-0.141E-05
CGA:   7    -0.663243453659E+03   -0.61567E-04   -0.61553E-04   768   0.140E-03-0.500E-06
  97 F= -.66981286E+03 E0= -.66980491E+03  d E =-.292475E-02  mag=     0.9592
       N       E                     dE             d eps       ncg     rms          ort
SDA:   1    -0.663160254918E+03    0.83137E-01    0.00000E+00   768   0.222E+00 0.000E+00
CGA:   2    -0.663225443959E+03   -0.65189E-01   -0.65201E-01   768   0.723E-01-0.933E-04
CGA:   3    -0.663240240163E+03   -0.14796E-01   -0.14795E-01   768   0.229E-01 0.384E-04
CGA:   4    -0.663243792264E+03   -0.35521E-02   -0.35517E-02   768   0.745E-02-0.233E-05
CGA:   5    -0.663244822487E+03   -0.10302E-02   -0.10303E-02   768   0.187E-02-0.127E-06
CGA:   6    -0.663245179756E+03   -0.35727E-03   -0.35727E-03   768   0.859E-03 0.352E-09
CGA:   7    -0.663245294440E+03   -0.11468E-03   -0.11469E-03   768   0.295E-03 0.849E-07
CGA:   8    -0.663245358581E+03   -0.64140E-04   -0.64128E-04   768   0.144E-03 0.340E-06
  98 F= -.66981497E+03 E0= -.66980697E+03  d E =-.210799E-02  mag=     0.9589
       N       E                     dE             d eps       ncg     rms          ort
SDA:   1    -0.663131499960E+03    0.11379E+00    0.00000E+00   768   0.299E+00 0.000E+00
CGA:   2    -0.663219149687E+03   -0.87650E-01   -0.87669E-01   768   0.988E-01-0.154E-03
CGA:   3    -0.663238721248E+03   -0.19572E-01   -0.19571E-01   768   0.379E-01 0.505E-04
CGA:   4    -0.663243514215E+03   -0.47930E-02   -0.47936E-02   768   0.124E-01 0.711E-05
CGA:   5    -0.663245318946E+03   -0.18047E-02   -0.18044E-02   768   0.274E-02-0.186E-05
CGA:   6    -0.663245845045E+03   -0.52610E-03   -0.52610E-03   768   0.119E-02-0.476E-07
CGA:   7    -0.663246030341E+03   -0.18530E-03   -0.18529E-03   768   0.401E-03-0.291E-06
CGA:   8    -0.663246107586E+03   -0.77245E-04   -0.77242E-04   768   0.249E-03 0.341E-06
  99 F= -.66981595E+03 E0= -.66980789E+03  d E =-.308892E-02  mag=     0.9586
       N       E                     dE             d eps       ncg     rms          ort
SDA:   1    -0.663208389078E+03    0.37641E-01    0.00000E+00   768   0.102E+00 0.000E+00
CGA:   2    -0.663238164427E+03   -0.29775E-01   -0.29778E-01   768   0.360E-01-0.179E-04
CGA:   3    -0.663244627684E+03   -0.64633E-02   -0.64634E-02   768   0.163E-01 0.420E-05
CGA:   4    -0.663246559284E+03   -0.19316E-02   -0.19324E-02   768   0.431E-02 0.528E-05
CGA:   5    -0.663247285950E+03   -0.72667E-03   -0.72664E-03   768   0.979E-03-0.102E-05
CGA:   6    -0.663247474824E+03   -0.18887E-03   -0.18888E-03   768   0.464E-03-0.364E-06
CGA:   7    -0.663247545422E+03   -0.70599E-04   -0.70587E-04   768   0.166E-03-0.339E-06
 100 F= -.66981750E+03 E0= -.66980943E+03  d E =-.154484E-02  mag=     0.9587
       N       E                     dE             d eps       ncg     rms          ort
SDA:   1    -0.663034483050E+03    0.21299E+00    0.00000E+00   768   0.553E+00 0.000E+00
CGA:   2    -0.663198275968E+03   -0.16379E+00   -0.16382E+00   768   0.184E+00-0.242E-03
CGA:   3    -0.663235266624E+03   -0.36991E-01   -0.36987E-01   768   0.614E-01 0.151E-03
CGA:   4    -0.663243892886E+03   -0.86263E-02   -0.86271E-02   768   0.234E-01 0.151E-04
CGA:   5    -0.663246893050E+03   -0.30002E-02   -0.29992E-02   768   0.503E-02-0.162E-05
CGA:   6    -0.663247950416E+03   -0.10574E-02   -0.10574E-02   768   0.187E-02-0.187E-05
CGA:   7    -0.663248255094E+03   -0.30468E-03   -0.30468E-03   768   0.788E-03-0.661E-07
CGA:   8    -0.663248400428E+03   -0.14533E-03   -0.14533E-03   768   0.437E-03 0.828E-06
CGA:   9    -0.663248479897E+03   -0.79469E-04   -0.79475E-04   768   0.203E-03 0.180E-05
 101 F= -.66981868E+03 E0= -.66981063E+03  d E =-.272230E-02  mag=     0.9592
       N       E                     dE             d eps       ncg     rms          ort
SDA:   1    -0.663218697784E+03    0.29703E-01    0.00000E+00   768   0.796E-01 0.000E+00
CGA:   2    -0.663242078784E+03   -0.23381E-01   -0.23378E-01   768   0.281E-01 0.237E-04
CGA:   3    -0.663247110245E+03   -0.50315E-02   -0.50315E-02   768   0.128E-01 0.397E-05
CGA:   4    -0.663248647336E+03   -0.15371E-02   -0.15378E-02   768   0.327E-02 0.503E-05
CGA:   5    -0.663249168968E+03   -0.52163E-03   -0.52155E-03   768   0.818E-03-0.274E-05
CGA:   6    -0.663249321788E+03   -0.15282E-03   -0.15282E-03   768   0.335E-03-0.162E-05
CGA:   7    -0.663249377764E+03   -0.55976E-04   -0.55956E-04   768   0.134E-03-0.105E-05
 102 F= -.66981963E+03 E0= -.66981157E+03  d E =-.950552E-03  mag=     0.9598
       N       E                     dE             d eps       ncg     rms          ort
SDA:   1    -0.663095180684E+03    0.15414E+00    0.00000E+00   768   0.401E+00 0.000E+00
CGA:   2    -0.663212380939E+03   -0.11720E+00   -0.11716E+00   768   0.150E+00 0.340E-03
CGA:   3    -0.663237125256E+03   -0.24744E-01   -0.24742E-01   768   0.729E-01-0.395E-04
CGA:   4    -0.663245862683E+03   -0.87374E-02   -0.87455E-02   768   0.172E-01 0.667E-05
CGA:   5    -0.663248870340E+03   -0.30077E-02   -0.30076E-02   768   0.344E-02-0.539E-05
CGA:   6    -0.663249612386E+03   -0.74205E-03   -0.74218E-03   768   0.157E-02-0.428E-05
CGA:   7    -0.663249826012E+03   -0.21363E-03   -0.21351E-03   768   0.596E-03-0.211E-05
CGA:   8    -0.663249940595E+03   -0.11458E-03   -0.11459E-03   768   0.290E-03-0.353E-06
CGA:   9    -0.663249999317E+03   -0.58722E-04   -0.58692E-04   768   0.142E-03 0.167E-05
 103 F= -.66982036E+03 E0= -.66981231E+03  d E =-.168809E-02  mag=     0.9616
       N       E                     dE             d eps       ncg     rms          ort
SDA:   1    -0.663200366156E+03    0.49574E-01    0.00000E+00   768   0.132E+00 0.000E+00
CGA:   2    -0.663239232204E+03   -0.38866E-01   -0.38869E-01   768   0.488E-01-0.215E-04
CGA:   3    -0.663247480524E+03   -0.82483E-02   -0.82485E-02   768   0.230E-01 0.632E-05
CGA:   4    -0.663250244566E+03   -0.27640E-02   -0.27656E-02   768   0.542E-02 0.826E-05
CGA:   5    -0.663251155759E+03   -0.91119E-03   -0.91113E-03   768   0.131E-02-0.255E-05
CGA:   6    -0.663251400024E+03   -0.24427E-03   -0.24427E-03   768   0.565E-03-0.138E-05
CGA:   7    -0.663251489155E+03   -0.89130E-04   -0.89095E-04   768   0.212E-03-0.120E-05
 104 F= -.66982194E+03 E0= -.66981386E+03  d E =-.157390E-02  mag=     0.9621
       N       E                     dE             d eps       ncg     rms          ort
SDA:   1    -0.662950835531E+03    0.30056E+00    0.00000E+00   768   0.780E+00 0.000E+00
CGA:   2    -0.663178871888E+03   -0.22804E+00   -0.22807E+00   768   0.303E+00-0.235E-03
CGA:   3    -0.663226735839E+03   -0.47864E-01   -0.47854E-01   768   0.146E+00-0.752E-04
CGA:   4    -0.663244590591E+03   -0.17855E-01   -0.17875E-01   768   0.331E-01 0.218E-04
CGA:   5    -0.663250483694E+03   -0.58931E-02   -0.58930E-02   768   0.682E-02-0.858E-05
CGA:   6    -0.663251916276E+03   -0.14326E-02   -0.14327E-02   768   0.316E-02-0.522E-05
CGA:   7    -0.663252348279E+03   -0.43200E-03   -0.43185E-03   768   0.117E-02-0.236E-05
CGA:   8    -0.663252572249E+03   -0.22397E-03   -0.22397E-03   768   0.573E-03 0.777E-07
CGA:   9    -0.663252689428E+03   -0.11718E-03   -0.11712E-03   768   0.275E-03 0.281E-05
CGA:  10    -0.663252747877E+03   -0.58449E-04   -0.58445E-04   768   0.178E-03 0.162E-06
 105 F= -.66982339E+03 E0= -.66981525E+03  d E =-.303119E-02  mag=     0.9630
       N       E                     dE             d eps       ncg     rms          ort
SDA:   1    -0.663175008487E+03    0.77681E-01    0.00000E+00   768   0.205E+00 0.000E+00
CGA:   2    -0.663234609285E+03   -0.59601E-01   -0.59612E-01   768   0.822E-01-0.849E-04
CGA:   3    -0.663246985788E+03   -0.12377E-01   -0.12374E-01   768   0.402E-01-0.142E-04
CGA:   4    -0.663252030326E+03   -0.50445E-02   -0.50478E-02   768   0.825E-02 0.158E-04
CGA:   5    -0.663253518176E+03   -0.14879E-02   -0.14878E-02   768   0.179E-02-0.295E-05
CGA:   6    -0.663253888052E+03   -0.36988E-03   -0.36991E-03   768   0.798E-03-0.159E-05
CGA:   7    -0.663253999471E+03   -0.11142E-03   -0.11137E-03   768   0.304E-03-0.106E-05
CGA:   8    -0.663254053738E+03   -0.54268E-04   -0.54268E-04   768   0.140E-03-0.263E-07
 106 F= -.66982481E+03 E0= -.66981664E+03  d E =-.141897E-02  mag=     0.9632
       N       E                     dE             d eps       ncg     rms          ort
SDA:   1    -0.663094617682E+03    0.15938E+00    0.00000E+00   768   0.415E+00 0.000E+00
CGA:   2    -0.663215109484E+03   -0.12049E+00   -0.12053E+00   768   0.165E+00-0.262E-03
CGA:   3    -0.663240550490E+03   -0.25441E-01   -0.25434E-01   768   0.802E-01-0.373E-04
CGA:   4    -0.663250428088E+03   -0.98776E-02   -0.98859E-02   768   0.169E-01 0.203E-04
CGA:   5    -0.663253523414E+03   -0.30953E-02   -0.30953E-02   768   0.368E-02-0.538E-05
CGA:   6    -0.663254251363E+03   -0.72795E-03   -0.72798E-03   768   0.175E-02-0.231E-05
CGA:   7    -0.663254496625E+03   -0.24526E-03   -0.24518E-03   768   0.595E-03-0.162E-05
CGA:   8    -0.663254606838E+03   -0.11021E-03   -0.11021E-03   768   0.311E-03 0.361E-07
CGA:   9    -0.663254668264E+03   -0.61426E-04   -0.61398E-04   768   0.134E-03 0.199E-05
 107 F= -.66982559E+03 E0= -.66981738E+03  d E =-.219112E-02  mag=     0.9632
       N       E                     dE             d eps       ncg     rms          ort
SDA:   1    -0.663181714489E+03    0.72892E-01    0.00000E+00   768   0.192E+00 0.000E+00
CGA:   2    -0.663238050578E+03   -0.56336E-01   -0.56325E-01   768   0.735E-01 0.105E-03
CGA:   3    -0.663249879245E+03   -0.11829E-01   -0.11827E-01   768   0.359E-01-0.976E-05
CGA:   4    -0.663254190077E+03   -0.43108E-02   -0.43137E-02   768   0.779E-02 0.902E-05
CGA:   5    -0.663255576616E+03   -0.13865E-02   -0.13865E-02   768   0.168E-02-0.581E-05
CGA:   6    -0.663255918086E+03   -0.34147E-03   -0.34153E-03   768   0.766E-03-0.331E-05
CGA:   7    -0.663256025215E+03   -0.10713E-03   -0.10704E-03   768   0.276E-03-0.179E-05
CGA:   8    -0.663256075246E+03   -0.50030E-04   -0.50029E-04   768   0.138E-03-0.428E-06
 108 F= -.66982705E+03 E0= -.66981885E+03  d E =-.146680E-02  mag=     0.9642
       N       E                     dE             d eps       ncg     rms          ort
SDA:   1    -0.663223987595E+03    0.32038E-01    0.00000E+00   768   0.841E-01 0.000E+00
CGA:   2    -0.663248084298E+03   -0.24097E-01   -0.24094E-01   768   0.371E-01 0.296E-04
CGA:   3    -0.663253195636E+03   -0.51113E-02   -0.51096E-02   768   0.173E-01-0.306E-05
CGA:   4    -0.663255510921E+03   -0.23153E-02   -0.23162E-02   768   0.335E-02 0.106E-04
CGA:   5    -0.663256153556E+03   -0.64263E-03   -0.64266E-03   768   0.767E-03-0.342E-05
CGA:   6    -0.663256302323E+03   -0.14877E-03   -0.14878E-03   768   0.391E-03-0.194E-05
CGA:   7    -0.663256356596E+03   -0.54273E-04   -0.54212E-04   768   0.130E-03-0.126E-05
 109 F= -.66982737E+03 E0= -.66981917E+03  d E =-.178690E-02  mag=     0.9650
       N       E                     dE             d eps       ncg     rms          ort
SDA:   1    -0.663238392276E+03    0.17910E-01    0.00000E+00   768   0.481E-01 0.000E+00
CGA:   2    -0.663252677783E+03   -0.14286E-01   -0.14285E-01   768   0.165E-01 0.916E-06
CGA:   3    -0.663255929705E+03   -0.32519E-02   -0.32519E-02   768   0.500E-02 0.193E-05
CGA:   4    -0.663256705018E+03   -0.77531E-03   -0.77534E-03   768   0.177E-02 0.176E-05
CGA:   5    -0.663256944417E+03   -0.23940E-03   -0.23930E-03   768   0.420E-03-0.214E-05
CGA:   6    -0.663257027220E+03   -0.82802E-04   -0.82814E-04   768   0.201E-03-0.100E-05
 110 F= -.66982812E+03 E0= -.66981993E+03  d E =-.742798E-03  mag=     0.9651
       N       E                     dE             d eps       ncg     rms          ort
SDA:   1    -0.663126910899E+03    0.13003E+00    0.00000E+00   768   0.337E+00 0.000E+00
CGA:   2    -0.663226880646E+03   -0.99970E-01   -0.99974E-01   768   0.118E+00-0.206E-04
CGA:   3    -0.663248861295E+03   -0.21981E-01   -0.21981E-01   768   0.452E-01 0.536E-04
CGA:   4    -0.663254607363E+03   -0.57461E-02   -0.57478E-02   768   0.150E-01 0.833E-05
CGA:   5    -0.663256740515E+03   -0.21332E-02   -0.21327E-02   768   0.309E-02-0.377E-05
CGA:   6    -0.663257360450E+03   -0.61993E-03   -0.61998E-03   768   0.124E-02-0.234E-05
CGA:   7    -0.663257554707E+03   -0.19426E-03   -0.19423E-03   768   0.466E-03-0.104E-05
CGA:   8    -0.663257636423E+03   -0.81716E-04   -0.81715E-04   768   0.251E-03-0.127E-06
 111 F= -.66982891E+03 E0= -.66982077E+03  d E =-.153782E-02  mag=     0.9653
