 vasp.5.4.4.18Apr17-6-g9f103f2a35 (build Jan 14 2022 15:04:31) complex          
  
 executed on             LinuxIFC date 2023.04.05  11:31:13
 running on   48 total cores
 distrk:  each k-point on   48 cores,    1 groups
 distr:  one band on NCORES_PER_BAND=  12 cores,    4 groups


--------------------------------------------------------------------------------------------------------


 INCAR:
 POTCAR:    PAW_PBE C 08Apr2002                   
 POTCAR:    PAW_PBE N 08Apr2002                   
 POTCAR:    PAW_PBE Ge_d 03Jul2007                
 POTCAR:    PAW_PBE C 08Apr2002                   
   SHA256 =  253f7b50bb8d59471dbedb8285d89021f4a42ed1a2c5d38a03a736e69125dd95 C/
   COPYR  = (c) Copyright 08Apr2002 Georg Kresse                                
   COPYR  = This file is part of the software VASP. Any use, copying, and all ot
   COPYR  = If you do not have a valid VASP license, you may not use, copy or di
   VRHFIN =C: s2p2                                                              
   LEXCH  = PE                                                                  
   EATOM  =   147.1560 eV,   10.8157 Ry                                         
                                                                                
   TITEL  = PAW_PBE C 08Apr2002                                                 
   LULTRA =        F    use ultrasoft PP ?                                      
   IUNSCR =        1    unscreen: 0-lin 1-nonlin 2-no                           
   RPACOR =    1.200    partial core radius                                     
   POMASS =   12.011; ZVAL   =    4.000    mass and valenz                      
   RCORE  =    1.500    outmost cutoff radius                                   
   RWIGS  =    1.630; RWIGS  =    0.863    wigner-seitz radius (au A)           
   ENMAX  =  400.000; ENMIN  =  300.000 eV                                      
   ICORE  =        2    local potential                                         
   LCOR   =        T    correct aug charges                                     
   LPAW   =        T    paw PP                                                  
   EAUG   =  644.873                                                            
   DEXC   =    0.000                                                            
   RMAX   =    1.529    core radius for proj-oper                               
   RAUG   =    1.300    factor for augmentation sphere                          
   RDEP   =    1.501    radius for radial grids                                 
   RDEPT  =    1.300    core radius for aug-charge                              
                                                                                
   Atomic configuration                                                         
    4 entries                                                                   
     n  l   j            E        occ.                                          
     1  0  0.50      -273.3789   2.0000                                         
     2  0  0.50       -13.7508   2.0000                                         
     2  1  0.50        -5.2854   2.0000                                         
     3  2  1.50        -5.4423   0.0000                                         
   Description                                                                  
     l       E           TYP  RCUT    TYP  RCUT                                 
     0    -13.7508458     23  1.200                                             
     0     -8.2022199     23  1.200                                             
     1     -5.2854383     23  1.500                                             
     1     34.0145650     23  1.500                                             
     2     -5.4423304      7  1.500                                             
  local pseudopotential read in
  partial core-charges read in
  partial kinetic energy density read in
  atomic valenz-charges read in
  non local Contribution for L=           0  read in
    real space projection operators read in
  non local Contribution for L=           0  read in
    real space projection operators read in
  non local Contribution for L=           1  read in
    real space projection operators read in
  non local Contribution for L=           1  read in
    real space projection operators read in
    PAW grid and wavefunctions read in
 
   number of l-projection  operators is LMAX  =           4
   number of lm-projection operators is LMMAX =           8
 
 POTCAR:    PAW_PBE N 08Apr2002                   
   SHA256 =  e053789ff3a61a86a1b75d8a110fcc91f86041011e7b0817c7c99e4e8a6349d7 N/
   COPYR  = (c) Copyright 08Apr2002 Georg Kresse                                
   COPYR  = This file is part of the software VASP. Any use, copying, and all ot
   COPYR  = If you do not have a valid VASP license, you may not use, copy or di
   VRHFIN =N: s2p3                                                              
   LEXCH  = PE                                                                  
   EATOM  =   264.5486 eV,   19.4438 Ry                                         
                                                                                
   TITEL  = PAW_PBE N 08Apr2002                                                 
   LULTRA =        F    use ultrasoft PP ?                                      
   IUNSCR =        1    unscreen: 0-lin 1-nonlin 2-no                           
   RPACOR =    1.200    partial core radius                                     
   POMASS =   14.001; ZVAL   =    5.000    mass and valenz                      
   RCORE  =    1.500    outmost cutoff radius                                   
   RWIGS  =    1.400; RWIGS  =    0.741    wigner-seitz radius (au A)           
   ENMAX  =  400.000; ENMIN  =  300.000 eV                                      
   ICORE  =        2    local potential                                         
   LCOR   =        T    correct aug charges                                     
   LPAW   =        T    paw PP                                                  
   EAUG   =  627.112                                                            
   DEXC   =    0.000                                                            
   RMAX   =    1.529    core radius for proj-oper                               
   RAUG   =    1.300    factor for augmentation sphere                          
   RDEP   =    1.514    radius for radial grids                                 
   RDEPT  =    1.338    core radius for aug-charge                              
                                                                                
   Atomic configuration                                                         
    4 entries                                                                   
     n  l   j            E        occ.                                          
     1  0  0.50      -384.7179   2.0000                                         
     2  0  0.50       -18.5828   2.0000                                         
     2  1  0.50        -7.0898   3.0000                                         
     3  2  1.50        -6.8029   0.0000                                         
   Description                                                                  
     l       E           TYP  RCUT    TYP  RCUT                                 
     0    -18.5828119     23  1.200                                             
     0    -13.5018863     23  1.200                                             
     1     -7.0897853     23  1.500                                             
     1      9.5240782     23  1.500                                             
     2     -6.8029130      7  1.500                                             
  local pseudopotential read in
  partial core-charges read in
  partial kinetic energy density read in
  atomic valenz-charges read in
  non local Contribution for L=           0  read in
    real space projection operators read in
  non local Contribution for L=           0  read in
    real space projection operators read in
  non local Contribution for L=           1  read in
    real space projection operators read in
  non local Contribution for L=           1  read in
    real space projection operators read in
    PAW grid and wavefunctions read in
 
   number of l-projection  operators is LMAX  =           4
   number of lm-projection operators is LMMAX =           8
 
 POTCAR:    PAW_PBE Ge_d 03Jul2007                
   SHA256 =  944b26c40d2d7c4f4eb1ff3a2e8dbfdd7129146276cd341854bfd5c0e57780ed Ge
   COPYR  = (c) Copyright 03Jul2007 Georg Kresse                                
   COPYR  = This file is part of the software VASP. Any use, copying, and all ot
   COPYR  = If you do not have a valid VASP license, you may not use, copy or di
   VRHFIN =Ge: 3d4s4p                                                           
   LEXCH  = PE                                                                  
   EATOM  =  2596.2402 eV,  190.8183 Ry                                         
                                                                                
   TITEL  = PAW_PBE Ge_d 03Jul2007                                              
   LULTRA =        F    use ultrasoft PP ?                                      
   IUNSCR =        1    unscreen: 0-lin 1-nonlin 2-no                           
   RPACOR =    2.000    partial core radius                                     
   POMASS =   72.610; ZVAL   =   14.000    mass and valenz                      
   RCORE  =    2.300    outmost cutoff radius                                   
   RWIGS  =    2.300; RWIGS  =    1.217    wigner-seitz radius (au A)           
   ENMAX  =  310.294; ENMIN  =  232.720 eV                                      
   ICORE  =        3    local potential                                         
   LCOR   =        T    correct aug charges                                     
   LPAW   =        T    paw PP                                                  
   EAUG   =  531.356                                                            
   DEXC   =    0.000                                                            
   RMAX   =    2.342    core radius for proj-oper                               
   RAUG   =    1.300    factor for augmentation sphere                          
   RDEP   =    2.318    radius for radial grids                                 
   RDEPT  =    1.783    core radius for aug-charge                              
                                                                                
   Atomic configuration                                                         
    9 entries                                                                   
     n  l   j            E        occ.                                          
     1  0  0.50    -10959.8463   2.0000                                         
     2  0  0.50     -1371.6056   2.0000                                         
     2  1  1.50     -1198.4791   6.0000                                         
     3  0  0.50      -168.4733   2.0000                                         
     3  1  1.50      -115.6019   6.0000                                         
     3  2  2.50       -29.3106  10.0000                                         
     4  0  0.50       -11.7309   2.0000                                         
     4  1  0.50        -3.8952   2.0000                                         
     4  3  2.50        -4.0817   0.0000                                         
   Description                                                                  
     l       E           TYP  RCUT    TYP  RCUT                                 
     2    -29.3105938     23  2.200                                             
     2    -13.6058260     23  2.200                                             
     0    -11.7309493     23  2.300                                             
     0     -7.4578696     23  2.300                                             
     1     -3.8952261     23  2.300                                             
     1      6.1178114     23  2.300                                             
     3     -1.3605826     23  2.300                                             
  local pseudopotential read in
  partial core-charges read in
  partial kinetic energy density read in
  atomic valenz-charges read in
  non local Contribution for L=           2  read in
    real space projection operators read in
  non local Contribution for L=           2  read in
    real space projection operators read in
  non local Contribution for L=           0  read in
    real space projection operators read in
  non local Contribution for L=           0  read in
    real space projection operators read in
  non local Contribution for L=           1  read in
    real space projection operators read in
  non local Contribution for L=           1  read in
    real space projection operators read in
    PAW grid and wavefunctions read in
 
   number of l-projection  operators is LMAX  =           6
   number of lm-projection operators is LMMAX =          18
 

 ----------------------------------------------------------------------------- 
|                                                                             |
|  ADVICE TO THIS USER RUNNING 'VASP/VAMP'   (HEAR YOUR MASTER'S VOICE ...):  |
|                                                                             |
|      You have a (more or less) 'large supercell' and for larger cells       |
|      it might be more efficient to use real space projection opertators     |
|      So try LREAL= Auto  in the INCAR   file.                               |
|      Mind:          For very  accurate calculation you might also keep the  |
|      reciprocal projection scheme          (i.e. LREAL=.FALSE.)             |
|                                                                             |
 ----------------------------------------------------------------------------- 

  PAW_PBE C 08Apr2002                   :
 energy of atom  1       EATOM= -147.1560
 kinetic energy error for atom=    0.0132 (will be added to EATOM!!)
  PAW_PBE N 08Apr2002                   :
 energy of atom  2       EATOM= -264.5486
 kinetic energy error for atom=    0.0298 (will be added to EATOM!!)
  PAW_PBE Ge_d 03Jul2007                :
 energy of atom  3       EATOM=-2596.2402
 kinetic energy error for atom=    0.0090 (will be added to EATOM!!)
 
 
 POSCAR: POSCAR-c3n4                             
  positions in cartesian coordinates
  No initial velocities read in
 exchange correlation table for  LEXCH =        8
   RHO(1)=    0.500       N(1)  =     2000
   RHO(2)=  100.500       N(2)  =     4000

 VTST: version 3.2, (02/03/18)

 CHAIN: initializing optimizer
 
 OPT: Using VASP Dynamics algorithm
 CHAIN: Read ICHAIN            0
 
 POSCAR: POSCAR-c3n4                             
  positions in cartesian coordinates
  No initial velocities read in
 


--------------------------------------------------------------------------------------------------------


 ion  position               nearest neighbor table
   1  0.106  0.214  0.426-  26 1.21  46 1.21  25 1.27   6 2.03  16 2.03
   2  0.288  0.399  0.433-  29 1.19  35 1.25  25 1.29   5 2.06
   3  0.104  0.392  0.427-  44 1.19  39 1.24  25 1.29  17 2.05
   4  0.447  0.064  0.506-  30 1.19  27 1.20  48 1.27  13 2.04   8 2.04
   5  0.453  0.401  0.413-  28 1.20  29 1.21  56 1.28  15 2.04   2 2.06
   6  0.112  0.053  0.449-  26 1.19  31 1.20  32 1.26   9 2.02   1 2.03
   7  0.096  0.712  0.484-  54 1.20  34 1.22  33 1.26  12 2.02  22 2.05
   8  0.284  0.890  0.501-  27 1.20  37 1.22  33 1.27   4 2.04  11 2.05
   9  0.109  0.895  0.498-  31 1.19  52 1.21  33 1.29   6 2.02  23 2.03
  10  0.448  0.548  0.502-  38 1.19  56 1.22  35 1.22  19 2.02  57 2.46
  11  0.445  0.885  0.489-  37 1.20  36 1.20  48 1.25  21 2.05   8 2.05
  12  0.087  0.542  0.481-  34 1.19  40 1.21  39 1.22   7 2.02  57 2.46
  13  0.616  0.223  0.473-  42 1.21  30 1.22  41 1.26   4 2.04  18 2.04
  14  0.780  0.390  0.400-  45 1.21  51 1.23  41 1.26  17 2.02  22 2.02
  15  0.610  0.394  0.435-  28 1.21  55 1.21  41 1.31  24 2.03   5 2.04
  16  0.940  0.052  0.461-  46 1.19  43 1.20  32 1.26  20 2.02   1 2.03
  17  0.941  0.387  0.394-  45 1.19  44 1.21  40 1.28  14 2.02   3 2.05
  18  0.623  0.066  0.512-  42 1.20  47 1.21  48 1.27  13 2.04  21 2.04
  19  0.613  0.711  0.531-  50 1.19  38 1.23  49 1.27  10 2.02  24 2.05
  20  0.790  0.897  0.523-  43 1.19  53 1.21  49 1.30  16 2.02  23 2.03
  21  0.609  0.892  0.521-  47 1.20  36 1.21  49 1.29  18 2.04  11 2.05
  22  0.938  0.563  0.421-  51 1.18  54 1.21  40 1.28  14 2.02   7 2.05
  23  0.954  0.902  0.535-  52 1.21  53 1.21  32 1.26  20 2.03   9 2.03
  24  0.621  0.555  0.490-  55 1.19  50 1.20  56 1.27  15 2.03  19 2.05
  25  0.167  0.335  0.425-   1 1.27   3 1.29   2 1.29
  26  0.165  0.161  0.421-   6 1.19   1 1.21
  27  0.336  0.002  0.522-   8 1.20   4 1.20
  28  0.512  0.352  0.392-   5 1.20  15 1.21
  29  0.345  0.361  0.390-   2 1.19   5 1.21
  30  0.506  0.177  0.493-   4 1.19  13 1.22
  31  0.159  0.988  0.447-   9 1.19   6 1.20
  32  0.002  0.002  0.483-  16 1.26  23 1.26   6 1.26
  33  0.165  0.831  0.500-   7 1.26   8 1.27   9 1.29
  34  0.134  0.645  0.518-  12 1.19   7 1.22
  35  0.334  0.491  0.492-  10 1.22   2 1.25  57 1.86
  36  0.503  0.831  0.490-  11 1.20  21 1.21
  37  0.333  0.829  0.479-  11 1.20   8 1.22
  38  0.499  0.648  0.545-  10 1.19  19 1.23
  39  0.142  0.484  0.485-  12 1.22   3 1.24  57 1.87
  40  0.988  0.496  0.436-  12 1.21  22 1.28  17 1.28
  41  0.667  0.330  0.429-  13 1.26  14 1.26  15 1.31
  42  0.680  0.178  0.495-  18 1.20  13 1.21
  43  0.827  0.986  0.468-  20 1.19  16 1.20
  44  0.011  0.348  0.379-   3 1.19  17 1.21
  45  0.830  0.330  0.380-  17 1.19  14 1.21
  46  0.993  0.161  0.435-  16 1.19   1 1.21
  47  0.669  0.005  0.539-  21 1.20  18 1.21
  48  0.505  0.004  0.498-  11 1.25  18 1.27   4 1.27
  49  0.668  0.832  0.534-  19 1.27  21 1.29  20 1.30
  50  0.675  0.666  0.512-  19 1.19  24 1.20
  51  0.832  0.507  0.396-  22 1.18  14 1.23
  52  0.016  0.853  0.549-  23 1.21   9 1.21
  53  0.849  0.860  0.566-  20 1.21  23 1.21
  54  0.004  0.677  0.435-   7 1.20  22 1.21
  55  0.668  0.491  0.484-  24 1.19  15 1.21
  56  0.506  0.502  0.467-  10 1.22  24 1.27   5 1.28
  57  0.287  0.593  0.558-  35 1.86  39 1.87  10 2.46  12 2.46
 

IMPORTANT INFORMATION: All symmetrisations will be switched off!
NOSYMM: (Re-)initialisation of all symmetry stuff for point group C_1.

 
 
 KPOINTS: K-Points                                

Automatic generation of k-mesh.
Space group operators:
 irot       det(A)        alpha          n_x          n_y          n_z        tau_x        tau_y        tau_z
    1     1.000000     0.000000     1.000000     0.000000     0.000000     0.000000     0.000000     0.000000
 
 Subroutine IBZKPT returns following result:
 ===========================================
 
 Found      5 irreducible k-points:
 
 Following reciprocal coordinates:
            Coordinates               Weight
  0.000000  0.000000  0.000000      1.000000
  0.333333  0.000000  0.000000      2.000000
  0.000000  0.333333  0.000000      2.000000
  0.333333  0.333333  0.000000      2.000000
 -0.333333  0.333333  0.000000      2.000000
 
 Following cartesian coordinates:
            Coordinates               Weight
  0.000000  0.000000  0.000000      1.000000
  0.024277  0.014368  0.000000      2.000000
  0.000396  0.028736  0.000000      2.000000
  0.024673  0.043104  0.000000      2.000000
 -0.023881  0.014368  0.000000      2.000000
 
 TETIRR: Found     24 inequivalent tetrahedra from       54


--------------------------------------------------------------------------------------------------------




 Dimension of arrays:
   k-points           NKPTS =      5   k-points in BZ     NKDIM =      5   number of bands    NBANDS=    168
   number of dos      NEDOS =   4000   number of ions     NIONS =     57
   non local maximal  LDIM  =      6   non local SUM 2l+1 LMDIM =     18
   total plane-waves  NPLWV = 286720
   max r-space proj   IRMAX =      1   max aug-charges    IRDMAX=   5690
   dimension x,y,z NGX =    64 NGY =   64 NGZ =   70
   dimension x,y,z NGXF=   128 NGYF=  128 NGZF=  140
   support grid    NGXF=   128 NGYF=  128 NGZF=  140
   ions per type =              24  32   1
   NGX,Y,Z   is equivalent  to a cutoff of   8.54,  8.70,  8.62 a.u.
   NGXF,Y,Z  is equivalent  to a cutoff of  17.08, 17.40, 17.24 a.u.

 SYSTEM =  unknown system                          
 POSCAR =  POSCAR-c3n4                             

 Startparameter for this run:
   NWRITE =      2    write-flag & timer
   PREC   = normal    normal or accurate (medium, high low for compatibility)
   ISTART =      0    job   : 0-new  1-cont  2-samecut
   ICHARG =      2    charge: 1-file 2-atom 10-const
   ISPIN  =      2    spin polarized calculation?
   LNONCOLLINEAR =      F non collinear calculations
   LSORBIT =      F    spin-orbit coupling
   INIWAV =      1    electr: 0-lowe 1-rand  2-diag
   LASPH  =      F    aspherical Exc in radial PAW
   METAGGA=      F    non-selfconsistent MetaGGA calc.

 Electronic Relaxation 1
   ENCUT  =  440.0 eV  32.34 Ry    5.69 a.u.  21.31 20.92 23.09*2*pi/ulx,y,z
   ENINI  =  440.0     initial cutoff
   ENAUG  =  644.9 eV  augmentation charge cutoff
   NELM   =    100;   NELMIN=  2; NELMDL= -5     # of ELM steps 
   EDIFF  = 0.1E-03   stopping-criterion for ELM
   LREAL  =      F    real-space projection
   NLSPLINE    = F    spline interpolate recip. space projectors
   LCOMPAT=      F    compatible to vasp.4.4
   GGA_COMPAT  = T    GGA compatible to vasp.4.4-vasp.4.6
   LMAXPAW     = -100 max onsite density
   LMAXMIX     =    2 max onsite mixed and CHGCAR
   VOSKOWN=      0    Vosko Wilk Nusair interpolation
   ROPT   =    0.00000   0.00000   0.00000
 Ionic relaxation
   EDIFFG = -.1E-01   stopping-criterion for IOM
   NSW    =      0    number of steps for IOM
   NBLOCK =      1;   KBLOCK =      1    inner block; outer block 
   IBRION =     -1    ionic relax: 0-MD 1-quasi-New 2-CG
   NFREE  =      0    steps in history (QN), initial steepest desc. (CG)
   ISIF   =      2    stress and relaxation
   IWAVPR =     10    prediction:  0-non 1-charg 2-wave 3-comb
   ISYM   =      0    0-nonsym 1-usesym 2-fastsym
   LCORR  =      T    Harris-Foulkes like correction to forces

   POTIM  = 0.5000    time-step for ionic-motion
   TEIN   =    0.0    initial temperature
   TEBEG  =    0.0;   TEEND  =   0.0 temperature during run
   SMASS  =  -3.00    Nose mass-parameter (am)
   estimated Nose-frequenzy (Omega)   =  0.10E-29 period in steps =****** mass=  -0.355E-26a.u.
   SCALEE = 1.0000    scale energy and forces
   NPACO  =    256;   APACO  = 16.0  distance and # of slots for P.C.
   PSTRESS=    0.0 pullay stress

  Mass of Ions in am
   POMASS =  12.01 14.00 72.61
  Ionic Valenz
   ZVAL   =   4.00  5.00 14.00
  Atomic Wigner-Seitz radii
   RWIGS  =  -1.00 -1.00 -1.00
  virtual crystal weights 
   VCA    =   1.00  1.00  1.00
   NELECT =     270.0000    total number of electrons
   NUPDOWN=      -1.0000    fix difference up-down

 DOS related values:
   EMIN   = -14.00;   EMAX   =  6.00  energy-range for DOS
   EFERMI =   0.00
   ISMEAR =    -5;   SIGMA  =   0.20  broadening in eV -4-tet -1-fermi 0-gaus

 Electronic relaxation 2 (details)
   IALGO  =     38    algorithm
   LDIAG  =      T    sub-space diagonalisation (order eigenvalues)
   LSUBROT=      F    optimize rotation matrix (better conditioning)
   TURBO    =      0    0=normal 1=particle mesh
   IRESTART =      0    0=no restart 2=restart with 2 vectors
   NREBOOT  =      0    no. of reboots
   NMIN     =      0    reboot dimension
   EREF     =   0.00    reference energy to select bands
   IMIX   =      4    mixing-type and parameters
     AMIX     =   0.25;   BMIX     =  0.00
     AMIX_MAG =   1.00;   BMIX_MAG =  0.00
     AMIN     =   0.10
     WC   =   100.;   INIMIX=   1;  MIXPRE=   1;  MAXMIX= -45

 Intra band minimization:
   WEIMIN = 0.0000     energy-eigenvalue tresh-hold
   EBREAK =  0.15E-06  absolut break condition
   DEPER  =   0.30     relativ break condition  

   TIME   =   0.40     timestep for ELM

  volume/ion in A,a.u.               =      30.81       207.89
  Fermi-wavevector in a.u.,A,eV,Ry     =   0.877051  1.657386 10.465854  0.769219
  Thomas-Fermi vector in A             =   1.996946
 
 Write flags
   LWAVE        =      F    write WAVECAR
   LDOWNSAMPLE  =      F    k-point downsampling of WAVECAR
   LCHARG       =      F    write CHGCAR
   LVTOT        =      F    write LOCPOT, total local potential
   LVHAR        =      F    write LOCPOT, Hartree potential only
   LELF         =      F    write electronic localiz. function (ELF)
   LORBIT       =     11    0 simple, 1 ext, 2 COOP (PROOUT), +10 PAW based schemes


 Dipole corrections
   LMONO  =      F    monopole corrections only (constant potential shift)
   LDIPOL =      F    correct potential (dipole corrections)
   IDIPOL =      0    1-x, 2-y, 3-z, 4-all directions 
   EPSILON=  1.0000000 bulk dielectric constant

 Exchange correlation treatment:
   GGA     =    --    GGA type
   LEXCH   =     8    internal setting for exchange type
   VOSKOWN=      0    Vosko Wilk Nusair interpolation
   LHFCALC =     F    Hartree Fock is set to
   LHFONE  =     F    Hartree Fock one center treatment
   AEXX    =    0.0000 exact exchange contribution

 Linear response parameters
   LEPSILON=     F    determine dielectric tensor
   LRPA    =     F    only Hartree local field effects (RPA)
   LNABLA  =     F    use nabla operator in PAW spheres
   LVEL    =     F    velocity operator in full k-point grid
   LINTERFAST=   F  fast interpolation
   KINTER  =     0    interpolate to denser k-point grid
   CSHIFT  =0.1000    complex shift for real part using Kramers Kronig
   OMEGAMAX=  -1.0    maximum frequency
   DEG_THRESHOLD= 0.2000000E-02 threshold for treating states as degnerate
   RTIME   =   -0.100 relaxation time in fs
  (WPLASMAI=    0.000 imaginary part of plasma frequency in eV, 0.658/RTIME)
   DFIELD  = 0.0000000 0.0000000 0.0000000 field for delta impulse in time
 
 Orbital magnetization related:
   ORBITALMAG=     F  switch on orbital magnetization
   LCHIMAG   =     F  perturbation theory with respect to B field
   DQ        =  0.001000  dq finite difference perturbation B field
   LLRAUG    =     F  two centre corrections for induced B field



--------------------------------------------------------------------------------------------------------


 Static calculation
 charge density and potential will be updated during run
 spin polarized calculation
 Variant of blocked Davidson
 Davidson routine will perform the subspace rotation
 perform sub-space diagonalisation
    after iterative eigenvector-optimisation
 modified Broyden-mixing scheme, WC =      100.0
 initial mixing is a Kerker type mixing with AMIX =  0.2500 and BMIX =      0.0001
 Hartree-type preconditioning will be used
 using additional bands           33
 reciprocal scheme for non local part
 use partial core corrections
 calculate Harris-corrections to forces 
   (improved forces if not selfconsistent)
 use gradient corrections 
 use of overlap-Matrix (Vanderbilt PP)
 Fermi weights with tetrahedron method with Bloechl corrections


--------------------------------------------------------------------------------------------------------


  energy-cutoff  :      440.00
  volume of cell :     1755.96
      direct lattice vectors                 reciprocal lattice vectors
    12.459081811 -0.171666427  0.000000000     0.080922633  0.047893460  0.000000000
    -6.229540906 10.525671895  0.000000000     0.001319792  0.095786921  0.000000000
     0.000000000  0.000000000 13.500000000     0.000000000  0.000000000  0.074074074

  length of vectors
    12.460264401 12.230983146 13.500000000     0.094033271  0.095796013  0.074074074


 
 k-points in units of 2pi/SCALE and weight: K-Points                                
   0.00000000  0.00000000  0.00000000       0.111
   0.02427679  0.01436804  0.00000000       0.222
   0.00039594  0.02873608  0.00000000       0.222
   0.02467273  0.04310411  0.00000000       0.222
  -0.02388085  0.01436804  0.00000000       0.222
 
 k-points in reciprocal lattice and weights: K-Points                                
   0.00000000  0.00000000  0.00000000       0.111
   0.33333333  0.00000000  0.00000000       0.222
   0.00000000  0.33333333  0.00000000       0.222
   0.33333333  0.33333333  0.00000000       0.222
  -0.33333333  0.33333333  0.00000000       0.222
 
 position of ions in fractional coordinates (direct lattice) 
   0.10567936  0.21351909  0.42646415
   0.28750403  0.39866334  0.43315811
   0.10379301  0.39177313  0.42728737
   0.44732828  0.06383887  0.50569377
   0.45258916  0.40124889  0.41252546
   0.11203481  0.05273921  0.44868132
   0.09638015  0.71191070  0.48390127
   0.28433946  0.89006364  0.50120122
   0.10941441  0.89537413  0.49812536
   0.44792521  0.54827090  0.50190381
   0.44544784  0.88520183  0.48897001
   0.08690842  0.54210436  0.48067119
   0.61614813  0.22292684  0.47270451
   0.78023735  0.38968276  0.39988272
   0.61037743  0.39432339  0.43546161
   0.93951642  0.05229783  0.46070020
   0.94071854  0.38652888  0.39388003
   0.62278394  0.06558106  0.51203168
   0.61322902  0.71118454  0.53124878
   0.78984871  0.89727295  0.52288011
   0.60944297  0.89248269  0.52132702
   0.93832005  0.56283419  0.42050954
   0.95436023  0.90171878  0.53466451
   0.62130548  0.55465507  0.48986027
   0.16668926  0.33545237  0.42502835
   0.16473950  0.16097029  0.42095206
   0.33626584  0.00180669  0.52215766
   0.51175722  0.35246859  0.39238613
   0.34471728  0.36074551  0.38975287
   0.50565751  0.17673507  0.49315170
   0.15873210  0.98821904  0.44665654
   0.00214731  0.00186372  0.48284181
   0.16462634  0.83083069  0.50025956
   0.13400723  0.64526801  0.51778798
   0.33371346  0.49116238  0.49155062
   0.50288345  0.83078126  0.48972341
   0.33307237  0.82932770  0.47937372
   0.49902190  0.64803204  0.54483375
   0.14173676  0.48364631  0.48511610
   0.98839512  0.49595573  0.43598798
   0.66736443  0.33015381  0.42931770
   0.67970142  0.17802103  0.49523771
   0.82720183  0.98622484  0.46784919
   0.01097216  0.34809993  0.37880244
   0.83047981  0.33016544  0.37952861
   0.99296173  0.16101876  0.43513088
   0.66886761  0.00524437  0.53948092
   0.50484899  0.00388347  0.49830916
   0.66830364  0.83227641  0.53419919
   0.67536455  0.66551462  0.51246466
   0.83211404  0.50666912  0.39574663
   0.01584380  0.85299492  0.54867721
   0.84924332  0.85956436  0.56604968
   0.00424175  0.67726383  0.43455477
   0.66753141  0.49127771  0.48382075
   0.50565566  0.50179634  0.46716125
   0.28676550  0.59288202  0.55779478
 
 position of ions in cartesian coordinates  (Angst):
  -0.01345807  2.22929024  5.75726605
   1.09854661  4.14684471  5.84763453
  -1.14740120  4.10585766  5.76837951
   5.17561280  0.59515572  6.82686584
   3.13924892  4.14571983  5.56909371
   1.06730981  0.53588304  6.05719784
  -3.23406867  7.47679323  6.53266717
  -2.00207929  9.31970628  6.76621651
  -4.21456675  9.40563155  6.72469234
   2.16526088  5.69402589  6.77570141
   0.03547010  9.24087560  6.60109507
  -2.29426224  5.69109342  6.48906102
   6.28790809  2.24068284  6.38151085
   7.29349624  3.96773235  5.39841671
   5.14828859  4.04573735  5.87873177
  11.37972052  0.38918634  6.21945273
   9.31259181  3.90698641  5.31738043
   7.35077616  0.58337358  6.91242764
   3.20991739  7.38042432  7.17185850
   4.25119112  9.30881020  7.05888142
   2.03334237  9.28935903  7.03791480
   8.18440764  5.76313000  5.67687880
   6.27315810  9.32736443  7.21797094
   4.28564939  5.73146002  6.61311360
  -0.01291913  3.50224665  5.73788270
   1.04973195  1.66604018  5.68285279
   4.17830872 -0.03870895  7.04912837
   4.18030763  3.62211717  5.29721282
   2.04758185  3.73791250  5.26166379
   5.19904989  1.77345099  6.65754792
  -4.17849478 10.37442042  6.02986333
   0.01514341  0.01924828  6.51836448
  -3.12460065  8.71679040  6.75350410
  -2.35011642  6.76887479  6.99013769
   1.09804722  5.11252662  6.63593336
   1.09008023  8.65820270  6.61126610
  -1.01655494  8.67205391  6.47154526
   2.18041259  6.73530733  7.35525565
  -1.24698459  5.06637088  6.54906738
   9.22491918  5.05059306  5.88583769
   6.25804137  3.36052664  5.79578897
   7.35946636  1.75710902  6.68570908
   4.16244734 10.23867628  6.31596403
  -2.03179972  3.66210205  5.11383294
   8.29023675  3.33264759  5.12363625
  11.36831843  1.52437244  5.87426682
   8.30080634 -0.05962164  7.28299237
   6.26576266 -0.04578949  6.72717366
   3.14174985  8.64554310  7.21168912
   4.26857159  6.88905113  6.91827289
   7.21106084  5.19018690  5.34257950
  -5.11636759  8.97562483  7.40714237
   5.22610065  8.90170591  7.64167067
  -4.16619447  7.12792872  5.86648940
   5.25639380  5.05643527  6.53158009
   3.17404438  5.19493957  6.30667684
  -0.12054800  6.19125366  7.53022957
 


--------------------------------------------------------------------------------------------------------


 k-point  1 :   0.0000 0.0000 0.0000  plane waves:   36771
 k-point  2 :   0.3333 0.0000 0.0000  plane waves:   36762
 k-point  3 :   0.0000 0.3333 0.0000  plane waves:   36808
 k-point  4 :   0.3333 0.3333 0.0000  plane waves:   36787
 k-point  5 :  -0.3333 0.3333 0.0000  plane waves:   36785

 maximum and minimum number of plane-waves per node :      3089     3039

 maximum number of plane-waves:     36808
 maximum index in each direction: 
   IXMAX=   21   IYMAX=   20   IZMAX=   23
   IXMIN=  -21   IYMIN=  -21   IZMIN=  -23


 parallel 3D FFT for wavefunctions:
    minimum data exchange during FFTs selected (reduces bandwidth)
 parallel 3D FFT for charge:
    minimum data exchange during FFTs selected (reduces bandwidth)


 total amount of memory used by VASP MPI-rank0    70080. kBytes
=======================================================================

   base      :      30000. kBytes
   nonl-proj :       9412. kBytes
   fftplans  :       2626. kBytes
   grid      :       6948. kBytes
   one-center:        155. kBytes
   wavefun   :      20939. kBytes
 
     INWAV:  cpu time    0.0000: real time    0.0000
 Broyden mixing: mesh for mixing (old mesh)
   NGX = 43   NGY = 41   NGZ = 47
  (NGX  =128   NGY  =128   NGZ  =140)
  gives a total of  82861 points

 initial charge density was supplied:
 charge density of overlapping atoms calculated
 number of electron     270.0000000 magnetization       1.0000000
 keeping initial charge density in first step


--------------------------------------------------------------------------------------------------------


 Maximum index for augmentation-charges          174 (set IRDMAX)


--------------------------------------------------------------------------------------------------------


 First call to EWALD:  gamma=   0.147
 Maximum number of real-space cells 3x 3x 3
 Maximum number of reciprocal cells 3x 3x 3

    FEWALD:  cpu time    0.0042: real time    0.0046


--------------------------------------- Iteration      1(   1)  ---------------------------------------


    POTLOK:  cpu time    0.0617: real time    0.0743
    SETDIJ:  cpu time    0.0091: real time    0.0096
     EDDAV:  cpu time    5.3231: real time    5.4239
 BZINTS: Fermi energy: 11.132068;270.000000 electrons
         Band energy:***********;  BLOECHL correction: -0.028816
       DOS:  cpu time    0.2298: real time    0.2302
    --------------------------------------------
      LOOP:  cpu time    5.6237: real time    5.7380

 eigenvalue-minimisations  :  3944
 total energy-change (2. order) : 0.2822721E+04  (-0.1116167E+05)
 number of electron     270.0000000 magnetization       1.0000000
 augmentation part      270.0000000 magnetization       1.0000000

 Free energy of the ion-electron system (eV)
  ---------------------------------------------------
  alpha Z        PSCENC =       197.90613669
  Ewald energy   TEWEN  =     30425.92730417
  -Hartree energ DENC   =    -41368.03825715
  -exchange      EXHF   =         0.00000000
  -V(xc)+E(xc)   XCENC  =      1072.52592487
  PAW double counting   =     10998.91041168   -11485.61342155
  entropy T*S    EENTRO =         0.00000000
  eigenvalues    EBANDS =     -1611.15730806
  atomic energy  EATOM  =     14592.26033195
  Solvation  Ediel_sol  =         0.00000000
  ---------------------------------------------------
  free energy    TOTEN  =      2822.72112260 eV

  energy without entropy =     2822.72112260  energy(sigma->0) =     2822.72112260


--------------------------------------------------------------------------------------------------------




--------------------------------------- Iteration      1(   2)  ---------------------------------------


     EDDAV:  cpu time    7.5381: real time    7.7747
 BZINTS: Fermi energy:  0.072872;270.000000 electrons
         Band energy:***********;  BLOECHL correction: -0.024563
       DOS:  cpu time    0.0096: real time    0.0099
    --------------------------------------------
      LOOP:  cpu time    7.5477: real time    7.7846

 eigenvalue-minimisations  :  4568
 total energy-change (2. order) :-0.2850249E+04  (-0.2741122E+04)
 number of electron     270.0000000 magnetization       1.0000000
 augmentation part      270.0000000 magnetization       1.0000000

 Free energy of the ion-electron system (eV)
  ---------------------------------------------------
  alpha Z        PSCENC =       197.90613669
  Ewald energy   TEWEN  =     30425.92730417
  -Hartree energ DENC   =    -41368.03825715
  -exchange      EXHF   =         0.00000000
  -V(xc)+E(xc)   XCENC  =      1072.52592487
  PAW double counting   =     10998.91041168   -11485.61342155
  entropy T*S    EENTRO =         0.00000000
  eigenvalues    EBANDS =     -4461.40678612
  atomic energy  EATOM  =     14592.26033195
  Solvation  Ediel_sol  =         0.00000000
  ---------------------------------------------------
  free energy    TOTEN  =       -27.52835546 eV

  energy without entropy =      -27.52835546  energy(sigma->0) =      -27.52835546


--------------------------------------------------------------------------------------------------------




--------------------------------------- Iteration      1(   3)  ---------------------------------------


     EDDAV:  cpu time    7.1817: real time    7.4844
 BZINTS: Fermi energy: -3.530401;270.000000 electrons
         Band energy:***********;  BLOECHL correction: -0.017216
       DOS:  cpu time    0.0096: real time    0.0097
    --------------------------------------------
      LOOP:  cpu time    7.1913: real time    7.4940

 eigenvalue-minimisations  :  4024
 total energy-change (2. order) :-0.4502183E+03  (-0.4457130E+03)
 number of electron     270.0000000 magnetization       1.0000000
 augmentation part      270.0000000 magnetization       1.0000000

 Free energy of the ion-electron system (eV)
  ---------------------------------------------------
  alpha Z        PSCENC =       197.90613669
  Ewald energy   TEWEN  =     30425.92730417
  -Hartree energ DENC   =    -41368.03825715
  -exchange      EXHF   =         0.00000000
  -V(xc)+E(xc)   XCENC  =      1072.52592487
  PAW double counting   =     10998.91041168   -11485.61342155
  entropy T*S    EENTRO =         0.00000000
  eigenvalues    EBANDS =     -4911.62512346
  atomic energy  EATOM  =     14592.26033195
  Solvation  Ediel_sol  =         0.00000000
  ---------------------------------------------------
  free energy    TOTEN  =      -477.74669280 eV

  energy without entropy =     -477.74669280  energy(sigma->0) =     -477.74669280


--------------------------------------------------------------------------------------------------------




--------------------------------------- Iteration      1(   4)  ---------------------------------------


     EDDAV:  cpu time    6.9923: real time    7.2783
 BZINTS: Fermi energy: -3.961240;270.000000 electrons
         Band energy:***********;  BLOECHL correction:  0.000000
       DOS:  cpu time    0.0039: real time    0.0039
    --------------------------------------------
      LOOP:  cpu time    6.9962: real time    7.2822

 eigenvalue-minimisations  :  4104
 total energy-change (2. order) :-0.1561133E+02  (-0.1522917E+02)
 number of electron     270.0000000 magnetization       1.0000000
 augmentation part      270.0000000 magnetization       1.0000000

 Free energy of the ion-electron system (eV)
  ---------------------------------------------------
  alpha Z        PSCENC =       197.90613669
  Ewald energy   TEWEN  =     30425.92730417
  -Hartree energ DENC   =    -41368.03825715
  -exchange      EXHF   =         0.00000000
  -V(xc)+E(xc)   XCENC  =      1072.52592487
  PAW double counting   =     10998.91041168   -11485.61342155
  entropy T*S    EENTRO =         0.00000000
  eigenvalues    EBANDS =     -4927.23645410
  atomic energy  EATOM  =     14592.26033195
  Solvation  Ediel_sol  =         0.00000000
  ---------------------------------------------------
  free energy    TOTEN  =      -493.35802344 eV

  energy without entropy =     -493.35802344  energy(sigma->0) =     -493.35802344


--------------------------------------------------------------------------------------------------------




--------------------------------------- Iteration      1(   5)  ---------------------------------------


     EDDAV:  cpu time    7.5183: real time    7.8585
 BZINTS: Fermi energy: -3.986247;270.000000 electrons
         Band energy:***********;  BLOECHL correction:  0.000000
       DOS:  cpu time    0.0039: real time    0.0039
    CHARGE:  cpu time    0.0846: real time    0.0879
    MIXING:  cpu time    0.0035: real time    0.0035
    --------------------------------------------
      LOOP:  cpu time    7.6103: real time    7.9538

 eigenvalue-minimisations  :  4536
 total energy-change (2. order) :-0.5770533E+00  (-0.5711116E+00)
 number of electron     270.0000097 magnetization       0.0000000
 augmentation part       22.1271054 magnetization       0.0013256

 Broyden mixing:
  rms(total) = 0.54147E+01    rms(broyden)= 0.54122E+01
  rms(prec ) = 0.60365E+01
  weight for this iteration     100.00

 Free energy of the ion-electron system (eV)
  ---------------------------------------------------
  alpha Z        PSCENC =       197.90613669
  Ewald energy   TEWEN  =     30425.92730417
  -Hartree energ DENC   =    -41368.03825715
  -exchange      EXHF   =         0.00000000
  -V(xc)+E(xc)   XCENC  =      1072.52592487
  PAW double counting   =     10998.91041168   -11485.61342155
  entropy T*S    EENTRO =         0.00000000
  eigenvalues    EBANDS =     -4927.81350737
  atomic energy  EATOM  =     14592.26033195
  Solvation  Ediel_sol  =         0.00000000
  ---------------------------------------------------
  free energy    TOTEN  =      -493.93507671 eV

  energy without entropy =     -493.93507671  energy(sigma->0) =     -493.93507671


--------------------------------------------------------------------------------------------------------




--------------------------------------- Iteration      1(   6)  ---------------------------------------


    POTLOK:  cpu time    0.0541: real time    0.0556
    SETDIJ:  cpu time    0.0084: real time    0.0084
     EDDAV:  cpu time    6.4573: real time    6.5837
 BZINTS: Fermi energy: -2.774694;270.000000 electrons
         Band energy:***********;  BLOECHL correction:  0.000000
       DOS:  cpu time    0.0036: real time    0.0036
    CHARGE:  cpu time    0.0844: real time    0.0901
    MIXING:  cpu time    0.0020: real time    0.0050
    --------------------------------------------
      LOOP:  cpu time    6.6098: real time    6.7465

 eigenvalue-minimisations  :  4584
 total energy-change (2. order) : 0.4618341E+02  (-0.5473695E+01)
 number of electron     270.0000085 magnetization      -0.0000000
 augmentation part       21.0737576 magnetization       0.0055141

 Broyden mixing:
  rms(total) = 0.36201E+01    rms(broyden)= 0.36199E+01
  rms(prec ) = 0.39254E+01
  weight for this iteration     100.00

 eigenvalues of (default mixing * dielectric matrix)
  average eigenvalue GAMMA=   1.8843
  1.8843

 Free energy of the ion-electron system (eV)
  ---------------------------------------------------
  alpha Z        PSCENC =       197.90613669
  Ewald energy   TEWEN  =     30425.92730417
  -Hartree energ DENC   =    -41870.48770254
  -exchange      EXHF   =         0.00000000
  -V(xc)+E(xc)   XCENC  =      1092.03445695
  PAW double counting   =     16324.16862976   -16815.99984429
  entropy T*S    EENTRO =         0.00000000
  eigenvalues    EBANDS =     -4393.56098062
  atomic energy  EATOM  =     14592.26033195
  Solvation  Ediel_sol  =         0.00000000
  ---------------------------------------------------
  free energy    TOTEN  =      -447.75166794 eV

  energy without entropy =     -447.75166794  energy(sigma->0) =     -447.75166794


--------------------------------------------------------------------------------------------------------




--------------------------------------- Iteration      1(   7)  ---------------------------------------


    POTLOK:  cpu time    0.0528: real time    0.0561
    SETDIJ:  cpu time    0.0097: real time    0.0098
     EDDAV:  cpu time    5.9054: real time    5.9624
 BZINTS: Fermi energy: -1.375594;270.000000 electrons
         Band energy:***********;  BLOECHL correction:  0.000000
       DOS:  cpu time    0.0038: real time    0.0038
    CHARGE:  cpu time    0.1200: real time    0.1231
    MIXING:  cpu time    0.0026: real time    0.0037
    --------------------------------------------
      LOOP:  cpu time    6.0943: real time    6.1588

 eigenvalue-minimisations  :  4112
 total energy-change (2. order) : 0.1732035E+02  (-0.8411420E+01)
 number of electron     270.0000092 magnetization      -0.0000000
 augmentation part       20.1634762 magnetization       0.0005746

 Broyden mixing:
  rms(total) = 0.19945E+01    rms(broyden)= 0.19940E+01
  rms(prec ) = 0.21222E+01
  weight for this iteration     100.00

 eigenvalues of (default mixing * dielectric matrix)
  average eigenvalue GAMMA=   1.7707
  0.9875  2.5540

 Free energy of the ion-electron system (eV)
  ---------------------------------------------------
  alpha Z        PSCENC =       197.90613669
  Ewald energy   TEWEN  =     30425.92730417
  -Hartree energ DENC   =    -42486.71297076
  -exchange      EXHF   =         0.00000000
  -V(xc)+E(xc)   XCENC  =      1115.15850517
  PAW double counting   =     27214.53019521   -27715.50498406
  entropy T*S    EENTRO =         0.00000000
  eigenvalues    EBANDS =     -3773.99583710
  atomic energy  EATOM  =     14592.26033195
  Solvation  Ediel_sol  =         0.00000000
  ---------------------------------------------------
  free energy    TOTEN  =      -430.43131873 eV

  energy without entropy =     -430.43131873  energy(sigma->0) =     -430.43131873


--------------------------------------------------------------------------------------------------------




--------------------------------------- Iteration      1(   8)  ---------------------------------------


    POTLOK:  cpu time    0.0712: real time    0.0731
    SETDIJ:  cpu time    0.0098: real time    0.0099
     EDDAV:  cpu time    5.7697: real time    5.8796
 BZINTS: Fermi energy: -0.804201;270.000000 electrons
         Band energy:***********;  BLOECHL correction:  0.000000
       DOS:  cpu time    0.0034: real time    0.0034
    CHARGE:  cpu time    0.0842: real time    0.0857
    MIXING:  cpu time    0.0021: real time    0.0026
    --------------------------------------------
      LOOP:  cpu time    5.9405: real time    6.0543

 eigenvalue-minimisations  :  4080
 total energy-change (2. order) : 0.1828188E+01  (-0.1429962E+01)
 number of electron     270.0000086 magnetization       0.0000000
 augmentation part       19.9535752 magnetization       0.0015011

 Broyden mixing:
  rms(total) = 0.14488E+01    rms(broyden)= 0.14487E+01
  rms(prec ) = 0.15044E+01
  weight for this iteration     100.00

 eigenvalues of (default mixing * dielectric matrix)
  average eigenvalue GAMMA=   1.8429
  3.2921  1.4684  0.7683

 Free energy of the ion-electron system (eV)
  ---------------------------------------------------
  alpha Z        PSCENC =       197.90613669
  Ewald energy   TEWEN  =     30425.92730417
  -Hartree energ DENC   =    -42595.51170488
  -exchange      EXHF   =         0.00000000
  -V(xc)+E(xc)   XCENC  =      1119.64822148
  PAW double counting   =     32554.16326114   -33058.53936247
  entropy T*S    EENTRO =         0.00000000
  eigenvalues    EBANDS =     -3664.45731914
  atomic energy  EATOM  =     14592.26033195
  Solvation  Ediel_sol  =         0.00000000
  ---------------------------------------------------
  free energy    TOTEN  =      -428.60313107 eV

  energy without entropy =     -428.60313107  energy(sigma->0) =     -428.60313107


--------------------------------------------------------------------------------------------------------




--------------------------------------- Iteration      1(   9)  ---------------------------------------


    POTLOK:  cpu time    0.1234: real time    0.1260
    SETDIJ:  cpu time    0.0085: real time    0.0085
     EDDAV:  cpu time    7.4084: real time    7.4936
 BZINTS: Fermi energy: -0.810453;270.000000 electrons
         Band energy:***********;  BLOECHL correction:  0.000000
       DOS:  cpu time    0.0037: real time    0.0037
    CHARGE:  cpu time    0.0849: real time    0.0858
    MIXING:  cpu time    0.0020: real time    0.0020
    --------------------------------------------
      LOOP:  cpu time    7.6309: real time    7.7196

 eigenvalue-minimisations  :  5208
 total energy-change (2. order) :-0.2797789E+00  (-0.9765170E+00)
 number of electron     270.0000083 magnetization       0.0000000
 augmentation part       20.0706274 magnetization       0.0005301

 Broyden mixing:
  rms(total) = 0.69964E+00    rms(broyden)= 0.69935E+00
  rms(prec ) = 0.88166E+00
  weight for this iteration     100.00

 eigenvalues of (default mixing * dielectric matrix)
  average eigenvalue GAMMA=   1.7815
  3.7978  1.6806  0.8238  0.8238

 Free energy of the ion-electron system (eV)
  ---------------------------------------------------
  alpha Z        PSCENC =       197.90613669
  Ewald energy   TEWEN  =     30425.92730417
  -Hartree energ DENC   =    -42600.95542361
  -exchange      EXHF   =         0.00000000
  -V(xc)+E(xc)   XCENC  =      1120.40119637
  PAW double counting   =     39609.00797333   -40118.76274973
  entropy T*S    EENTRO =         0.00000000
  eigenvalues    EBANDS =     -3654.66767909
  atomic energy  EATOM  =     14592.26033195
  Solvation  Ediel_sol  =         0.00000000
  ---------------------------------------------------
  free energy    TOTEN  =      -428.88290993 eV

  energy without entropy =     -428.88290993  energy(sigma->0) =     -428.88290993


--------------------------------------------------------------------------------------------------------




--------------------------------------- Iteration      1(  10)  ---------------------------------------


    POTLOK:  cpu time    0.0525: real time    0.0551
    SETDIJ:  cpu time    0.0095: real time    0.0096
     EDDAV:  cpu time    6.9982: real time    7.0708
 BZINTS: Fermi energy: -0.535384;270.000000 electrons
         Band energy:***********;  BLOECHL correction:  0.000000
       DOS:  cpu time    0.0038: real time    0.0038
    CHARGE:  cpu time    0.0841: real time    0.0848
    MIXING:  cpu time    0.0019: real time    0.0019
    --------------------------------------------
      LOOP:  cpu time    7.1501: real time    7.2261

 eigenvalue-minimisations  :  5024
 total energy-change (2. order) : 0.7462297E+00  (-0.6832281E+00)
 number of electron     270.0000087 magnetization      -0.0000000
 augmentation part       20.0524522 magnetization       0.0002936

 Broyden mixing:
  rms(total) = 0.33790E+00    rms(broyden)= 0.33748E+00
  rms(prec ) = 0.38536E+00
  weight for this iteration     100.00

 eigenvalues of (default mixing * dielectric matrix)
  average eigenvalue GAMMA=   1.6525
  3.9977  1.8869  1.0602  0.6588  0.6588

 Free energy of the ion-electron system (eV)
  ---------------------------------------------------
  alpha Z        PSCENC =       197.90613669
  Ewald energy   TEWEN  =     30425.92730417
  -Hartree energ DENC   =    -42599.49122557
  -exchange      EXHF   =         0.00000000
  -V(xc)+E(xc)   XCENC  =      1120.87065361
  PAW double counting   =     42287.35247774   -42796.78484766
  entropy T*S    EENTRO =         0.00000000
  eigenvalues    EBANDS =     -3656.17751114
  atomic energy  EATOM  =     14592.26033195
  Solvation  Ediel_sol  =         0.00000000
  ---------------------------------------------------
  free energy    TOTEN  =      -428.13668022 eV

  energy without entropy =     -428.13668022  energy(sigma->0) =     -428.13668022


--------------------------------------------------------------------------------------------------------




--------------------------------------- Iteration      1(  11)  ---------------------------------------


    POTLOK:  cpu time    0.0535: real time    0.0553
    SETDIJ:  cpu time    0.0094: real time    0.0097
     EDDAV:  cpu time    6.7543: real time    6.8449
 BZINTS: Fermi energy: -0.659165;270.000000 electrons
         Band energy:***********;  BLOECHL correction:  0.000000
       DOS:  cpu time    0.0035: real time    0.0035
    CHARGE:  cpu time    0.1131: real time    0.1148
    MIXING:  cpu time    0.0025: real time    0.0025
    --------------------------------------------
      LOOP:  cpu time    6.9363: real time    7.0306

 eigenvalue-minimisations  :  4944
 total energy-change (2. order) : 0.8789790E-01  (-0.1037104E+00)
 number of electron     270.0000085 magnetization      -0.0000000
 augmentation part       20.0503351 magnetization       0.0000610

 Broyden mixing:
  rms(total) = 0.17291E+00    rms(broyden)= 0.17285E+00
  rms(prec ) = 0.19867E+00
  weight for this iteration     100.00

 eigenvalues of (default mixing * dielectric matrix)
  average eigenvalue GAMMA=   1.5822
  3.9555  1.9654  1.3406  0.9381  0.6468  0.6468

 Free energy of the ion-electron system (eV)
  ---------------------------------------------------
  alpha Z        PSCENC =       197.90613669
  Ewald energy   TEWEN  =     30425.92730417
  -Hartree energ DENC   =    -42571.29804198
  -exchange      EXHF   =         0.00000000
  -V(xc)+E(xc)   XCENC  =      1120.16807783
  PAW double counting   =     43562.53053395   -44071.23554073
  entropy T*S    EENTRO =         0.00000000
  eigenvalues    EBANDS =     -3684.30758419
  atomic energy  EATOM  =     14592.26033195
  Solvation  Ediel_sol  =         0.00000000
  ---------------------------------------------------
  free energy    TOTEN  =      -428.04878232 eV

  energy without entropy =     -428.04878232  energy(sigma->0) =     -428.04878232


--------------------------------------------------------------------------------------------------------




--------------------------------------- Iteration      1(  12)  ---------------------------------------


    POTLOK:  cpu time    0.0554: real time    0.0571
    SETDIJ:  cpu time    0.0097: real time    0.0097
     EDDAV:  cpu time    6.2798: real time    6.3495
 BZINTS: Fermi energy: -0.715429;270.000000 electrons
         Band energy:***********;  BLOECHL correction:  0.000000
       DOS:  cpu time    0.0038: real time    0.0038
    CHARGE:  cpu time    0.0824: real time    0.0833
    MIXING:  cpu time    0.0024: real time    0.0024
    --------------------------------------------
      LOOP:  cpu time    6.4335: real time    6.5057

 eigenvalue-minimisations  :  4376
 total energy-change (2. order) : 0.3354848E-01  (-0.3882952E-01)
 number of electron     270.0000087 magnetization      -0.0000000
 augmentation part       20.0516181 magnetization       0.0000497

 Broyden mixing:
  rms(total) = 0.10968E+00    rms(broyden)= 0.10962E+00
  rms(prec ) = 0.13477E+00
  weight for this iteration     100.00

 eigenvalues of (default mixing * dielectric matrix)
  average eigenvalue GAMMA=   1.5760
  3.9097  2.3871  1.6060  0.9420  0.9420  0.6225  0.6225

 Free energy of the ion-electron system (eV)
  ---------------------------------------------------
  alpha Z        PSCENC =       197.90613669
  Ewald energy   TEWEN  =     30425.92730417
  -Hartree energ DENC   =    -42553.67249481
  -exchange      EXHF   =         0.00000000
  -V(xc)+E(xc)   XCENC  =      1119.61435227
  PAW double counting   =     43751.18850287   -44259.29852824
  entropy T*S    EENTRO =         0.00000000
  eigenvalues    EBANDS =     -3701.94083874
  atomic energy  EATOM  =     14592.26033195
  Solvation  Ediel_sol  =         0.00000000
  ---------------------------------------------------
  free energy    TOTEN  =      -428.01523384 eV

  energy without entropy =     -428.01523384  energy(sigma->0) =     -428.01523384


--------------------------------------------------------------------------------------------------------




--------------------------------------- Iteration      1(  13)  ---------------------------------------


    POTLOK:  cpu time    0.0532: real time    0.0551
    SETDIJ:  cpu time    0.0096: real time    0.0097
     EDDAV:  cpu time    5.9130: real time    6.0290
 BZINTS: Fermi energy: -0.750438;270.000000 electrons
         Band energy:***********;  BLOECHL correction:  0.000000
       DOS:  cpu time    0.0037: real time    0.0037
    CHARGE:  cpu time    0.0844: real time    0.0851
    MIXING:  cpu time    0.0025: real time    0.0025
    --------------------------------------------
      LOOP:  cpu time    6.0664: real time    6.1850

 eigenvalue-minimisations  :  4072
 total energy-change (2. order) : 0.1734570E-01  (-0.2087964E-01)
 number of electron     270.0000086 magnetization      -0.0000000
 augmentation part       20.0584134 magnetization      -0.0000058

 Broyden mixing:
  rms(total) = 0.47520E-01    rms(broyden)= 0.47429E-01
  rms(prec ) = 0.57112E-01
  weight for this iteration     100.00

 eigenvalues of (default mixing * dielectric matrix)
  average eigenvalue GAMMA=   1.5458
  3.8940  2.6190  1.7140  1.0213  0.9320  0.9320  0.6271  0.6271

 Free energy of the ion-electron system (eV)
  ---------------------------------------------------
  alpha Z        PSCENC =       197.90613669
  Ewald energy   TEWEN  =     30425.92730417
  -Hartree energ DENC   =    -42541.56018484
  -exchange      EXHF   =         0.00000000
  -V(xc)+E(xc)   XCENC  =      1119.20185388
  PAW double counting   =     43912.22429620   -44420.18075878
  entropy T*S    EENTRO =         0.00000000
  eigenvalues    EBANDS =     -3713.77686741
  atomic energy  EATOM  =     14592.26033195
  Solvation  Ediel_sol  =         0.00000000
  ---------------------------------------------------
  free energy    TOTEN  =      -427.99788814 eV

  energy without entropy =     -427.99788814  energy(sigma->0) =     -427.99788814


--------------------------------------------------------------------------------------------------------




--------------------------------------- Iteration      1(  14)  ---------------------------------------


    POTLOK:  cpu time    0.0527: real time    0.0548
    SETDIJ:  cpu time    0.0084: real time    0.0084
     EDDAV:  cpu time    5.7281: real time    5.8377
 BZINTS: Fermi energy: -0.759190;270.000000 electrons
         Band energy:***********;  BLOECHL correction:  0.000000
       DOS:  cpu time    0.0035: real time    0.0035
    CHARGE:  cpu time    0.1158: real time    0.1167
    MIXING:  cpu time    0.0028: real time    0.0028
    --------------------------------------------
      LOOP:  cpu time    5.9114: real time    6.0241

 eigenvalue-minimisations  :  4024
 total energy-change (2. order) : 0.4143802E-03  (-0.4778016E-02)
 number of electron     270.0000087 magnetization      -0.0000000
 augmentation part       20.0599164 magnetization       0.0000038

 Broyden mixing:
  rms(total) = 0.31644E-01    rms(broyden)= 0.31627E-01
  rms(prec ) = 0.34973E-01
  weight for this iteration     100.00

 eigenvalues of (default mixing * dielectric matrix)
  average eigenvalue GAMMA=   1.4979
  3.8675  2.6504  1.6513  1.1000  1.1000  0.9262  0.9262  0.6297  0.6297

 Free energy of the ion-electron system (eV)
  ---------------------------------------------------
  alpha Z        PSCENC =       197.90613669
  Ewald energy   TEWEN  =     30425.92730417
  -Hartree energ DENC   =    -42540.05258304
  -exchange      EXHF   =         0.00000000
  -V(xc)+E(xc)   XCENC  =      1119.13136435
  PAW double counting   =     43975.71250203   -44483.56053776
  entropy T*S    EENTRO =         0.00000000
  eigenvalues    EBANDS =     -3715.32199214
  atomic energy  EATOM  =     14592.26033195
  Solvation  Ediel_sol  =         0.00000000
  ---------------------------------------------------
  free energy    TOTEN  =      -427.99747376 eV

  energy without entropy =     -427.99747376  energy(sigma->0) =     -427.99747376


--------------------------------------------------------------------------------------------------------




--------------------------------------- Iteration      1(  15)  ---------------------------------------


    POTLOK:  cpu time    0.0547: real time    0.0570
    SETDIJ:  cpu time    0.0083: real time    0.0083
     EDDAV:  cpu time    6.5215: real time    6.6492
 BZINTS: Fermi energy: -0.754189;270.000000 electrons
         Band energy:***********;  BLOECHL correction:  0.000000
       DOS:  cpu time    0.0035: real time    0.0035
    CHARGE:  cpu time    0.0836: real time    0.0839
    MIXING:  cpu time    0.0027: real time    0.0027
    --------------------------------------------
      LOOP:  cpu time    6.6743: real time    6.8045

 eigenvalue-minimisations  :  4896
 total energy-change (2. order) : 0.4591376E-03  (-0.6956764E-03)
 number of electron     270.0000086 magnetization      -0.0000000
 augmentation part       20.0608362 magnetization      -0.0000013

 Broyden mixing:
  rms(total) = 0.20598E-01    rms(broyden)= 0.20595E-01
  rms(prec ) = 0.21190E-01
  weight for this iteration     100.00

 eigenvalues of (default mixing * dielectric matrix)
  average eigenvalue GAMMA=   1.5433
  3.7697  2.5901  2.1731  1.5224  1.5224  0.9187  0.8372  0.8372  0.6313  0.6313

 Free energy of the ion-electron system (eV)
  ---------------------------------------------------
  alpha Z        PSCENC =       197.90613669
  Ewald energy   TEWEN  =     30425.92730417
  -Hartree energ DENC   =    -42541.11308786
  -exchange      EXHF   =         0.00000000
  -V(xc)+E(xc)   XCENC  =      1119.14564490
  PAW double counting   =     43980.44347286   -44488.36885520
  entropy T*S    EENTRO =         0.00000000
  eigenvalues    EBANDS =     -3714.19796212
  atomic energy  EATOM  =     14592.26033195
  Solvation  Ediel_sol  =         0.00000000
  ---------------------------------------------------
  free energy    TOTEN  =      -427.99701462 eV

  energy without entropy =     -427.99701462  energy(sigma->0) =     -427.99701462


--------------------------------------------------------------------------------------------------------




--------------------------------------- Iteration      1(  16)  ---------------------------------------


    POTLOK:  cpu time    0.0528: real time    0.0544
    SETDIJ:  cpu time    0.0093: real time    0.0096
     EDDAV:  cpu time    5.9196: real time    6.0793
 BZINTS: Fermi energy: -0.749187;270.000000 electrons
         Band energy:***********;  BLOECHL correction:  0.000000
       DOS:  cpu time    0.0035: real time    0.0035
    CHARGE:  cpu time    0.0844: real time    0.0855
    MIXING:  cpu time    0.0029: real time    0.0032
    --------------------------------------------
      LOOP:  cpu time    6.0725: real time    6.2355

 eigenvalue-minimisations  :  4056
 total energy-change (2. order) : 0.1212267E-04  (-0.1324746E-03)
 number of electron     270.0000086 magnetization       0.0000000
 augmentation part       20.0599980 magnetization      -0.0000041

 Broyden mixing:
  rms(total) = 0.11356E-01    rms(broyden)= 0.11355E-01
  rms(prec ) = 0.11574E-01
  weight for this iteration     100.00

 eigenvalues of (default mixing * dielectric matrix)
  average eigenvalue GAMMA=   1.6156
  3.6680  3.6680  2.4338  1.4975  1.4975  1.1811  0.8629  0.8629  0.8349  0.6323
  0.6323

 Free energy of the ion-electron system (eV)
  ---------------------------------------------------
  alpha Z        PSCENC =       197.90613669
  Ewald energy   TEWEN  =     30425.92730417
  -Hartree energ DENC   =    -42542.65545480
  -exchange      EXHF   =         0.00000000
  -V(xc)+E(xc)   XCENC  =      1119.18090427
  PAW double counting   =     43970.22462961   -44478.16040933
  entropy T*S    EENTRO =         0.00000000
  eigenvalues    EBANDS =     -3712.68044506
  atomic energy  EATOM  =     14592.26033195
  Solvation  Ediel_sol  =         0.00000000
  ---------------------------------------------------
  free energy    TOTEN  =      -427.99700250 eV

  energy without entropy =     -427.99700250  energy(sigma->0) =     -427.99700250


--------------------------------------------------------------------------------------------------------




--------------------------------------- Iteration      1(  17)  ---------------------------------------


    POTLOK:  cpu time    0.0535: real time    0.0557
    SETDIJ:  cpu time    0.0103: real time    0.0103
     EDDAV:  cpu time    4.5893: real time    4.7583
 BZINTS: Fermi energy: -0.745436;270.000000 electrons
         Band energy:***********;  BLOECHL correction:  0.000000
       DOS:  cpu time    0.0041: real time    0.0044
    --------------------------------------------
      LOOP:  cpu time    4.6571: real time    4.8287

 eigenvalue-minimisations  :  2496
 total energy-change (2. order) :-0.3525844E-04  (-0.2965788E-04)
 number of electron     270.0000086 magnetization       0.0000000
 augmentation part       20.0599980 magnetization      -0.0000041

 Free energy of the ion-electron system (eV)
  ---------------------------------------------------
  alpha Z        PSCENC =       197.90613669
  Ewald energy   TEWEN  =     30425.92730417
  -Hartree energ DENC   =    -42542.99343691
  -exchange      EXHF   =         0.00000000
  -V(xc)+E(xc)   XCENC  =      1119.18516824
  PAW double counting   =     43982.02245752   -44489.94091629
  entropy T*S    EENTRO =         0.00000000
  eigenvalues    EBANDS =     -3712.36408312
  atomic energy  EATOM  =     14592.26033195
  Solvation  Ediel_sol  =         0.00000000
  ---------------------------------------------------
  free energy    TOTEN  =      -427.99703776 eV

  energy without entropy =     -427.99703776  energy(sigma->0) =     -427.99703776


--------------------------------------------------------------------------------------------------------




 average (electrostatic) potential at core
  the test charge radii are     0.6991  0.7089  0.9911
  (the norm of the test charge is              1.0000)
       1 -59.2754       2 -59.7007       3 -59.6989       4 -59.4161       5 -59.3862
       6 -59.4407       7 -59.4753       8 -59.2730       9 -59.1825      10 -60.2556
      11 -59.5942      12 -60.2421      13 -59.2857      14 -59.2989      15 -59.0190
      16 -59.4677      17 -59.4292      18 -59.3792      19 -59.5933      20 -59.2592
      21 -59.2768      22 -59.5331      23 -59.4438      24 -59.5145      25 -73.5519
      26 -71.0558      27 -71.0499      28 -71.2912      29 -71.3930      30 -71.1710
      31 -71.0943      32 -74.3537      33 -73.0766      34 -71.6482      35 -72.9179
      36 -71.2526      37 -71.2610      38 -71.7192      39 -72.8569      40 -74.4991
      41 -73.2827      42 -71.2693      43 -71.1433      44 -71.4468      45 -71.4975
      46 -71.1079      47 -71.1043      48 -74.2227      49 -73.2930      50 -71.4488
      51 -71.3493      52 -71.0572      53 -70.9997      54 -71.3765      55 -71.3321
      56 -74.5455      57 -80.2472
 
 
 
 E-fermi :  -0.7454     XC(G=0):  -3.5371     alpha+bet : -3.0875


 spin component 1

 k-point     1 :       0.0000    0.0000    0.0000
  band No.  band energies     occupation 
      1     -28.5786      1.00000
      2     -28.4473      1.00000
      3     -28.1719      1.00000
      4     -28.0780      1.00000
      5     -26.8938      1.00000
      6     -26.7323      1.00000
      7     -26.6639      1.00000
      8     -25.9752      1.00000
      9     -25.6985      1.00000
     10     -25.5961      1.00000
     11     -25.5848      1.00000
     12     -25.5397      1.00000
     13     -25.5141      1.00000
     14     -25.4571      1.00000
     15     -25.4328      1.00000
     16     -25.3762      1.00000
     17     -25.3729      1.00000
     18     -25.2500      1.00000
     19     -24.2813      1.00000
     20     -24.0535      1.00000
     21     -24.0153      1.00000
     22     -23.0417      1.00000
     23     -22.9804      1.00000
     24     -22.5835      1.00000
     25     -22.4636      1.00000
     26     -22.3954      1.00000
     27     -22.3548      1.00000
     28     -22.2776      1.00000
     29     -22.1813      1.00000
     30     -22.1137      1.00000
     31     -22.0749      1.00000
     32     -21.9451      1.00000
     33     -21.2928      1.00000
     34     -21.2706      1.00000
     35     -21.1196      1.00000
     36     -20.9647      1.00000
     37     -20.5307      1.00000
     38     -18.3486      1.00000
     39     -18.2901      1.00000
     40     -18.1264      1.00000
     41     -17.9123      1.00000
     42     -17.7577      1.00000
     43     -17.6907      1.00000
     44     -17.2301      1.00000
     45     -17.0011      1.00000
     46     -16.1871      1.00000
     47     -16.0351      1.00000
     48     -15.9712      1.00000
     49     -15.8276      1.00000
     50     -15.7042      1.00000
     51     -15.5347      1.00000
     52     -15.1955      1.00000
     53     -15.0692      1.00000
     54     -14.7467      1.00000
     55     -14.6255      1.00000
     56     -14.5607      1.00000
     57     -14.3955      1.00000
     58     -14.3008      1.00000
     59     -14.1798      1.00000
     60     -14.0405      1.00000
     61     -13.9660      1.00000
     62     -13.8181      1.00000
     63     -13.3379      1.00000
     64     -13.2387      1.00000
     65     -13.0235      1.00000
     66     -12.8711      1.00000
     67     -12.7606      1.00000
     68     -12.6118      1.00000
     69     -12.4161      1.00000
     70     -12.3486      1.00000
     71     -12.1832      1.00000
     72     -12.0881      1.00000
     73     -11.8854      1.00000
     74     -11.8003      1.00000
     75     -11.6078      1.00000
     76     -11.4546      1.00000
     77     -11.3683      1.00000
     78     -11.0388      1.00000
     79     -10.8946      1.00000
     80     -10.8080      1.00000
     81     -10.4428      1.00000
     82     -10.3183      1.00000
     83     -10.1037      1.00000
     84     -10.0262      1.00000
     85      -9.9199      1.00000
     86      -9.8247      1.00000
     87      -9.7617      1.00000
     88      -9.4811      1.00000
     89      -9.3742      1.00000
     90      -9.1899      1.00000
     91      -8.9744      1.00000
     92      -8.3510      1.00000
     93      -8.2163      1.00000
     94      -8.1147      1.00000
     95      -7.7825      1.00000
     96      -7.5853      1.00000
     97      -7.4196      1.00000
     98      -7.3908      1.00000
     99      -7.2424      1.00000
    100      -7.2354      1.00000
    101      -7.1891      1.00000
    102      -7.1174      1.00000
    103      -6.9998      1.00000
    104      -6.9676      1.00000
    105      -6.8466      1.00000
    106      -6.7468      1.00000
    107      -6.4309      1.00000
    108      -6.2342      1.00000
    109      -5.9406      1.00000
    110      -5.7125      1.00000
    111      -5.4907      1.00000
    112      -5.4169      1.00000
    113      -5.2703      1.00000
    114      -5.1462      1.00000
    115      -5.0520      1.00000
    116      -4.9414      1.00000
    117      -4.8410      1.00000
    118      -4.7868      1.00000
    119      -4.7462      1.00000
    120      -4.6131      1.00000
    121      -4.4642      1.00000
    122      -4.3443      1.00000
    123      -4.2230      1.00000
    124      -4.0276      1.00000
    125      -3.8937      1.00000
    126      -3.6945      1.00000
    127      -3.5426      1.00000
    128      -3.4767      1.00000
    129      -3.3709      1.00000
    130      -3.1791      1.00000
    131      -3.0178      1.00000
    132      -2.8491      1.00000
    133      -2.7140      1.00000
    134      -2.6861      1.00000
    135      -0.9171      1.00000
    136      -0.4880      0.00000
    137      -0.2987      0.00000
    138       0.0755      0.00000
    139       0.2811      0.00000
    140       0.3880      0.00000
    141       0.5295      0.00000
    142       0.8684      0.00000
    143       1.0332      0.00000
    144       1.3412      0.00000
    145       1.4350      0.00000
    146       1.4844      0.00000
    147       1.8308      0.00000
    148       2.0310      0.00000
    149       2.1547      0.00000
    150       2.1822      0.00000
    151       2.2565      0.00000
    152       2.4813      0.00000
    153       2.7507      0.00000
    154       2.7747      0.00000
    155       2.9399      0.00000
    156       3.0185      0.00000
    157       3.2202      0.00000
    158       3.3707      0.00000
    159       3.3791      0.00000
    160       3.4891      0.00000
    161       3.5379      0.00000
    162       3.6145      0.00000
    163       3.6863      0.00000
    164       3.8064      0.00000
    165       3.8398      0.00000
    166       3.9880      0.00000
    167       4.0943      0.00000
    168       4.1120      0.00000

 k-point     2 :       0.3333    0.0000    0.0000
  band No.  band energies     occupation 
      1     -28.5556      1.00000
      2     -28.4699      1.00000
      3     -28.1697      1.00000
      4     -28.0976      1.00000
      5     -26.8454      1.00000
      6     -26.7078      1.00000
      7     -26.5543      1.00000
      8     -26.1821      1.00000
      9     -25.8032      1.00000
     10     -25.7587      1.00000
     11     -25.5756      1.00000
     12     -25.5432      1.00000
     13     -25.5067      1.00000
     14     -25.4575      1.00000
     15     -25.4445      1.00000
     16     -25.3838      1.00000
     17     -25.3545      1.00000
     18     -24.8131      1.00000
     19     -24.3453      1.00000
     20     -24.0355      1.00000
     21     -23.9521      1.00000
     22     -23.1198      1.00000
     23     -22.8823      1.00000
     24     -22.7540      1.00000
     25     -22.6225      1.00000
     26     -22.5978      1.00000
     27     -22.5026      1.00000
     28     -22.3101      1.00000
     29     -22.2809      1.00000
     30     -21.9456      1.00000
     31     -21.9358      1.00000
     32     -21.6456      1.00000
     33     -21.3749      1.00000
     34     -21.1387      1.00000
     35     -21.0558      1.00000
     36     -20.8344      1.00000
     37     -20.6250      1.00000
     38     -18.3876      1.00000
     39     -18.3689      1.00000
     40     -18.1136      1.00000
     41     -17.9335      1.00000
     42     -17.7517      1.00000
     43     -17.6317      1.00000
     44     -17.5147      1.00000
     45     -17.3132      1.00000
     46     -15.9871      1.00000
     47     -15.9088      1.00000
     48     -15.8124      1.00000
     49     -15.7186      1.00000
     50     -15.4817      1.00000
     51     -15.3218      1.00000
     52     -15.1934      1.00000
     53     -14.9220      1.00000
     54     -14.7413      1.00000
     55     -14.6790      1.00000
     56     -14.6096      1.00000
     57     -14.5283      1.00000
     58     -14.3792      1.00000
     59     -14.2276      1.00000
     60     -14.0784      1.00000
     61     -13.9428      1.00000
     62     -13.8008      1.00000
     63     -13.4442      1.00000
     64     -13.3091      1.00000
     65     -13.1163      1.00000
     66     -13.0189      1.00000
     67     -12.9671      1.00000
     68     -12.7910      1.00000
     69     -12.7264      1.00000
     70     -12.3079      1.00000
     71     -12.1803      1.00000
     72     -11.9753      1.00000
     73     -11.8218      1.00000
     74     -11.7347      1.00000
     75     -11.4180      1.00000
     76     -11.2114      1.00000
     77     -11.1936      1.00000
     78     -10.8998      1.00000
     79     -10.7065      1.00000
     80     -10.6538      1.00000
     81     -10.4966      1.00000
     82     -10.3518      1.00000
     83     -10.2467      1.00000
     84     -10.0905      1.00000
     85      -9.9511      1.00000
     86      -9.8439      1.00000
     87      -9.7948      1.00000
     88      -9.5424      1.00000
     89      -9.4702      1.00000
     90      -9.3551      1.00000
     91      -8.7376      1.00000
     92      -8.3409      1.00000
     93      -8.2583      1.00000
     94      -8.1580      1.00000
     95      -7.7815      1.00000
     96      -7.5614      1.00000
     97      -7.4477      1.00000
     98      -7.3951      1.00000
     99      -7.2886      1.00000
    100      -7.2711      1.00000
    101      -7.1479      1.00000
    102      -7.1109      1.00000
    103      -7.0429      1.00000
    104      -6.9600      1.00000
    105      -6.8869      1.00000
    106      -6.7349      1.00000
    107      -6.4497      1.00000
    108      -6.1359      1.00000
    109      -5.8813      1.00000
    110      -5.6770      1.00000
    111      -5.5332      1.00000
    112      -5.3992      1.00000
    113      -5.3223      1.00000
    114      -5.2461      1.00000
    115      -5.0581      1.00000
    116      -4.9426      1.00000
    117      -4.8491      1.00000
    118      -4.7851      1.00000
    119      -4.6671      1.00000
    120      -4.6334      1.00000
    121      -4.4436      1.00000
    122      -4.4008      1.00000
    123      -4.0841      1.00000
    124      -4.0182      1.00000
    125      -3.8689      1.00000
    126      -3.7613      1.00000
    127      -3.5927      1.00000
    128      -3.3924      1.00000
    129      -3.3008      1.00000
    130      -3.1733      1.00000
    131      -3.0703      1.00000
    132      -2.8733      1.00000
    133      -2.8217      1.00000
    134      -2.7148      1.00000
    135      -0.7917      1.00000
    136      -0.4871      0.00000
    137      -0.1310      0.00000
    138       0.0545      0.00000
    139       0.3376      0.00000
    140       0.5074      0.00000
    141       0.5685      0.00000
    142       0.7187      0.00000
    143       0.8911      0.00000
    144       1.2753      0.00000
    145       1.3874      0.00000
    146       1.5050      0.00000
    147       1.6983      0.00000
    148       1.7957      0.00000
    149       2.0344      0.00000
    150       2.1797      0.00000
    151       2.2310      0.00000
    152       2.5202      0.00000
    153       2.7788      0.00000
    154       2.9328      0.00000
    155       3.0628      0.00000
    156       3.1449      0.00000
    157       3.1988      0.00000
    158       3.2994      0.00000
    159       3.4081      0.00000
    160       3.5009      0.00000
    161       3.5502      0.00000
    162       3.6891      0.00000
    163       3.7840      0.00000
    164       3.8399      0.00000
    165       3.9123      0.00000
[...]
   -.139E+02 0.363E+02 0.147E+03   0.146E+02 -.367E+02 -.147E+03   0.300E+01 0.728E+00 0.633E+00   0.422E-01 0.181E-02 0.414E-02
   0.799E+02 -.654E+02 -.100E+03   -.834E+02 0.669E+02 0.101E+03   0.344E+01 -.184E+01 -.338E+00   -.136E-02 -.128E-01 0.285E-02
   -.165E+02 0.623E+02 0.231E+03   0.166E+02 -.651E+02 -.234E+03   -.390E+00 0.374E+01 0.219E+01   -.151E-01 0.237E-01 0.197E-01
   -.746E+02 -.214E+02 0.111E+03   0.780E+02 0.228E+02 -.113E+03   -.341E+01 -.173E+01 0.136E+01   0.127E-02 0.108E-01 0.201E-02
   0.472E+02 -.305E+02 -.383E+02   -.472E+02 0.308E+02 0.392E+02   0.687E+00 0.252E+01 0.871E+00   0.685E-02 0.140E-01 0.316E-02
   0.280E+02 -.197E+02 -.568E+02   -.277E+02 0.193E+02 0.567E+02   -.289E+01 -.197E+01 0.496E+00   0.304E-02 -.817E-02 0.757E-02
   -.748E+01 -.260E+01 -.690E+02   0.705E+01 0.188E+01 0.693E+02   0.327E+01 -.163E+01 0.332E+00   0.563E-02 -.378E-03 0.167E-02
   -.288E+02 0.203E+02 -.834E+02   0.267E+02 -.189E+02 0.851E+02   0.117E+01 -.196E+01 -.130E+01   0.880E-02 -.125E-01 -.919E-02
   -.396E+01 0.249E+02 0.546E+02   0.397E+01 -.291E+02 -.547E+02   0.896E-01 0.371E+01 -.646E+00   0.704E-02 -.186E-01 0.129E-01
   0.378E+02 0.184E+02 -.747E+02   -.358E+02 -.169E+02 0.767E+02   -.130E+01 -.240E+01 -.875E+00   0.228E-01 0.185E-01 0.102E-01
   -.437E+01 -.176E+02 -.179E+02   0.474E+01 0.167E+02 0.172E+02   -.171E+00 0.361E+01 -.720E+00   -.215E-01 0.253E-03 0.135E-02
   0.428E+02 0.327E+02 0.224E+03   -.427E+02 -.327E+02 -.224E+03   -.312E+01 -.136E+01 -.969E+00   -.249E-01 0.711E-02 0.681E-02
   -.133E+02 0.246E+02 0.101E+03   0.132E+02 -.255E+02 -.101E+03   0.330E+01 -.132E+01 -.506E+00   -.430E-01 0.181E-01 0.533E-02
   0.773E+02 -.201E+02 0.764E+02   -.808E+02 0.214E+02 -.774E+02   0.344E+01 -.182E+01 0.715E+00   0.424E-02 -.837E-02 0.590E-02
   0.365E+01 0.883E+02 0.248E+03   -.281E+01 -.913E+02 -.251E+03   -.108E+00 0.357E+01 0.204E+01   0.132E-01 0.694E-02 0.177E-02
   -.762E+02 -.690E+02 -.114E+03   0.799E+02 0.706E+02 0.115E+03   -.339E+01 -.177E+01 -.546E+00   -.530E-02 -.255E-01 0.560E-02
   -.399E+02 -.292E+02 -.163E+03   0.391E+02 0.300E+02 0.164E+03   -.374E+00 0.253E+01 0.922E+00   -.532E-02 -.146E-01 -.604E-02
   0.112E+02 -.429E+01 -.126E+03   -.110E+02 0.358E+01 0.127E+03   -.336E+01 -.154E+01 0.575E+00   -.979E-02 -.156E-01 0.156E-02
   -.309E+02 -.147E+02 -.103E+03   0.310E+02 0.143E+02 0.103E+03   0.286E+01 -.209E+01 0.105E+01   0.201E-02 -.253E-01 0.549E-02
   0.855E+02 -.815E+02 0.161E+03   -.877E+02 0.850E+02 -.161E+03   0.342E+01 -.249E+01 0.308E+00   0.108E-02 0.207E-01 0.756E-02
   -.124E+02 0.510E+02 -.218E+03   0.125E+02 -.549E+02 0.221E+03   -.679E-01 0.397E+01 -.173E+01   -.895E-02 -.103E-02 -.381E-03
   -.989E+02 -.298E+02 -.699E+02   0.102E+03 0.314E+02 0.716E+02   -.378E+01 -.125E+01 -.135E+01   -.362E-01 -.151E-01 -.670E-02
   -.166E+02 0.432E+02 0.196E+03   0.172E+02 -.441E+02 -.200E+03   -.345E+00 0.139E+01 0.302E+01   0.606E-01 0.221E-01 0.124E-01
   -.231E+03 -.390E+02 0.262E+03   0.270E+03 0.601E+02 -.278E+03   -.316E+02 -.165E+02 0.128E+02   0.745E-02 0.271E-01 0.520E-02
   0.186E+03 -.181E+03 -.277E+03   -.225E+03 0.202E+03 0.293E+03   0.309E+02 -.166E+02 -.107E+02   0.230E-02 -.137E-01 0.315E-02
   0.613E+01 0.203E+03 0.461E+03   -.288E+01 -.240E+03 -.491E+03   -.202E+01 0.291E+02 0.224E+02   -.337E-01 0.454E-01 0.313E-01
   -.419E+02 0.166E+03 0.487E+03   0.397E+02 -.199E+03 -.521E+03   0.192E+01 0.276E+02 0.253E+02   0.133E-01 0.403E-01 0.372E-01
   0.230E+03 -.117E+03 -.131E+03   -.268E+03 0.143E+03 0.132E+03   0.300E+02 -.194E+02 -.288E-01   -.192E-01 0.515E-02 0.513E-04
   -.174E+03 -.952E+02 0.296E+03   0.212E+03 0.107E+03 -.322E+03   -.304E+02 -.100E+02 0.196E+02   0.149E-02 0.100E-02 0.556E-02
   -.523E+01 -.229E+01 -.282E+02   0.559E+01 0.204E+01 0.296E+02   -.198E+00 0.122E+00 -.105E+01   -.241E-02 -.207E-02 0.389E-02
   0.186E+02 -.261E+02 -.113E+03   -.186E+02 0.270E+02 0.119E+03   0.248E+00 -.768E+00 -.400E+01   0.100E-01 -.153E-02 0.635E-02
   -.385E+01 -.715E+02 -.354E+03   0.310E+02 0.891E+02 0.385E+03   -.224E+02 -.139E+02 -.236E+02   0.293E-01 0.175E-01 0.884E-02
   0.109E+02 0.783E+02 -.889E+02   -.361E+02 -.739E+02 0.102E+03   0.191E+02 -.414E+01 -.105E+02   0.142E-01 0.108E-01 0.400E-02
   -.190E+02 0.136E+03 0.144E+03   0.226E+02 -.179E+03 -.158E+03   -.244E+01 0.340E+02 0.980E+01   0.195E-02 -.333E-01 0.169E-01
   -.690E+00 0.133E+03 0.161E+03   -.196E+01 -.175E+03 -.175E+03   0.163E+01 0.339E+02 0.987E+01   0.159E-01 -.195E-01 0.194E-01
   0.501E+02 -.700E+02 -.388E+03   -.830E+02 0.882E+02 0.412E+03   0.269E+02 -.143E+02 -.178E+02   -.138E-01 -.252E-01 -.128E-01
   -.336E+01 0.894E+02 -.125E+03   0.263E+02 -.858E+02 0.144E+03   -.175E+02 -.355E+01 -.142E+02   0.550E-01 0.296E-01 0.244E-01
   0.570E+02 0.208E+02 0.877E+02   -.629E+02 -.249E+02 -.877E+02   0.393E+01 0.280E+01 -.348E+00   0.143E-01 0.281E-01 0.117E-01
   0.168E+02 0.459E+02 0.174E+03   -.194E+02 -.479E+02 -.180E+03   0.199E+01 0.161E+01 0.400E+01   -.660E-01 0.194E-01 0.651E-02
   -.227E+03 -.123E+03 -.143E+03   0.265E+03 0.148E+03 0.145E+03   -.302E+02 -.185E+02 -.964E+00   -.772E-02 -.194E-01 0.119E-01
   0.178E+03 -.811E+02 0.229E+03   -.218E+03 0.929E+02 -.252E+03   0.315E+02 -.971E+01 0.166E+02   -.187E-02 -.267E-01 0.126E-01
   0.112E+02 0.191E+03 0.504E+03   -.595E+01 -.226E+03 -.535E+03   -.439E+01 0.286E+02 0.230E+02   0.424E-01 -.376E-02 -.465E-02
   0.301E+01 0.279E+03 0.419E+03   -.529E+01 -.323E+03 -.434E+03   0.919E+00 0.340E+02 0.108E+02   -.430E-02 -.114E-01 -.697E-02
   0.232E+03 -.404E+02 0.159E+03   -.273E+03 0.632E+02 -.167E+03   0.320E+02 -.176E+02 0.634E+01   0.234E-01 -.146E-02 0.656E-02
   -.170E+03 -.186E+03 -.341E+03   0.206E+03 0.207E+03 0.360E+03   -.295E+02 -.163E+02 -.137E+02   -.458E-03 -.365E-01 0.483E-02
   0.922E+00 -.380E+02 -.151E+02   -.803E+00 0.397E+02 0.120E+02   -.155E+00 -.111E+01 0.213E+01   -.142E-02 -.256E-01 0.986E-02
   -.179E+02 -.296E+02 -.221E+03   0.174E+02 0.323E+02 0.228E+03   0.167E+00 -.206E+01 -.538E+01   -.752E-02 -.230E-01 -.603E-03
   -.266E+03 -.778E+02 -.108E+03   0.305E+03 0.101E+03 0.110E+03   -.309E+02 -.183E+02 -.124E+01   -.342E-01 -.237E-01 -.463E-02
   0.210E+03 -.176E+03 0.355E+03   -.250E+03 0.195E+03 -.366E+03   0.309E+02 -.166E+02 0.657E+01   -.302E-01 0.203E-01 0.683E-02
   -.232E+00 0.177E+03 -.449E+03   0.596E+01 -.212E+03 0.479E+03   -.422E+01 0.287E+02 -.228E+02   0.490E-03 0.283E-02 -.106E-02
   -.410E+02 0.136E+03 -.504E+03   0.393E+02 -.169E+03 0.539E+03   0.119E+01 0.272E+02 -.262E+02   -.203E-01 -.603E-02 -.635E-02
   0.222E+03 -.152E+03 0.275E+03   -.254E+03 0.180E+03 -.292E+03   0.245E+02 -.225E+02 0.121E+02   0.763E-02 0.221E-01 0.103E-01
   -.199E+03 -.873E+02 -.216E+03   0.240E+03 0.983E+02 0.235E+03   -.321E+02 -.970E+01 -.141E+02   -.622E-01 -.300E-02 -.110E-01
   -.537E+02 0.242E+02 0.515E+02   0.578E+02 -.276E+02 -.550E+02   -.267E+01 0.215E+01 0.210E+01   -.126E-01 -.103E-01 -.415E-02
   0.540E+02 -.133E+03 -.116E+04   -.558E+02 0.155E+03 0.119E+04   0.141E+01 -.192E+02 -.252E+02   0.126E+00 0.126E-01 -.697E-01
 -----------------------------------------------------------------------------------------------
   0.304E+01 -.393E+01 0.426E+01   -.270E-12 0.483E-12 -.227E-12   -.314E+01 0.393E+01 -.446E+01   0.104E+00 0.707E-02 0.233E+00
 
 
 POSITION                                       TOTAL-FORCE (eV/Angst)
 -----------------------------------------------------------------------------------
     -0.01346      2.22929      5.75727        -0.022217      3.491012     -1.191504
      1.09855      4.14684      5.84763        -3.911647      0.377134     -0.004153
     -1.14740      4.10586      5.76838         3.813545      0.398135      0.412349
      5.17561      0.59516      6.82687        -0.064932     -0.426635      0.717101
      3.13925      4.14572      5.56909        -0.281915      0.937284     -0.570795
      1.06731      0.53588      6.05720        -0.019134     -0.347623     -0.286670
     -3.23407      7.47679      6.53267         0.727343      2.755407      1.698591
     -2.00208      9.31971      6.76622        -2.643095     -2.437134      0.404965
     -4.21457      9.40563      6.72469         2.845305     -2.353409      0.681725
      2.16526      5.69403      6.77570        -0.856729     -0.584731      0.379287
      0.03547      9.24088      6.60110         0.112761     -0.529863     -0.806280
     -2.29426      5.69109      6.48906         0.730360     -0.922167      1.189353
      6.28791      2.24068      6.38151         0.178194      2.738733     -1.434530
      7.29350      3.96773      5.39842        -3.072271     -1.329267     -0.713799
      5.14829      4.04574      5.87873         3.172470     -2.200506     -0.516908
     11.37972      0.38919      6.21945        -0.104954     -0.534845     -0.317074
      9.31259      3.90699      5.31738         0.750793      0.663577     -0.856246
      7.35078      0.58337      6.91243         0.296388     -0.187178      0.640008
      3.20992      7.38042      7.17186        -1.256295      3.315095      1.658207
      4.25119      9.30881      7.05888        -3.254126     -2.265601      1.668823
      2.03334      9.28936      7.03791         3.014342     -2.549939      1.155573
      8.18441      5.76313      5.67688         1.149902      1.038981     -0.239808
      6.27316      9.32736      7.21797         0.005366      0.043714      0.991744
      4.28565      5.73146      6.61311        -0.803326      0.289981      0.341684
     -0.01292      3.50225      5.73788         0.299200      0.568070     -0.670227
      1.04973      1.66604      5.68285         7.860898      4.637044     -3.787232
      4.17831     -0.03871      7.04913        -7.705908      4.408261      4.799068
      4.18031      3.62212      5.29721         1.216045     -7.371177     -7.288005
      2.04758      3.73791      5.26166        -0.332937     -6.063442     -7.962993
      5.19905      1.77345      6.65755        -7.758635      6.439004      1.171872
     -4.17849     10.37442      6.02986         7.750863      2.312444     -6.512943
      0.01514      0.01925      6.51836         0.158524     -0.124761      0.427026
     -3.12460      8.71679      6.75350         0.237452      0.198642      1.399940
     -2.35012      6.76887      6.99014         4.857659      3.744083      7.841963
      1.09805      5.11253      6.63593        -6.059866      0.318102      2.803297
      1.09008      8.65820      6.61127         1.223830     -8.835944     -3.778875
     -1.01655      8.67205      6.47155        -1.012077     -8.806440     -3.797510
      2.18041      6.73531      7.35526        -6.028731      3.899364      6.828530
     -1.24698      5.06637      6.54907         5.492421      0.071504      4.390283
      9.22492      5.05059      5.88584        -1.915454     -1.249298     -0.369956
      6.25804      3.36053      5.79579        -0.625905     -0.377093     -1.612105
      7.35947      1.75711      6.68571         7.958394      6.190577      0.761364
      4.16245     10.23868      6.31596        -8.089113      2.067935     -6.037963
     -2.03180      3.66210      5.11383         0.884614     -6.402741     -7.963164
      8.29024      3.33265      5.12364        -1.370714     -9.546595     -4.343112
     11.36832      1.52437      5.87427        -8.150838      5.170649     -1.968154
      8.30081     -0.05962      7.28299         7.040702      4.491774      5.593177
      6.26576     -0.04579      6.72717        -0.042389      0.542740     -0.923977
      3.14175      8.64554      7.21169        -0.361085      0.533715      1.918341
      4.26857      6.88905      6.91827         8.559418      4.754152      0.204753
      7.21106      5.19019      5.34258        -9.074210      3.244009     -4.418936
     -5.11637      8.97562      7.40714         1.521225     -7.166940      7.121971
      5.22610      8.90171      7.64167        -0.501263     -5.783371      8.423435
     -4.16619      7.12793      5.86649        -6.827714      5.935265     -4.502736
      5.25639      5.05644      6.53158         9.104393      1.310661      4.814751
      3.17404      5.19494      6.30668         1.468431     -1.197606     -1.378672
     -0.12055      6.19125      7.53023        -0.283360      2.707257      3.815151
 -----------------------------------------------------------------------------------
    total drift:                               -0.003974      0.005630      0.034039


--------------------------------------------------------------------------------------------------------



  FREE ENERGIE OF THE ION-ELECTRON SYSTEM (eV)
  ---------------------------------------------------
  free  energy   TOTEN  =      -432.29900944 eV

  energy  without entropy=     -432.29900944  energy(sigma->0) =     -432.29900944
 


--------------------------------------------------------------------------------------------------------


    POTLOK:  cpu time    0.0622: real time    0.0630


--------------------------------------------------------------------------------------------------------


 stress matrix after NEB project (eV)
    474.67139     -8.64839     13.01220
     -8.64839    425.17662     23.51972
     13.01220     23.51972     92.63135
  FORCES: max atom, RMS    10.601503    6.723157
  FORCE total and by dimension   50.758719    9.546595
  Stress total and by dimension  645.184651  474.671394
     LOOP+:  cpu time  116.7798: real time  119.4596
    4ORBIT:  cpu time    0.0000: real time    0.0000
 


 total charge     
 
# of ion       s       p       d       tot
------------------------------------------
    1        0.967   2.117   0.000   3.083
    2        0.949   2.094   0.000   3.043
    3        0.953   2.105   0.000   3.057
    4        0.980   2.133   0.000   3.113
    5        0.967   2.125   0.000   3.092
    6        0.985   2.146   0.000   3.131
    7        0.966   2.110   0.000   3.077
    8        0.964   2.103   0.000   3.067
    9        0.971   2.106   0.000   3.077
   10        0.988   2.174   0.000   3.163
   11        0.982   2.138   0.000   3.119
   12        0.995   2.187   0.000   3.182
   13        0.963   2.103   0.000   3.066
   14        0.959   2.104   0.000   3.063
   15        0.956   2.104   0.000   3.060
   16        0.987   2.152   0.000   3.139
   17        0.970   2.138   0.000   3.108
   18        0.975   2.130   0.000   3.106
   19        0.964   2.106   0.000   3.070
   20        0.967   2.101   0.000   3.068
   21        0.959   2.093   0.000   3.052
   22        0.976   2.134   0.000   3.110
   23        0.976   2.119   0.000   3.095
   24        0.982   2.153   0.000   3.136
   25        1.285   3.053   0.000   4.338
   26        1.329   2.958   0.000   4.287
   27        1.326   2.952   0.000   4.278
   28        1.326   2.919   0.000   4.245
   29        1.328   2.944   0.000   4.272
   30        1.324   2.947   0.000   4.271
   31        1.336   2.948   0.000   4.284
   32        1.311   3.095   0.000   4.405
   33        1.298   3.071   0.000   4.369
   34        1.324   2.963   0.000   4.287
   35        1.302   2.975   0.000   4.277
   36        1.321   2.944   0.000   4.265
   37        1.320   2.943   0.000   4.263
   38        1.319   2.953   0.000   4.272
   39        1.304   2.981   0.000   4.285
   40        1.311   3.112   0.000   4.423
   41        1.293   3.052   0.000   4.346
   42        1.321   2.935   0.000   4.256
   43        1.334   2.955   0.000   4.289
   44        1.328   2.945   0.000   4.272
   45        1.326   2.922   0.000   4.247
   46        1.330   2.964   0.000   4.293
   47        1.325   2.942   0.000   4.267
   48        1.307   3.098   0.000   4.405
   49        1.290   3.035   0.000   4.325
   50        1.330   2.957   0.000   4.287
   51        1.325   2.943   0.000   4.269
   52        1.323   2.930   0.000   4.252
   53        1.324   2.934   0.000   4.258
   54        1.321   2.939   0.000   4.260
   55        1.334   2.940   0.000   4.274
   56        1.309   3.103   0.000   4.412
   57        1.311   0.997  10.157  12.465
--------------------------------------------------
tot         66.793 147.326  10.157 224.277
 


 magnetization (x)
 
# of ion       s       p       d       tot
------------------------------------------
    1        0.000  -0.000   0.000   0.000
    2        0.000   0.000   0.000   0.000
    3        0.000  -0.000   0.000  -0.000
    4       -0.000  -0.000   0.000  -0.000
    5        0.000   0.000   0.000   0.000
    6        0.000   0.000   0.000   0.000
    7       -0.000  -0.000   0.000  -0.000
    8        0.000   0.000   0.000   0.000
    9        0.000  -0.000   0.000   0.000
   10        0.000   0.000   0.000   0.000
   11        0.000  -0.000   0.000  -0.000
   12        0.000   0.000   0.000   0.000
   13        0.000  -0.000   0.000  -0.000
   14       -0.000  -0.000   0.000  -0.000
   15        0.000   0.000   0.000   0.000
   16        0.000  -0.000   0.000   0.000
   17       -0.000  -0.000   0.000  -0.000
   18        0.000  -0.000   0.000  -0.000
   19        0.000   0.000   0.000   0.000
   20        0.000  -0.000   0.000  -0.000
   21        0.000  -0.000   0.000   0.000
   22       -0.000  -0.000   0.000  -0.000
   23        0.000  -0.000   0.000  -0.000
   24        0.000   0.000   0.000   0.000
   25        0.000  -0.000   0.000  -0.000
   26        0.000  -0.000   0.000  -0.000
   27        0.000   0.000   0.000   0.000
   28       -0.000  -0.000   0.000  -0.000
   29       -0.000   0.000   0.000   0.000
   30        0.000  -0.000   0.000  -0.000
   31        0.000  -0.000   0.000  -0.000
   32        0.000   0.000   0.000   0.000
   33       -0.000   0.000   0.000   0.000
   34        0.000   0.000   0.000   0.000
   35        0.000   0.000   0.000   0.000
   36        0.000  -0.000   0.000   0.000
   37        0.000  -0.000   0.000  -0.000
   38        0.000  -0.000   0.000   0.000
   39        0.000   0.000   0.000   0.000
   40       -0.000  -0.000   0.000  -0.000
   41       -0.000  -0.000   0.000  -0.000
   42       -0.000  -0.000   0.000  -0.000
   43        0.000   0.000   0.000   0.000
   44       -0.000   0.000   0.000   0.000
   45       -0.000   0.000   0.000   0.000
   46        0.000  -0.000   0.000   0.000
   47        0.000   0.000   0.000   0.000
   48        0.000  -0.000   0.000  -0.000
   49        0.000  -0.000   0.000  -0.000
   50        0.000  -0.000   0.000  -0.000
   51       -0.000   0.000   0.000  -0.000
   52        0.000   0.000   0.000   0.000
   53       -0.000  -0.000   0.000  -0.000
   54       -0.000   0.000   0.000   0.000
   55        0.000  -0.000   0.000  -0.000
   56        0.000  -0.000   0.000  -0.000
   57       -0.000  -0.000   0.000  -0.000
--------------------------------------------------
tot          0.000  -0.000   0.000   0.000
 
 BZINTS: Fermi energy: -0.745436;270.000000 electrons
         Band energy:***********;  BLOECHL correction:  0.000000

 total amount of memory used by VASP MPI-rank0    70080. kBytes
=======================================================================

   base      :      30000. kBytes
   nonl-proj :       9412. kBytes
   fftplans  :       2626. kBytes
   grid      :       6948. kBytes
   one-center:        155. kBytes
   wavefun   :      20939. kBytes
 
  
  
 General timing and accounting informations for this job:
 ========================================================
  
                  Total CPU time used (sec):      128.574
                            User time (sec):      123.049
                          System time (sec):        5.525
                         Elapsed time (sec):      139.585
  
                   Maximum memory used (kb):      437076.
                   Average memory used (kb):           0.
  
                          Minor page faults:       677006
                          Major page faults:            0
                 Voluntary context switches:         8276
