       N       E                     dE             d eps       ncg     rms          ort
DAV:   1     0.278205699608E+04    0.27821E+04   -0.11456E+05   688   0.125E+03
DAV:   2    -0.277026017107E+02   -0.28098E+04   -0.27119E+04   688   0.324E+02
DAV:   3    -0.507915243814E+03   -0.48021E+03   -0.47666E+03   688   0.151E+02
DAV:   4    -0.525040592209E+03   -0.17125E+02   -0.16709E+02   688   0.401E+01
DAV:   5    -0.525729436321E+03   -0.68884E+00   -0.68174E+00   688   0.628E+00
SDA:   6    -0.426321115661E+03    0.99408E+02   -0.68174E+00   688   0.234E+03 0.000E+00
CGA:   7    -0.467815415078E+03   -0.41494E+02   -0.41452E+02   688   0.282E+02-0.768E-01
CGA:   8    -0.472214378136E+03   -0.43990E+01   -0.44775E+01   688   0.113E+02 0.149E+00
CGA:   9    -0.474149524611E+03   -0.19351E+01   -0.19343E+01   688   0.309E+01-0.687E-01
CGA:  10    -0.474926252976E+03   -0.77673E+00   -0.77664E+00   688   0.108E+01 0.160E-02
CGA:  11    -0.475255200230E+03   -0.32895E+00   -0.33022E+00   688   0.430E+00-0.125E-01
CGA:  12    -0.475372984959E+03   -0.11778E+00   -0.11788E+00   688   0.192E+00-0.162E-02
CGA:  13    -0.475415449469E+03   -0.42465E-01   -0.42470E-01   688   0.873E-01-0.305E-03
CGA:  14    -0.475434819739E+03   -0.19370E-01   -0.19348E-01   688   0.312E-01 0.849E-03
CGA:  15    -0.475443078173E+03   -0.82584E-02   -0.82330E-02   688   0.120E-01 0.317E-03
CGA:  16    -0.475446146177E+03   -0.30680E-02   -0.30560E-02   688   0.505E-02 0.189E-03
CGA:  17    -0.475447637970E+03   -0.14918E-02   -0.14865E-02   688   0.205E-02 0.473E-04
CGA:  18    -0.475448305000E+03   -0.66703E-03   -0.66650E-03   688   0.128E-02 0.228E-05
CGA:  19    -0.475448615865E+03   -0.31086E-03   -0.31083E-03   688   0.710E-03 0.598E-06
CGA:  20    -0.475448834207E+03   -0.21834E-03   -0.21831E-03   688   0.294E-03-0.769E-07
CGA:  21    -0.475448947603E+03   -0.11340E-03   -0.11337E-03   688   0.150E-03 0.744E-07
CGA:  22    -0.475448996544E+03   -0.48941E-04   -0.49104E-04   688   0.126E-03-0.182E-05
   1 F= -.47967118E+03 E0= -.47964527E+03  d E =-.479671E+03  mag=     0.1285
       N       E                     dE             d eps       ncg     rms          ort
SDA:   1    -0.300231909301E+03    0.17522E+03    0.00000E+00   688   0.493E+03 0.000E+00
CGA:   2    -0.434523149780E+03   -0.13429E+03   -0.13494E+03   688   0.150E+03-0.117E+02
CGA:   3    -0.468968110326E+03   -0.34445E+02   -0.34482E+02   688   0.326E+02 0.242E+01
CGA:   4    -0.476095988036E+03   -0.71279E+01   -0.71327E+01   688   0.820E+01 0.109E+00
CGA:   5    -0.477935765443E+03   -0.18398E+01   -0.18381E+01   688   0.197E+01-0.380E-01
CGA:   6    -0.478382938479E+03   -0.44717E+00   -0.44728E+00   688   0.562E+00 0.559E-02
CGA:   7    -0.478534878302E+03   -0.15194E+00   -0.15212E+00   688   0.253E+00-0.377E-02
CGA:   8    -0.478600670214E+03   -0.65792E-01   -0.65833E-01   688   0.126E+00-0.102E-02
CGA:   9    -0.478635391477E+03   -0.34721E-01   -0.34727E-01   688   0.499E-01-0.494E-04
CGA:  10    -0.478650036711E+03   -0.14645E-01   -0.14650E-01   688   0.169E-01-0.527E-04
CGA:  11    -0.478654950501E+03   -0.49138E-02   -0.49157E-02   688   0.660E-02-0.236E-04
CGA:  12    -0.478656571326E+03   -0.16208E-02   -0.16207E-02   688   0.317E-02-0.270E-04
CGA:  13    -0.478657392331E+03   -0.82100E-03   -0.82119E-03   688   0.132E-02-0.907E-05
CGA:  14    -0.478657830826E+03   -0.43849E-03   -0.43943E-03   688   0.695E-03-0.949E-05
CGA:  15    -0.478658041577E+03   -0.21075E-03   -0.21084E-03   688   0.395E-03-0.720E-06
CGA:  16    -0.478658146882E+03   -0.10531E-03   -0.10536E-03   688   0.198E-03-0.439E-05
CGA:  17    -0.478658199196E+03   -0.52314E-04   -0.52325E-04   688   0.832E-04-0.856E-06
   2 F= -.48291785E+03 E0= -.48289619E+03  d E =-.324667E+01  mag=     0.0350
       N       E                     dE             d eps       ncg     rms          ort
SDA:   1    -0.455362632357E+03    0.23296E+02    0.00000E+00   688   0.626E+02 0.000E+00
CGA:   2    -0.473663349675E+03   -0.18301E+02   -0.18254E+02   688   0.197E+02 0.901E+00
CGA:   3    -0.478271406863E+03   -0.46081E+01   -0.45905E+01   688   0.570E+01-0.215E+00
CGA:   4    -0.479305225870E+03   -0.10338E+01   -0.10444E+01   688   0.129E+01 0.159E-01
CGA:   5    -0.479562697256E+03   -0.25747E+00   -0.25733E+00   688   0.299E+00-0.242E-03
CGA:   6    -0.479633258392E+03   -0.70561E-01   -0.70576E-01   688   0.772E-01 0.396E-03
CGA:   7    -0.479656554005E+03   -0.23296E-01   -0.23297E-01   688   0.348E-01-0.643E-05
CGA:   8    -0.479665938843E+03   -0.93848E-02   -0.93815E-02   688   0.181E-01 0.128E-03
CGA:   9    -0.479670590969E+03   -0.46521E-02   -0.46522E-02   688   0.685E-02-0.431E-04
CGA:  10    -0.479672565209E+03   -0.19742E-02   -0.19735E-02   688   0.224E-02 0.160E-04
CGA:  11    -0.479673195433E+03   -0.63022E-03   -0.63004E-03   688   0.901E-03 0.559E-05
CGA:  12    -0.479673417278E+03   -0.22184E-03   -0.22197E-03   688   0.383E-03 0.770E-05
CGA:  13    -0.479673531751E+03   -0.11447E-03   -0.11452E-03   688   0.161E-03-0.152E-05
CGA:  14    -0.479673586350E+03   -0.54599E-04   -0.54509E-04   688   0.862E-04 0.101E-05
   3 F= -.48392342E+03 E0= -.48390047E+03  d E =-.425224E+01  mag=     0.0295
       N       E                     dE             d eps       ncg     rms          ort
SDA:   1    -0.413490062604E+03    0.66183E+02    0.00000E+00   688   0.185E+03 0.000E+00
CGA:   2    -0.462118848101E+03   -0.48629E+02   -0.48632E+02   688   0.725E+02 0.826E+00
CGA:   3    -0.477021450723E+03   -0.14903E+02   -0.15199E+02   688   0.208E+02 0.329E-01
CGA:   4    -0.481202366827E+03   -0.41809E+01   -0.41750E+01   688   0.408E+01 0.557E-02
CGA:   5    -0.482139352871E+03   -0.93699E+00   -0.93762E+00   688   0.102E+01 0.856E-02
CGA:   6    -0.482374389249E+03   -0.23504E+00   -0.23528E+00   688   0.315E+00 0.327E-02
CGA:   7    -0.482461894034E+03   -0.87505E-01   -0.87436E-01   688   0.136E+00 0.201E-02
CGA:   8    -0.482504130406E+03   -0.42236E-01   -0.42199E-01   688   0.604E-01 0.528E-03
CGA:   9    -0.482522402098E+03   -0.18272E-01   -0.18269E-01   688   0.234E-01 0.714E-04
CGA:  10    -0.482528894237E+03   -0.64921E-02   -0.64908E-02   688   0.878E-02 0.678E-04
CGA:  11    -0.482531082303E+03   -0.21881E-02   -0.21880E-02   688   0.365E-02 0.878E-05
CGA:  12    -0.482532046914E+03   -0.96461E-03   -0.96461E-03   688   0.124E-02-0.120E-05
CGA:  13    -0.482532493147E+03   -0.44623E-03   -0.44615E-03   688   0.530E-03 0.914E-06
CGA:  14    -0.482532664590E+03   -0.17144E-03   -0.17141E-03   688   0.307E-03 0.563E-06
CGA:  15    -0.482532745857E+03   -0.81267E-04   -0.81260E-04   688   0.125E-03-0.124E-05
   4 F= -.48680312E+03 E0= -.48677535E+03  d E =-.287970E+01  mag=     0.0335
       N       E                     dE             d eps       ncg     rms          ort
SDA:   1    -0.482524709343E+03    0.79552E-02    0.00000E+00   688   0.230E-01 0.000E+00
CGA:   2    -0.482530956825E+03   -0.62475E-02   -0.62475E-02   688   0.832E-02-0.166E-04
CGA:   3    -0.482532854828E+03   -0.18980E-02   -0.18965E-02   688   0.218E-02-0.219E-04
CGA:   4    -0.482533294239E+03   -0.43941E-03   -0.43940E-03   688   0.460E-03 0.692E-06
CGA:   5    -0.482533395116E+03   -0.10088E-03   -0.10079E-03   688   0.121E-03-0.186E-05
CGA:   6    -0.482533422920E+03   -0.27804E-04   -0.27817E-04   688   0.374E-04 0.378E-06
   5 F= -.48680361E+03 E0= -.48677587E+03  d E =-.288019E+01  mag=     0.0374
       N       E                     dE             d eps       ncg     rms          ort
SDA:   1    -0.466914565647E+03    0.15619E+02    0.00000E+00   688   0.417E+02 0.000E+00
CGA:   2    -0.479146175550E+03   -0.12232E+02   -0.12237E+02   688   0.139E+02-0.102E+00
CGA:   3    -0.482404885603E+03   -0.32587E+01   -0.32589E+01   688   0.372E+01 0.300E-02
CGA:   4    -0.483096223879E+03   -0.69134E+00   -0.69346E+00   688   0.782E+00 0.270E-02
CGA:   5    -0.483276065237E+03   -0.17984E+00   -0.17977E+00   688   0.204E+00-0.653E-03
CGA:   6    -0.483327070232E+03   -0.51005E-01   -0.51008E-01   688   0.730E-01 0.166E-03
CGA:   7    -0.483348543105E+03   -0.21473E-01   -0.21469E-01   688   0.342E-01 0.946E-04
CGA:   8    -0.483359097545E+03   -0.10554E-01   -0.10553E-01   688   0.148E-01 0.351E-04
CGA:   9    -0.483363218398E+03   -0.41209E-02   -0.41207E-02   688   0.602E-02 0.228E-04
CGA:  10    -0.483364661284E+03   -0.14429E-02   -0.14431E-02   688   0.224E-02 0.643E-05
CGA:  11    -0.483365262694E+03   -0.60141E-03   -0.60142E-03   688   0.727E-03-0.127E-05
CGA:  12    -0.483365501579E+03   -0.23889E-03   -0.23898E-03   688   0.299E-03-0.121E-05
CGA:  13    -0.483365598359E+03   -0.96780E-04   -0.96912E-04   688   0.148E-03-0.220E-05
   6 F= -.48764317E+03 E0= -.48761709E+03  d E =-.839559E+00  mag=     0.0365
       N       E                     dE             d eps       ncg     rms          ort
SDA:   1    -0.482988995114E+03    0.37651E+00    0.00000E+00   688   0.977E+00 0.000E+00
CGA:   2    -0.483282069682E+03   -0.29307E+00   -0.29310E+00   688   0.309E+00-0.458E-03
CGA:   3    -0.483358698212E+03   -0.76629E-01   -0.76633E-01   688   0.714E-01 0.963E-04
CGA:   4    -0.483373109194E+03   -0.14411E-01   -0.14410E-01   688   0.155E-01 0.198E-04
CGA:   5    -0.483376661555E+03   -0.35524E-02   -0.35533E-02   688   0.443E-02 0.111E-04
CGA:   6    -0.483377724566E+03   -0.10630E-02   -0.10631E-02   688   0.166E-02 0.777E-05
CGA:   7    -0.483378210715E+03   -0.48615E-03   -0.48611E-03   688   0.788E-03 0.102E-05
CGA:   8    -0.483378450029E+03   -0.23931E-03   -0.23914E-03   688   0.363E-03 0.465E-05
CGA:   9    -0.483378550234E+03   -0.10021E-03   -0.10018E-03   688   0.139E-03 0.356E-05
CGA:  10    -0.483378588036E+03   -0.37802E-04   -0.37800E-04   688   0.506E-04 0.106E-05
   7 F= -.48765711E+03 E0= -.48763131E+03  d E =-.853508E+00  mag=     0.0360
       N       E                     dE             d eps       ncg     rms          ort
SDA:   1    -0.472131719906E+03    0.11247E+02    0.00000E+00   688   0.314E+02 0.000E+00
CGA:   2    -0.481261739973E+03   -0.91300E+01   -0.91320E+01   688   0.942E+01-0.481E-01
CGA:   3    -0.483470778348E+03   -0.22090E+01   -0.22084E+01   688   0.240E+01-0.467E-02
CGA:   4    -0.483932118700E+03   -0.46134E+00   -0.46241E+00   688   0.522E+00 0.203E-02
CGA:   5    -0.484044962591E+03   -0.11284E+00   -0.11279E+00   688   0.129E+00-0.210E-03
CGA:   6    -0.484077204574E+03   -0.32242E-01   -0.32243E-01   688   0.396E-01 0.417E-04
CGA:   7    -0.484089448635E+03   -0.12244E-01   -0.12244E-01   688   0.180E-01 0.353E-05
CGA:   8    -0.484094884725E+03   -0.54361E-02   -0.54335E-02   688   0.927E-02 0.483E-04
CGA:   9    -0.484097165173E+03   -0.22804E-02   -0.22806E-02   688   0.374E-02 0.123E-04
CGA:  10    -0.484098150061E+03   -0.98489E-03   -0.98489E-03   688   0.119E-02 0.364E-05
CGA:  11    -0.484098507029E+03   -0.35697E-03   -0.35691E-03   688   0.410E-03 0.188E-05
CGA:  12    -0.484098634847E+03   -0.12782E-03   -0.12781E-03   688   0.203E-03 0.102E-06
CGA:  13    -0.484098688832E+03   -0.53985E-04   -0.53988E-04   688   0.969E-04 0.123E-05
   8 F= -.48838037E+03 E0= -.48835436E+03  d E =-.723254E+00  mag=     0.0376
       N       E                     dE             d eps       ncg     rms          ort
SDA:   1    -0.432473465015E+03    0.51625E+02    0.00000E+00   688   0.141E+03 0.000E+00
CGA:   2    -0.471122757960E+03   -0.38649E+02   -0.38649E+02   688   0.461E+02 0.605E-01
CGA:   3    -0.481583198667E+03   -0.10460E+02   -0.10419E+02   688   0.122E+02-0.241E+00
CGA:   4    -0.483892394187E+03   -0.23092E+01   -0.23253E+01   688   0.240E+01 0.304E-01
CGA:   5    -0.484440589342E+03   -0.54820E+00   -0.54775E+00   688   0.595E+00-0.401E-02
CGA:   6    -0.484588956181E+03   -0.14837E+00   -0.14838E+00   688   0.192E+00 0.256E-03
CGA:   7    -0.484641890332E+03   -0.52934E-01   -0.52937E-01   688   0.971E-01-0.103E-03
CGA:   8    -0.484666677803E+03   -0.24787E-01   -0.24794E-01   688   0.487E-01 0.492E-03
CGA:   9    -0.484679383587E+03   -0.12706E-01   -0.12706E-01   688   0.170E-01 0.405E-04
CGA:  10    -0.484684606576E+03   -0.52230E-02   -0.52219E-02   688   0.573E-02 0.207E-04
CGA:  11    -0.484686204739E+03   -0.15982E-02   -0.15983E-02   688   0.250E-02-0.164E-05
CGA:  12    -0.484686804803E+03   -0.60006E-03   -0.60010E-03   688   0.109E-02-0.588E-06
CGA:  13    -0.484687133293E+03   -0.32849E-03   -0.32846E-03   688   0.453E-03 0.117E-05
CGA:  14    -0.484687277118E+03   -0.14382E-03   -0.14389E-03   688   0.236E-03-0.114E-05
CGA:  15    -0.484687343306E+03   -0.66188E-04   -0.66204E-04   688   0.103E-03-0.111E-05
   9 F= -.48897845E+03 E0= -.48895215E+03  d E =-.132133E+01  mag=     0.0424
       N       E                     dE             d eps       ncg     rms          ort
SDA:   1    -0.482472713212E+03    0.22146E+01    0.00000E+00   688   0.670E+01 0.000E+00
CGA:   2    -0.484416680892E+03   -0.19440E+01   -0.19444E+01   688   0.199E+01-0.109E-01
CGA:   3    -0.484873373429E+03   -0.45669E+00   -0.45704E+00   688   0.544E+00 0.278E-02
CGA:   4    -0.484973417358E+03   -0.10004E+00   -0.99508E-01   688   0.121E+00-0.217E-03
CGA:   5    -0.484998759500E+03   -0.25342E-01   -0.25390E-01   688   0.304E-01 0.235E-03
CGA:   6    -0.485006036847E+03   -0.72773E-02   -0.72771E-02   688   0.902E-02 0.902E-05
CGA:   7    -0.485008699297E+03   -0.26624E-02   -0.26625E-02   688   0.412E-02-0.427E-05
CGA:   8    -0.485009846130E+03   -0.11468E-02   -0.11468E-02   688   0.225E-02 0.526E-05
CGA:   9    -0.485010430702E+03   -0.58457E-03   -0.58460E-03   688   0.870E-03 0.537E-05
CGA:  10    -0.485010682313E+03   -0.25161E-03   -0.25152E-03   688   0.309E-03 0.389E-05
CGA:  11    -0.485010767603E+03   -0.85290E-04   -0.85299E-04   688   0.131E-03-0.885E-06
  10 F= -.48930399E+03 E0= -.48927800E+03  d E =-.325543E+00  mag=     0.0443
       N       E                     dE             d eps       ncg     rms          ort
SDA:   1    -0.462770485564E+03    0.22240E+02    0.00000E+00   688   0.612E+02 0.000E+00
CGA:   2    -0.480151095844E+03   -0.17381E+02   -0.17389E+02   688   0.189E+02-0.212E+00
CGA:   3    -0.484358239570E+03   -0.42071E+01   -0.42101E+01   688   0.530E+01 0.212E-01
CGA:   4    -0.485333638859E+03   -0.97540E+00   -0.97324E+00   688   0.109E+01-0.348E-02
CGA:   5    -0.485575780099E+03   -0.24214E+00   -0.24247E+00   688   0.268E+00 0.311E-02
CGA:   6    -0.485638723068E+03   -0.62943E-01   -0.62916E-01   688   0.909E-01-0.415E-03
CGA:   7    -0.485662090425E+03   -0.23367E-01   -0.23367E-01   688   0.423E-01 0.230E-03
CGA:   8    -0.485673442670E+03   -0.11352E-01   -0.11353E-01   688   0.210E-01-0.169E-04
CGA:   9    -0.485679346945E+03   -0.59043E-02   -0.59028E-02   688   0.824E-02 0.435E-04
CGA:  10    -0.485681684283E+03   -0.23373E-02   -0.23374E-02   688   0.328E-02 0.640E-05
CGA:  11    -0.485682479627E+03   -0.79534E-03   -0.79537E-03   688   0.135E-02-0.140E-05
CGA:  12    -0.485682831406E+03   -0.35178E-03   -0.35178E-03   688   0.486E-03-0.937E-06
CGA:  13    -0.485682988622E+03   -0.15722E-03   -0.15727E-03   688   0.256E-03-0.732E-06
CGA:  14    -0.485683055485E+03   -0.66864E-04   -0.66863E-04   688   0.129E-03 0.114E-05
  11 F= -.48998904E+03 E0= -.48996407E+03  d E =-.101059E+01  mag=     0.0398
       N       E                     dE             d eps       ncg     rms          ort
SDA:   1    -0.393296178922E+03    0.92387E+02    0.00000E+00   688   0.258E+03 0.000E+00
CGA:   2    -0.460466364569E+03   -0.67170E+02   -0.67171E+02   688   0.837E+02 0.240E+00
CGA:   3    -0.480127501746E+03   -0.19661E+02   -0.19611E+02   688   0.215E+02-0.593E+00
CGA:   4    -0.484277057758E+03   -0.41496E+01   -0.41669E+01   688   0.453E+01 0.368E-01
CGA:   5    -0.485228443592E+03   -0.95139E+00   -0.95823E+00   688   0.137E+01 0.395E-01
CGA:   6    -0.485511800403E+03   -0.28336E+00   -0.28187E+00   688   0.480E+00-0.743E-02
CGA:   7    -0.485621248037E+03   -0.10945E+00   -0.10941E+00   688   0.196E+00-0.681E-03
CGA:   8    -0.485677522133E+03   -0.56274E-01   -0.56242E-01   688   0.889E-01 0.592E-03
CGA:   9    -0.485703468947E+03   -0.25947E-01   -0.25958E-01   688   0.432E-01-0.166E-03
CGA:  10    -0.485713065025E+03   -0.95961E-02   -0.95875E-02   688   0.199E-01-0.551E-04
CGA:  11    -0.485717919271E+03   -0.48542E-02   -0.48545E-02   688   0.616E-02 0.114E-04
CGA:  12    -0.485719703297E+03   -0.17840E-02   -0.17847E-02   688   0.270E-02-0.112E-04
CGA:  13    -0.485720350208E+03   -0.64691E-03   -0.64683E-03   688   0.151E-02-0.485E-05
CGA:  14    -0.485720730120E+03   -0.37991E-03   -0.37991E-03   688   0.587E-03 0.853E-06
CGA:  15    -0.485720922325E+03   -0.19220E-03   -0.19263E-03   688   0.323E-03-0.533E-05
CGA:  16    -0.485720997583E+03   -0.75259E-04   -0.75256E-04   688   0.167E-03 0.390E-06
  12 F= -.49006807E+03 E0= -.49004481E+03  d E =-.108962E+01  mag=     0.0304
       N       E                     dE             d eps       ncg     rms          ort
SDA:   1    -0.467837672761E+03    0.17883E+02    0.00000E+00   688   0.481E+02 0.000E+00
CGA:   2    -0.481454343654E+03   -0.13617E+02   -0.13602E+02   688   0.157E+02 0.338E+00
CGA:   3    -0.484673268332E+03   -0.32189E+01   -0.32051E+01   688   0.525E+01-0.812E-01
CGA:   4    -0.485602002799E+03   -0.92873E+00   -0.93319E+00   688   0.961E+00 0.123E-02
CGA:   5    -0.485820069382E+03   -0.21807E+00   -0.21770E+00   688   0.234E+00-0.544E-02
CGA:   6    -0.485874642506E+03   -0.54573E-01   -0.54579E-01   688   0.777E-01 0.156E-03
CGA:   7    -0.485893087303E+03   -0.18445E-01   -0.18430E-01   688   0.368E-01-0.485E-03
CGA:   8    -0.485902705621E+03   -0.96183E-02   -0.96180E-02   688   0.168E-01 0.140E-04
CGA:   9    -0.485907523114E+03   -0.48175E-02   -0.48195E-02   688   0.766E-02-0.271E-04
CGA:  10    -0.485909443945E+03   -0.19208E-02   -0.19208E-02   688   0.325E-02-0.106E-04
CGA:  11    -0.485910201996E+03   -0.75805E-03   -0.75806E-03   688   0.117E-02 0.244E-05
CGA:  12    -0.485910513331E+03   -0.31133E-03   -0.31130E-03   688   0.465E-03 0.177E-05
CGA:  13    -0.485910636820E+03   -0.12349E-03   -0.12347E-03   688   0.241E-03 0.111E-05
CGA:  14    -0.485910702907E+03   -0.66087E-04   -0.66151E-04   688   0.112E-03-0.317E-05
  13 F= -.49024489E+03 E0= -.49022096E+03  d E =-.126644E+01  mag=     0.0307
       N       E                     dE             d eps       ncg     rms          ort
SDA:   1    -0.482409704832E+03    0.35009E+01    0.00000E+00   688   0.101E+02 0.000E+00
CGA:   2    -0.485339782748E+03   -0.29301E+01   -0.29316E+01   688   0.297E+01-0.260E-01
CGA:   3    -0.486019380934E+03   -0.67960E+00   -0.68048E+00   688   0.927E+00 0.123E-01
CGA:   4    -0.486173755082E+03   -0.15437E+00   -0.15280E+00   688   0.219E+00 0.117E-03
CGA:   5    -0.486218293188E+03   -0.44538E-01   -0.44631E-01   688   0.533E-01 0.527E-03
CGA:   6    -0.486230905365E+03   -0.12612E-01   -0.12615E-01   688   0.173E-01 0.138E-03
CGA:   7    -0.486235460827E+03   -0.45555E-02   -0.45558E-02   688   0.853E-02-0.240E-04
CGA:   8    -0.486237699821E+03   -0.22390E-02   -0.22388E-02   688   0.440E-02 0.103E-04
CGA:   9    -0.486238812177E+03   -0.11124E-02   -0.11123E-02   688   0.211E-02 0.102E-04
CGA:  10    -0.486239332932E+03   -0.52076E-03   -0.52077E-03   688   0.706E-03 0.390E-05
CGA:  11    -0.486239538550E+03   -0.20562E-03   -0.20566E-03   688   0.282E-03-0.107E-05
CGA:  12    -0.486239602213E+03   -0.63663E-04   -0.63688E-04   688   0.137E-03 0.111E-05
  14 F= -.49057680E+03 E0= -.49055295E+03  d E =-.331908E+00  mag=     0.0326
       N       E                     dE             d eps       ncg     rms          ort
SDA:   1    -0.452361236543E+03    0.33878E+02    0.00000E+00   688   0.921E+02 0.000E+00
CGA:   2    -0.478510150841E+03   -0.26149E+02   -0.26179E+02   688   0.279E+02-0.523E+00
CGA:   3    -0.484731671629E+03   -0.62215E+01   -0.62307E+01   688   0.862E+01 0.110E+00
CGA:   4    -0.486205271531E+03   -0.14736E+01   -0.14654E+01   688   0.198E+01-0.490E-01
CGA:   5    -0.486603399861E+03   -0.39813E+00   -0.39992E+00   688   0.547E+00 0.109E-01
CGA:   6    -0.486715396578E+03   -0.11200E+00   -0.11208E+00   688   0.185E+00 0.738E-03
CGA:   7    -0.486761936612E+03   -0.46540E-01   -0.46539E-01   688   0.779E-01 0.449E-04
CGA:   8    -0.486783659937E+03   -0.21723E-01   -0.21724E-01   688   0.449E-01 0.580E-05
CGA:   9    -0.486794221987E+03   -0.10562E-01   -0.10565E-01   688   0.208E-01 0.161E-03
CGA:  10    -0.486799703025E+03   -0.54810E-02   -0.54808E-02   688   0.748E-02 0.248E-04
CGA:  11    -0.486801695073E+03   -0.19920E-02   -0.19920E-02   688   0.347E-02-0.174E-05
CGA:  12    -0.486802444014E+03   -0.74894E-03   -0.74881E-03   688   0.138E-02-0.622E-07
CGA:  13    -0.486802839151E+03   -0.39514E-03   -0.39522E-03   688   0.605E-03-0.194E-05
CGA:  14    -0.486803012326E+03   -0.17318E-03   -0.17311E-03   688   0.386E-03 0.186E-05
CGA:  15    -0.486803108917E+03   -0.96590E-04   -0.96590E-04   688   0.182E-03-0.137E-05
  15 F= -.49114264E+03 E0= -.49111931E+03  d E =-.897747E+00  mag=     0.0400
       N       E                     dE             d eps       ncg     rms          ort
SDA:   1    -0.481098620916E+03    0.57044E+01    0.00000E+00   688   0.153E+02 0.000E+00
CGA:   2    -0.485479047234E+03   -0.43804E+01   -0.43831E+01   688   0.465E+01-0.471E-01
CGA:   3    -0.486483366718E+03   -0.10043E+01   -0.10069E+01   688   0.167E+01 0.196E-01
CGA:   4    -0.486747279291E+03   -0.26391E+00   -0.26156E+00   688   0.351E+00-0.140E-02
CGA:   5    -0.486822169328E+03   -0.74890E-01   -0.74951E-01   688   0.835E-01 0.614E-03
CGA:   6    -0.486841687853E+03   -0.19519E-01   -0.19522E-01   688   0.285E-01 0.156E-03
CGA:   7    -0.486848589936E+03   -0.69021E-02   -0.69022E-02   688   0.141E-01-0.668E-05
CGA:   8    -0.486852071551E+03   -0.34816E-02   -0.34816E-02   688   0.754E-02 0.792E-05
CGA:   9    -0.486853971647E+03   -0.19001E-02   -0.18999E-02   688   0.339E-02 0.174E-04
CGA:  10    -0.486854914808E+03   -0.94316E-03   -0.94288E-03   688   0.130E-02 0.840E-05
CGA:  11    -0.486855244585E+03   -0.32978E-03   -0.32978E-03   688   0.706E-03-0.221E-05
CGA:  12    -0.486855404328E+03   -0.15974E-03   -0.15977E-03   688   0.282E-03 0.146E-05
CGA:  13    -0.486855507232E+03   -0.10290E-03   -0.10299E-03   688   0.208E-03-0.775E-06
CGA:  14    -0.486855576705E+03   -0.69473E-04   -0.69330E-04   688   0.226E-03 0.179E-05
  16 F= -.49119833E+03 E0= -.49117591E+03  d E =-.953444E+00  mag=     0.0597
       N       E                     dE             d eps       ncg     rms          ort
SDA:   1    -0.485194817940E+03    0.16607E+01    0.00000E+00   688   0.512E+01 0.000E+00
CGA:   2    -0.486645696483E+03   -0.14509E+01   -0.14508E+01   688   0.159E+01 0.212E-02
CGA:   3    -0.486985952534E+03   -0.34026E+00   -0.34058E+00   688   0.633E+00 0.101E-02
CGA:   4    -0.487086232559E+03   -0.10028E+00   -0.99713E-01   688   0.123E+00 0.395E-03
CGA:   5    -0.487114383519E+03   -0.28151E-01   -0.28157E-01   688   0.286E-01 0.605E-04
CGA:   6    -0.487121805335E+03   -0.74218E-02   -0.74216E-02   688   0.985E-02 0.376E-04
CGA:   7    -0.487124278547E+03   -0.24732E-02   -0.24733E-02   688   0.631E-02 0.870E-05
CGA:   8    -0.487125717859E+03   -0.14393E-02   -0.14396E-02   688   0.273E-02 0.689E-05
CGA:   9    -0.487126616715E+03   -0.89886E-03   -0.89859E-03   688   0.125E-02 0.183E-05
CGA:  10    -0.487126984296E+03   -0.36758E-03   -0.36743E-03   688   0.815E-03 0.346E-05
CGA:  11    -0.487127183823E+03   -0.19953E-03   -0.19958E-03   688   0.493E-03 0.773E-06
CGA:  12    -0.487127399549E+03   -0.21573E-03   -0.21547E-03   688   0.521E-03 0.154E-05
CGA:  13    -0.487127699242E+03   -0.29969E-03   -0.29799E-03   688   0.109E-02 0.575E-05
CGA:  14    -0.487128137828E+03   -0.43859E-03   -0.44362E-03   688   0.153E-02-0.319E-04
CGA:  15    -0.487128795053E+03   -0.65723E-03   -0.67714E-03   688   0.132E-02-0.104E-03
CGA:  16    -0.487129244858E+03   -0.44981E-03   -0.45325E-03   688   0.946E-03-0.338E-04
CGA:  17    -0.487129528963E+03   -0.28410E-03   -0.28412E-03   688   0.700E-03-0.700E-06
CGA:  18    -0.487129733168E+03   -0.20421E-03   -0.20421E-03   688   0.461E-03 0.367E-06
CGA:  19    -0.487129871376E+03   -0.13821E-03   -0.13821E-03   688   0.287E-03 0.142E-06
CGA:  20    -0.487129952755E+03   -0.81379E-04   -0.81397E-04   688   0.192E-03 0.104E-05
  17 F= -.49147004E+03 E0= -.49145884E+03  d E =-.271706E+00  mag=     0.0732
       N       E                     dE             d eps       ncg     rms          ort
SDA:   1    -0.482267185027E+03    0.48627E+01    0.00000E+00   688   0.134E+02 0.000E+00
CGA:   2    -0.486132405066E+03   -0.38652E+01   -0.38654E+01   688   0.377E+01 0.931E-02
CGA:   3    -0.487093311801E+03   -0.96091E+00   -0.95979E+00   688   0.954E+00-0.746E-02
CGA:   4    -0.487287820874E+03   -0.19451E+00   -0.19466E+00   688   0.204E+00 0.220E-03
CGA:   5    -0.487335272132E+03   -0.47451E-01   -0.47442E-01   688   0.536E-01-0.414E-04
CGA:   6    -0.487348980587E+03   -0.13708E-01   -0.13710E-01   688   0.199E-01 0.385E-04
CGA:   7    -0.487355139613E+03   -0.61590E-02   -0.61592E-02   688   0.907E-02-0.117E-04
CGA:   8    -0.487358096591E+03   -0.29570E-02   -0.29568E-02   688   0.379E-02 0.548E-05
CGA:   9    -0.487359254553E+03   -0.11580E-02   -0.11579E-02   688   0.127E-02 0.345E-06
CGA:  10    -0.487359628395E+03   -0.37384E-03   -0.37384E-03   688   0.403E-03-0.245E-06
CGA:  11    -0.487359751222E+03   -0.12283E-03   -0.12281E-03   688   0.152E-03 0.118E-05
CGA:  12    -0.487359797823E+03   -0.46601E-04   -0.46612E-04   688   0.783E-04-0.746E-06
  18 F= -.49169591E+03 E0= -.49168473E+03  d E =-.497579E+00  mag=     0.0477
       N       E                     dE             d eps       ncg     rms          ort
SDA:   1    -0.486697626948E+03    0.66212E+00    0.00000E+00   688   0.180E+01 0.000E+00
CGA:   2    -0.487213092561E+03   -0.51547E+00   -0.51547E+00   688   0.514E+00 0.619E-03
CGA:   3    -0.487341537749E+03   -0.12845E+00   -0.12836E+00   688   0.136E+00-0.637E-03
CGA:   4    -0.487368548791E+03   -0.27011E-01   -0.27026E-01   688   0.291E-01 0.148E-04
CGA:   5    -0.487375231854E+03   -0.66831E-02   -0.66825E-02   688   0.769E-02-0.133E-04
CGA:   6    -0.487377160656E+03   -0.19288E-02   -0.19292E-02   688   0.274E-02 0.136E-04
CGA:   7    -0.487378024720E+03   -0.86406E-03   -0.86423E-03   688   0.125E-02-0.518E-05
CGA:   8    -0.487378437094E+03   -0.41237E-03   -0.41237E-03   688   0.546E-03-0.458E-07
CGA:   9    -0.487378599686E+03   -0.16259E-03   -0.16258E-03   688   0.199E-03 0.456E-06
CGA:  10    -0.487378654956E+03   -0.55271E-04   -0.55265E-04   688   0.704E-04-0.766E-06
  19 F= -.49171323E+03 E0= -.49170248E+03  d E =-.514897E+00  mag=     0.0381
       N       E                     dE             d eps       ncg     rms          ort
SDA:   1    -0.484723644626E+03    0.26550E+01    0.00000E+00   688   0.730E+01 0.000E+00
CGA:   2    -0.486867683507E+03   -0.21440E+01   -0.21440E+01   688   0.240E+01 0.415E-02
CGA:   3    -0.487416992368E+03   -0.54931E+00   -0.54598E+00   688   0.640E+00-0.130E-01
CGA:   4    -0.487544248531E+03   -0.12726E+00   -0.12734E+00   688   0.122E+00 0.193E-03
CGA:   5    -0.487573143180E+03   -0.28895E-01   -0.28898E-01   688   0.318E-01 0.224E-04
CGA:   6    -0.487581114663E+03   -0.79715E-02   -0.79719E-02   688   0.112E-01 0.253E-04
CGA:   7    -0.487584508887E+03   -0.33942E-02   -0.33944E-02   688   0.484E-02-0.657E-05
CGA:   8    -0.487586122141E+03   -0.16133E-02   -0.16132E-02   688   0.203E-02 0.187E-05
CGA:   9    -0.487586747292E+03   -0.62515E-03   -0.62513E-03   688   0.720E-03 0.500E-06
CGA:  10    -0.487586950526E+03   -0.20323E-03   -0.20324E-03   688   0.233E-03-0.148E-05
CGA:  11    -0.487587019898E+03   -0.69372E-04   -0.69365E-04   688   0.851E-04 0.386E-06
  20 F= -.49192069E+03 E0= -.49191055E+03  d E =-.207458E+00  mag=     0.0299
       N       E                     dE             d eps       ncg     rms          ort
SDA:   1    -0.485878518592E+03    0.17084E+01    0.00000E+00   688   0.447E+01 0.000E+00
CGA:   2    -0.487191443275E+03   -0.13129E+01   -0.13129E+01   688   0.149E+01 0.223E-02
CGA:   3    -0.487527441117E+03   -0.33600E+00   -0.33408E+00   688   0.401E+00-0.725E-02
CGA:   4    -0.487607265885E+03   -0.79825E-01   -0.79889E-01   688   0.758E-01 0.144E-03
CGA:   5    -0.487625196435E+03   -0.17931E-01   -0.17932E-01   688   0.200E-01 0.658E-05
CGA:   6    -0.487630103027E+03   -0.49066E-02   -0.49070E-02   688   0.710E-02 0.203E-04
CGA:   7    -0.487632222043E+03   -0.21190E-02   -0.21191E-02   688   0.306E-02-0.541E-05
CGA:   8    -0.487633238588E+03   -0.10165E-02   -0.10166E-02   688   0.133E-02-0.813E-06
CGA:   9    -0.487633636513E+03   -0.39793E-03   -0.39789E-03   688   0.489E-03 0.171E-05
CGA:  10    -0.487633772669E+03   -0.13616E-03   -0.13616E-03   688   0.158E-03-0.214E-05
CGA:  11    -0.487633817930E+03   -0.45260E-04   -0.45255E-04   688   0.604E-04 0.506E-06
  21 F= -.49196655E+03 E0= -.49195684E+03  d E =-.253324E+00  mag=     0.0248
       N       E                     dE             d eps       ncg     rms          ort
SDA:   1    -0.485195341079E+03    0.24384E+01    0.00000E+00   688   0.631E+01 0.000E+00
CGA:   2    -0.487217966154E+03   -0.20226E+01   -0.20226E+01   688   0.200E+01 0.212E-04
CGA:   3    -0.487689026687E+03   -0.47106E+00   -0.47106E+00   688   0.466E+00-0.796E-04
CGA:   4    -0.487786545134E+03   -0.97518E-01   -0.97583E-01   688   0.912E-01 0.167E-03
CGA:   5    -0.487808946094E+03   -0.22401E-01   -0.22400E-01   688   0.258E-01-0.156E-04
CGA:   6    -0.487816161764E+03   -0.72157E-02   -0.72156E-02   688   0.989E-02 0.178E-04
CGA:   7    -0.487819280015E+03   -0.31183E-02   -0.31189E-02   688   0.486E-02-0.160E-04
CGA:   8    -0.487820746546E+03   -0.14665E-02   -0.14663E-02   688   0.191E-02 0.862E-05
CGA:   9    -0.487821318099E+03   -0.57155E-03   -0.57160E-03   688   0.590E-03-0.198E-05
CGA:  10    -0.487821500303E+03   -0.18220E-03   -0.18219E-03   688   0.184E-03 0.437E-06
CGA:  11    -0.487821560674E+03   -0.60371E-04   -0.60372E-04   688   0.808E-04-0.983E-08
  22 F= -.49215612E+03 E0= -.49214626E+03  d E =-.189567E+00  mag=     0.0201
       N       E                     dE             d eps       ncg     rms          ort
SDA:   1    -0.484706954636E+03    0.31145E+01    0.00000E+00   688   0.765E+01 0.000E+00
CGA:   2    -0.487158647920E+03   -0.24517E+01   -0.24517E+01   688   0.242E+01-0.706E-03
CGA:   3    -0.487728897966E+03   -0.57025E+00   -0.57028E+00   688   0.566E+00 0.103E-03
CGA:   4    -0.487847077399E+03   -0.11818E+00   -0.11827E+00   688   0.111E+00 0.196E-03
CGA:   5    -0.487874387078E+03   -0.27310E-01   -0.27308E-01   688   0.312E-01-0.189E-04
CGA:   6    -0.487883202198E+03   -0.88151E-02   -0.88150E-02   688   0.117E-01 0.131E-04
CGA:   7    -0.487887006459E+03   -0.38043E-02   -0.38051E-02   688   0.570E-02-0.159E-04
CGA:   8    -0.487888751761E+03   -0.17453E-02   -0.17451E-02   688   0.227E-02 0.872E-05
CGA:   9    -0.487889423901E+03   -0.67214E-03   -0.67218E-03   688   0.719E-03-0.247E-05
CGA:  10    -0.487889643140E+03   -0.21924E-03   -0.21923E-03   688   0.234E-03 0.655E-06
CGA:  11    -0.487889717840E+03   -0.74700E-04   -0.74706E-04   688   0.109E-03-0.107E-06
  23 F= -.49222582E+03 E0= -.49221555E+03  d E =-.259271E+00  mag=     0.0189
       N       E                     dE             d eps       ncg     rms          ort
SDA:   1    -0.485295361390E+03    0.25943E+01    0.00000E+00   688   0.677E+01 0.000E+00
CGA:   2    -0.487395694008E+03   -0.21003E+01   -0.21006E+01   688   0.220E+01-0.656E-02
CGA:   3    -0.487908037484E+03   -0.51234E+00   -0.51238E+00   688   0.507E+00 0.134E-03
CGA:   4    -0.488015531598E+03   -0.10749E+00   -0.10764E+00   688   0.105E+00 0.349E-03
CGA:   5    -0.488040778549E+03   -0.25247E-01   -0.25246E-01   688   0.284E-01 0.844E-05
CGA:   6    -0.488049089180E+03   -0.83106E-02   -0.83104E-02   688   0.107E-01 0.747E-05
CGA:   7    -0.488052493672E+03   -0.34045E-02   -0.34045E-02   688   0.526E-02-0.522E-06
CGA:   8    -0.488054110296E+03   -0.16166E-02   -0.16165E-02   688   0.207E-02 0.504E-05
CGA:   9    -0.488054736406E+03   -0.62611E-03   -0.62607E-03   688   0.651E-03 0.185E-05
CGA:  10    -0.488054938995E+03   -0.20259E-03   -0.20261E-03   688   0.205E-03-0.757E-06
CGA:  11    -0.488055004117E+03   -0.65122E-04   -0.65105E-04   688   0.941E-04 0.498E-06
  24 F= -.49239029E+03 E0= -.49238055E+03  d E =-.164465E+00  mag=     0.0064
       N       E                     dE             d eps       ncg     rms          ort
SDA:   1    -0.483203421957E+03    0.48515E+01    0.00000E+00   688   0.121E+02 0.000E+00
CGA:   2    -0.486947782089E+03   -0.37444E+01   -0.37449E+01   688   0.396E+01-0.145E-01
CGA:   3    -0.487865729891E+03   -0.91795E+00   -0.91790E+00   688   0.914E+00-0.108E-03
CGA:   4    -0.488059620438E+03   -0.19389E+00   -0.19426E+00   688   0.188E+00 0.922E-03
CGA:   5    -0.488105042542E+03   -0.45422E-01   -0.45421E-01   688   0.511E-01 0.240E-04
CGA:   6    -0.488119865382E+03   -0.14823E-01   -0.14823E-01   688   0.196E-01 0.119E-04
CGA:   7    -0.488125930590E+03   -0.60652E-02   -0.60653E-02   688   0.985E-02 0.852E-06
CGA:   8    -0.488128883066E+03   -0.29525E-02   -0.29523E-02   688   0.395E-02 0.733E-05
CGA:   9    -0.488130035911E+03   -0.11528E-02   -0.11528E-02   688   0.133E-02 0.621E-05
CGA:  10    -0.488130416825E+03   -0.38091E-03   -0.38092E-03   688   0.458E-03-0.738E-06
CGA:  11    -0.488130552590E+03   -0.13576E-03   -0.13575E-03   688   0.184E-03 0.582E-06
CGA:  12    -0.488130616465E+03   -0.63874E-04   -0.63880E-04   688   0.830E-04-0.113E-06
  25 F= -.49246412E+03 E0= -.49245555E+03  d E =-.238299E+00  mag=    -0.0079
       N       E                     dE             d eps       ncg     rms          ort
SDA:   1    -0.484838551457E+03    0.32920E+01    0.00000E+00   688   0.873E+01 0.000E+00
CGA:   2    -0.487459522754E+03   -0.26210E+01   -0.26211E+01   688   0.273E+01-0.878E-02
CGA:   3    -0.488103049728E+03   -0.64353E+00   -0.64366E+00   688   0.639E+00 0.775E-03
CGA:   4    -0.488235841865E+03   -0.13279E+00   -0.13287E+00   688   0.132E+00 0.166E-03
CGA:   5    -0.488266102731E+03   -0.30261E-01   -0.30258E-01   688   0.356E-01 0.300E-04
CGA:   6    -0.488275396979E+03   -0.92942E-02   -0.92946E-02   688   0.131E-01 0.308E-06
CGA:   7    -0.488279167389E+03   -0.37704E-02   -0.37703E-02   688   0.627E-02 0.128E-04
CGA:   8    -0.488281057750E+03   -0.18904E-02   -0.18902E-02   688   0.259E-02 0.832E-05
CGA:   9    -0.488281846470E+03   -0.78872E-03   -0.78859E-03   688   0.820E-03 0.542E-05
CGA:  10    -0.488282098650E+03   -0.25218E-03   -0.25218E-03   688   0.249E-03 0.831E-08
CGA:  11    -0.488282178709E+03   -0.80059E-04   -0.80067E-04   688   0.874E-04-0.222E-06
  26 F= -.49261288E+03 E0= -.49260499E+03  d E =-.148758E+00  mag=    -0.0125
       N       E                     dE             d eps       ncg     rms          ort
SDA:   1    -0.484151060756E+03    0.41310E+01    0.00000E+00   688   0.106E+02 0.000E+00
CGA:   2    -0.487336544430E+03   -0.31855E+01   -0.31857E+01   688   0.331E+01-0.119E-01
CGA:   3    -0.488118749535E+03   -0.78221E+00   -0.78233E+00   688   0.769E+00 0.875E-03
CGA:   4    -0.488279197422E+03   -0.16045E+00   -0.16054E+00   688   0.159E+00 0.221E-03
CGA:   5    -0.488315601438E+03   -0.36404E-01   -0.36399E-01   688   0.433E-01 0.246E-04
CGA:   6    -0.488326812682E+03   -0.11211E-01   -0.11212E-01   688   0.161E-01 0.268E-05
CGA:   7    -0.488331432359E+03   -0.46197E-02   -0.46195E-02   688   0.763E-02 0.153E-04
CGA:   8    -0.488333759306E+03   -0.23269E-02   -0.23267E-02   688   0.313E-02 0.877E-05
CGA:   9    -0.488334725034E+03   -0.96573E-03   -0.96557E-03   688   0.975E-03 0.556E-05
CGA:  10    -0.488335031454E+03   -0.30642E-03   -0.30641E-03   688   0.286E-03 0.187E-06
CGA:  11    -0.488335126701E+03   -0.95247E-04   -0.95263E-04   688   0.998E-04-0.321E-06
  27 F= -.49266310E+03 E0= -.49265571E+03  d E =-.198975E+00  mag=    -0.0169
       N       E                     dE             d eps       ncg     rms          ort
SDA:   1    -0.486280975613E+03    0.20541E+01    0.00000E+00   688   0.560E+01 0.000E+00
CGA:   2    -0.487945356017E+03   -0.16644E+01   -0.16644E+01   688   0.172E+01-0.321E-02
CGA:   3    -0.488350411515E+03   -0.40506E+00   -0.40538E+00   688   0.408E+00 0.167E-02
CGA:   4    -0.488435614649E+03   -0.85203E-01   -0.85235E-01   688   0.878E-01 0.371E-04
CGA:   5    -0.488454507226E+03   -0.18893E-01   -0.18888E-01   688   0.244E-01 0.198E-04
CGA:   6    -0.488460645484E+03   -0.61383E-02   -0.61383E-02   688   0.838E-02-0.685E-05
CGA:   7    -0.488463188387E+03   -0.25429E-02   -0.25428E-02   688   0.381E-02 0.339E-05
CGA:   8    -0.488464434030E+03   -0.12456E-02   -0.12452E-02   688   0.161E-02 0.100E-04
CGA:   9    -0.488464926844E+03   -0.49281E-03   -0.49278E-03   688   0.523E-03 0.155E-05
CGA:  10    -0.488465087784E+03   -0.16094E-03   -0.16091E-03   688   0.150E-03 0.123E-05
CGA:  11    -0.488465138240E+03   -0.50456E-04   -0.50432E-04   688   0.533E-04 0.485E-06
  28 F= -.49279157E+03 E0= -.49278425E+03  d E =-.128470E+00  mag=    -0.0183
       N       E                     dE             d eps       ncg     rms          ort
SDA:   1    -0.479131822310E+03    0.93333E+01    0.00000E+00   688   0.243E+02 0.000E+00
CGA:   2    -0.486305054576E+03   -0.71732E+01   -0.71735E+01   688   0.760E+01-0.308E-01
CGA:   3    -0.488055700999E+03   -0.17506E+01   -0.17542E+01   688   0.188E+01 0.155E-01
CGA:   4    -0.488432746159E+03   -0.37705E+00   -0.37767E+00   688   0.423E+00 0.736E-03
CGA:   5    -0.488522716559E+03   -0.89970E-01   -0.89897E-01   688   0.107E+00-0.595E-04
CGA:   6    -0.488550986822E+03   -0.28270E-01   -0.28271E-01   688   0.358E-01 0.165E-04
CGA:   7    -0.488562100504E+03   -0.11114E-01   -0.11113E-01   688   0.165E-01 0.766E-05
CGA:   8    -0.488567486040E+03   -0.53855E-02   -0.53845E-02   688   0.690E-02 0.248E-04
CGA:   9    -0.488569624534E+03   -0.21385E-02   -0.21383E-02   688   0.219E-02 0.642E-05
CGA:  10    -0.488570310860E+03   -0.68633E-03   -0.68629E-03   688   0.627E-03 0.136E-05
CGA:  11    -0.488570521601E+03   -0.21074E-03   -0.21065E-03   688   0.224E-03 0.192E-05
CGA:  12    -0.488570600131E+03   -0.78530E-04   -0.78531E-04   688   0.106E-03 0.323E-08
  29 F= -.49289479E+03 E0= -.49288736E+03  d E =-.231688E+00  mag=    -0.0212
       N       E                     dE             d eps       ncg     rms          ort
SDA:   1    -0.487680084385E+03    0.89044E+00    0.00000E+00   688   0.245E+01 0.000E+00
CGA:   2    -0.488419332461E+03   -0.73925E+00   -0.73926E+00   688   0.735E+00-0.585E-03
CGA:   3    -0.488594625871E+03   -0.17529E+00   -0.17539E+00   688   0.165E+00 0.554E-03
CGA:   4    -0.488630037233E+03   -0.35411E-01   -0.35414E-01   688   0.355E-01-0.107E-04
CGA:   5    -0.488637681082E+03   -0.76438E-02   -0.76436E-02   688   0.101E-01 0.170E-04
CGA:   6    -0.488640212485E+03   -0.25314E-02   -0.25312E-02   688   0.343E-02-0.783E-05
CGA:   7    -0.488641292199E+03   -0.10797E-02   -0.10797E-02   688   0.158E-02 0.278E-06
CGA:   8    -0.488641821188E+03   -0.52899E-03   -0.52879E-03   688   0.672E-03 0.385E-05
CGA:   9    -0.488642028737E+03   -0.20755E-03   -0.20755E-03   688   0.224E-03-0.239E-06
CGA:  10    -0.488642096658E+03   -0.67921E-04   -0.67914E-04   688   0.662E-04 0.401E-06
  30 F= -.49296630E+03 E0= -.49295893E+03  d E =-.715094E-01  mag=    -0.0250
       N       E                     dE             d eps       ncg     rms          ort
SDA:   1    -0.483543974519E+03    0.50981E+01    0.00000E+00   688   0.132E+02 0.000E+00
CGA:   2    -0.487506737349E+03   -0.39628E+01   -0.39630E+01   688   0.401E+01-0.904E-02
CGA:   3    -0.488446193894E+03   -0.93946E+00   -0.94088E+00   688   0.944E+00 0.734E-02
CGA:   4    -0.488639824016E+03   -0.19363E+00   -0.19378E+00   688   0.215E+00 0.208E-03
CGA:   5    -0.488685087833E+03   -0.45264E-01   -0.45237E-01   688   0.550E-01 0.354E-05
CGA:   6    -0.488699657205E+03   -0.14569E-01   -0.14570E-01   688   0.184E-01 0.426E-05
CGA:   7    -0.488705522288E+03   -0.58651E-02   -0.58651E-02   688   0.875E-02-0.170E-05
CGA:   8    -0.488708367937E+03   -0.28456E-02   -0.28451E-02   688   0.384E-02 0.122E-04
CGA:   9    -0.488709537163E+03   -0.11692E-02   -0.11692E-02   688   0.125E-02 0.158E-05
CGA:  10    -0.488709925341E+03   -0.38818E-03   -0.38817E-03   688   0.370E-03 0.554E-07
CGA:  11    -0.488710047604E+03   -0.12226E-03   -0.12225E-03   688   0.139E-03 0.348E-06
CGA:  12    -0.488710096106E+03   -0.48502E-04   -0.48491E-04   688   0.657E-04 0.168E-06
  31 F= -.49303450E+03 E0= -.49302754E+03  d E =-.139714E+00  mag=    -0.0347
       N       E                     dE             d eps       ncg     rms          ort
SDA:   1    -0.486853793074E+03    0.18563E+01    0.00000E+00   688   0.492E+01 0.000E+00
CGA:   2    -0.488340932440E+03   -0.14871E+01   -0.14872E+01   688   0.147E+01-0.343E-02
CGA:   3    -0.488695293104E+03   -0.35436E+00   -0.35446E+00   688   0.335E+00 0.586E-03
CGA:   4    -0.488765470338E+03   -0.70177E-01   -0.70186E-01   688   0.695E-01 0.126E-04
CGA:   5    -0.488781035042E+03   -0.15565E-01   -0.15564E-01   688   0.188E-01 0.232E-04
CGA:   6    -0.488785812518E+03   -0.47775E-02   -0.47775E-02   688   0.640E-02-0.490E-05
CGA:   7    -0.488787768400E+03   -0.19559E-02   -0.19558E-02   688   0.292E-02 0.220E-05
CGA:   8    -0.488788700481E+03   -0.93208E-03   -0.93204E-03   688   0.122E-02 0.947E-06
CGA:   9    -0.488789075811E+03   -0.37533E-03   -0.37532E-03   688   0.379E-03 0.413E-06
CGA:  10    -0.488789195144E+03   -0.11933E-03   -0.11935E-03   688   0.112E-03-0.551E-06
CGA:  11    -0.488789232873E+03   -0.37729E-04   -0.37765E-04   688   0.391E-04-0.740E-06
  32 F= -.49311356E+03 E0= -.49310702E+03  d E =-.790601E-01  mag=    -0.0380
       N       E                     dE             d eps       ncg     rms          ort
SDA:   1    -0.487762008327E+03    0.10272E+01    0.00000E+00   688   0.265E+01 0.000E+00
CGA:   2    -0.488564172266E+03   -0.80216E+00   -0.80219E+00   688   0.789E+00-0.132E-02
CGA:   3    -0.488755105507E+03   -0.19093E+00   -0.19097E+00   688   0.178E+00 0.207E-03
CGA:   4    -0.488792771088E+03   -0.37666E-01   -0.37668E-01   688   0.363E-01-0.126E-05
CGA:   5    -0.488801029938E+03   -0.82588E-02   -0.82593E-02   688   0.981E-02 0.171E-04
CGA:   6    -0.488803531421E+03   -0.25015E-02   -0.25014E-02   688   0.346E-02-0.471E-05
CGA:   7    -0.488804566990E+03   -0.10356E-02   -0.10355E-02   688   0.161E-02 0.154E-05
CGA:   8    -0.488805071184E+03   -0.50419E-03   -0.50419E-03   688   0.669E-03 0.936E-07
CGA:   9    -0.488805277309E+03   -0.20612E-03   -0.20612E-03   688   0.208E-03 0.711E-07
CGA:  10    -0.488805342626E+03   -0.65317E-04   -0.65325E-04   688   0.611E-04-0.309E-06
  33 F= -.49312959E+03 E0= -.49312331E+03  d E =-.950886E-01  mag=    -0.0404
       N       E                     dE             d eps       ncg     rms          ort
SDA:   1    -0.487617270003E+03    0.11880E+01    0.00000E+00   688   0.318E+01 0.000E+00
CGA:   2    -0.488588194243E+03   -0.97092E+00   -0.97093E+00   688   0.931E+00-0.297E-05
CGA:   3    -0.488812525743E+03   -0.22433E+00   -0.22432E+00   688   0.216E+00-0.983E-05
CGA:   4    -0.488858675708E+03   -0.46150E-01   -0.46155E-01   688   0.427E-01-0.175E-04
CGA:   5    -0.488868557455E+03   -0.98817E-02   -0.98817E-02   688   0.120E-01 0.105E-04
CGA:   6    -0.488871647427E+03   -0.30900E-02   -0.30899E-02   688   0.435E-02-0.672E-05
CGA:   7    -0.488872964668E+03   -0.13172E-02   -0.13172E-02   688   0.205E-02 0.293E-05
CGA:   8    -0.488873610790E+03   -0.64612E-03   -0.64612E-03   688   0.836E-03-0.859E-08
CGA:   9    -0.488873862036E+03   -0.25125E-03   -0.25125E-03   688   0.270E-03-0.228E-06
CGA:  10    -0.488873943016E+03   -0.80980E-04   -0.80976E-04   688   0.794E-04 0.289E-06
  34 F= -.49319803E+03 E0= -.49319195E+03  d E =-.684407E-01  mag=    -0.0419
       N       E                     dE             d eps       ncg     rms          ort
SDA:   1    -0.484679056970E+03    0.41948E+01    0.00000E+00   688   0.108E+02 0.000E+00
CGA:   2    -0.487954758906E+03   -0.32757E+01   -0.32757E+01   688   0.317E+01-0.645E-03
CGA:   3    -0.488711428946E+03   -0.75667E+00   -0.75668E+00   688   0.753E+00 0.422E-03
CGA:   4    -0.488868470984E+03   -0.15704E+00   -0.15711E+00   688   0.158E+00 0.106E-03
CGA:   5    -0.488903350569E+03   -0.34880E-01   -0.34871E-01   688   0.436E-01 0.259E-05
CGA:   6    -0.488914542581E+03   -0.11192E-01   -0.11192E-01   688   0.150E-01-0.208E-05
CGA:   7    -0.488919212102E+03   -0.46695E-02   -0.46694E-02   688   0.691E-02 0.393E-05
CGA:   8    -0.488921453179E+03   -0.22411E-02   -0.22409E-02   688   0.282E-02 0.445E-05
CGA:   9    -0.488922312562E+03   -0.85938E-03   -0.85939E-03   688   0.901E-03-0.396E-06
CGA:  10    -0.488922587847E+03   -0.27529E-03   -0.27528E-03   688   0.262E-03 0.427E-06
CGA:  11    -0.488922676774E+03   -0.88927E-04   -0.88921E-04   688   0.911E-04 0.926E-07
  35 F= -.49324630E+03 E0= -.49324049E+03  d E =-.116707E+00  mag=    -0.0443
       N       E                     dE             d eps       ncg     rms          ort
SDA:   1    -0.488206571787E+03    0.71602E+00    0.00000E+00   688   0.194E+01 0.000E+00
CGA:   2    -0.488790544225E+03   -0.58397E+00   -0.58397E+00   688   0.587E+00 0.386E-03
CGA:   3    -0.488931291343E+03   -0.14075E+00   -0.14072E+00   688   0.132E+00-0.107E-03
CGA:   4    -0.488960250655E+03   -0.28959E-01   -0.28963E-01   688   0.256E-01-0.895E-05
CGA:   5    -0.488966395735E+03   -0.61451E-02   -0.61452E-02   688   0.719E-02 0.582E-05
CGA:   6    -0.488968236937E+03   -0.18412E-02   -0.18412E-02   688   0.285E-02-0.316E-05
CGA:   7    -0.488969037207E+03   -0.80027E-03   -0.80028E-03   688   0.132E-02 0.360E-05
CGA:   8    -0.488969461465E+03   -0.42426E-03   -0.42422E-03   688   0.523E-03 0.891E-06
CGA:   9    -0.488969629080E+03   -0.16761E-03   -0.16762E-03   688   0.172E-03-0.266E-06
CGA:  10    -0.488969681088E+03   -0.52008E-04   -0.51993E-04   688   0.542E-04 0.866E-06
  36 F= -.49329368E+03 E0= -.49328786E+03  d E =-.473817E-01  mag=    -0.0466
       N       E                     dE             d eps       ncg     rms          ort
SDA:   1    -0.487192124429E+03    0.17775E+01    0.00000E+00   688   0.458E+01 0.000E+00
CGA:   2    -0.488572562455E+03   -0.13804E+01   -0.13804E+01   688   0.139E+01 0.123E-02
CGA:   3    -0.488905504294E+03   -0.33294E+00   -0.33288E+00   688   0.314E+00-0.176E-03
CGA:   4    -0.488974033147E+03   -0.68529E-01   -0.68544E-01   688   0.629E-01 0.206E-04
CGA:   5    -0.488988699816E+03   -0.14667E-01   -0.14666E-01   688   0.179E-01 0.122E-04
CGA:   6    -0.488993261064E+03   -0.45612E-02   -0.45612E-02   688   0.667E-02-0.546E-05
CGA:   7    -0.488995244346E+03   -0.19833E-02   -0.19831E-02   688   0.300E-02 0.808E-05
CGA:   8    -0.488996240628E+03   -0.99628E-03   -0.99620E-03   688   0.121E-02 0.151E-05
CGA:   9    -0.488996621462E+03   -0.38083E-03   -0.38083E-03   688   0.402E-03 0.233E-06
CGA:  10    -0.488996742086E+03   -0.12062E-03   -0.12061E-03   688   0.125E-03 0.116E-05
CGA:  11    -0.488996783058E+03   -0.40971E-04   -0.40987E-04   688   0.469E-04-0.384E-06
  37 F= -.49332121E+03 E0= -.49331531E+03  d E =-.749115E-01  mag=    -0.0508
       N       E                     dE             d eps       ncg     rms          ort
SDA:   1    -0.488153725889E+03    0.84302E+00    0.00000E+00   688   0.222E+01 0.000E+00
CGA:   2    -0.488815014485E+03   -0.66129E+00   -0.66130E+00   688   0.719E+00-0.115E-02
CGA:   3    -0.488983735888E+03   -0.16872E+00   -0.16869E+00   688   0.165E+00-0.347E-04
CGA:   4    -0.489018953495E+03   -0.35218E-01   -0.35218E-01   688   0.318E-01-0.108E-06
CGA:   5    -0.489026509663E+03   -0.75562E-02   -0.75566E-02   688   0.902E-02 0.143E-04
CGA:   6    -0.489028768635E+03   -0.22590E-02   -0.22589E-02   688   0.326E-02-0.203E-05
CGA:   7    -0.489029732050E+03   -0.96342E-03   -0.96335E-03   688   0.146E-02 0.424E-05
CGA:   8    -0.489030199361E+03   -0.46731E-03   -0.46731E-03   688   0.621E-03-0.744E-07
CGA:   9    -0.489030391771E+03   -0.19241E-03   -0.19239E-03   688   0.206E-03 0.557E-06
CGA:  10    -0.489030453678E+03   -0.61908E-04   -0.61905E-04   688   0.681E-04 0.199E-06
  38 F= -.49335375E+03 E0= -.49334791E+03  d E =-.325460E-01  mag=    -0.0503
       N       E                     dE             d eps       ncg     rms          ort
SDA:   1    -0.488959609109E+03    0.70783E-01    0.00000E+00   688   0.185E+00 0.000E+00
CGA:   2    -0.489014458706E+03   -0.54850E-01   -0.54850E-01   688   0.602E-01-0.152E-04
CGA:   3    -0.489028533978E+03   -0.14075E-01   -0.14073E-01   688   0.138E-01-0.131E-04
CGA:   4    -0.489031490306E+03   -0.29563E-02   -0.29563E-02   688   0.268E-02-0.364E-08
CGA:   5    -0.489032123465E+03   -0.63316E-03   -0.63322E-03   688   0.744E-03 0.142E-05
CGA:   6    -0.489032314689E+03   -0.19122E-03   -0.19125E-03   688   0.272E-03 0.127E-05
CGA:   7    -0.489032396456E+03   -0.81766E-04   -0.81770E-04   688   0.130E-03-0.182E-06
  39 F= -.49335537E+03 E0= -.49334954E+03  d E =-.341620E-01  mag=    -0.0502
       N       E                     dE             d eps       ncg     rms          ort
SDA:   1    -0.488434788865E+03    0.59753E+00    0.00000E+00   688   0.158E+01 0.000E+00
CGA:   2    -0.488918118260E+03   -0.48333E+00   -0.48334E+00   688   0.506E+00-0.231E-03
CGA:   3    -0.489036466082E+03   -0.11835E+00   -0.11830E+00   688   0.112E+00-0.227E-03
CGA:   4    -0.489060701376E+03   -0.24235E-01   -0.24237E-01   688   0.230E-01-0.994E-05
CGA:   5    -0.489066025126E+03   -0.53238E-02   -0.53238E-02   688   0.747E-02 0.967E-05
CGA:   6    -0.489067818325E+03   -0.17932E-02   -0.17931E-02   688   0.291E-02-0.523E-05
CGA:   7    -0.489068664093E+03   -0.84577E-03   -0.84575E-03   688   0.131E-02 0.790E-06
CGA:   8    -0.489069084180E+03   -0.42009E-03   -0.41993E-03   688   0.544E-03 0.319E-05
CGA:   9    -0.489069245866E+03   -0.16169E-03   -0.16172E-03   688   0.188E-03-0.149E-05
CGA:  10    -0.489069299453E+03   -0.53587E-04   -0.53582E-04   688   0.588E-04 0.536E-06
  40 F= -.49339054E+03 E0= -.49338472E+03  d E =-.351750E-01  mag=    -0.0474
       N       E                     dE             d eps       ncg     rms          ort
SDA:   1    -0.486725131349E+03    0.23441E+01    0.00000E+00   688   0.591E+01 0.000E+00
CGA:   2    -0.488530767509E+03   -0.18056E+01   -0.18057E+01   688   0.192E+01-0.200E-02
CGA:   3    -0.488973976400E+03   -0.44321E+00   -0.44294E+00   688   0.437E+00-0.111E-02
CGA:   4    -0.489066145816E+03   -0.92169E-01   -0.92205E-01   688   0.941E-01 0.714E-04
CGA:   5    -0.489086943076E+03   -0.20797E-01   -0.20792E-01   688   0.282E-01 0.639E-05
CGA:   6    -0.489094083998E+03   -0.71409E-02   -0.71408E-02   688   0.999E-02-0.974E-05
CGA:   7    -0.489097240612E+03   -0.31566E-02   -0.31564E-02   688   0.440E-02 0.412E-05
CGA:   8    -0.489098728575E+03   -0.14880E-02   -0.14875E-02   688   0.180E-02 0.671E-05
CGA:   9    -0.489099280789E+03   -0.55221E-03   -0.55226E-03   688   0.617E-03-0.158E-05
CGA:  10    -0.489099461701E+03   -0.18091E-03   -0.18090E-03   688   0.196E-03 0.739E-06
CGA:  11    -0.489099524436E+03   -0.62734E-04   -0.62739E-04   688   0.733E-04-0.887E-07
  41 F= -.49341736E+03 E0= -.49341147E+03  d E =-.619931E-01  mag=    -0.0425
       N       E                     dE             d eps       ncg     rms          ort
SDA:   1    -0.487976235754E+03    0.11232E+01    0.00000E+00   688   0.285E+01 0.000E+00
CGA:   2    -0.488873707522E+03   -0.89747E+00   -0.89753E+00   688   0.920E+00-0.108E-02
CGA:   3    -0.489084144535E+03   -0.21044E+00   -0.21039E+00   688   0.206E+00-0.124E-03
CGA:   4    -0.489126854174E+03   -0.42710E-01   -0.42722E-01   688   0.458E-01-0.133E-05
CGA:   5    -0.489136980742E+03   -0.10127E-01   -0.10125E-01   688   0.136E-01 0.143E-04
CGA:   6    -0.489140411157E+03   -0.34304E-02   -0.34303E-02   688   0.496E-02-0.681E-05
CGA:   7    -0.489141929841E+03   -0.15187E-02   -0.15187E-02   688   0.223E-02 0.578E-06
CGA:   8    -0.489142655555E+03   -0.72571E-03   -0.72545E-03   688   0.905E-03 0.530E-05
CGA:   9    -0.489142927968E+03   -0.27241E-03   -0.27243E-03   688   0.300E-03-0.820E-06
CGA:  10    -0.489143016374E+03   -0.88406E-04   -0.88401E-04   688   0.932E-04 0.394E-06
  42 F= -.49345995E+03 E0= -.49345398E+03  d E =-.425897E-01  mag=    -0.0415
       N       E                     dE             d eps       ncg     rms          ort
SDA:   1    -0.485740142406E+03    0.34028E+01    0.00000E+00   688   0.841E+01 0.000E+00
CGA:   2    -0.488370216971E+03   -0.26301E+01   -0.26303E+01   688   0.278E+01-0.532E-02
CGA:   3    -0.488991546669E+03   -0.62133E+00   -0.62107E+00   688   0.658E+00-0.555E-03
CGA:   4    -0.489122065662E+03   -0.13052E+00   -0.13067E+00   688   0.150E+00 0.128E-03
CGA:   5    -0.489154901106E+03   -0.32835E-01   -0.32823E-01   688   0.409E-01-0.610E-05
CGA:   6    -0.489165770039E+03   -0.10869E-01   -0.10869E-01   688   0.145E-01-0.350E-05
CGA:   7    -0.489170345023E+03   -0.45750E-02   -0.45749E-02   688   0.651E-02 0.674E-06
CGA:   8    -0.489172498492E+03   -0.21535E-02   -0.21528E-02   688   0.263E-02 0.115E-04
CGA:   9    -0.489173303537E+03   -0.80505E-03   -0.80505E-03   688   0.858E-03-0.254E-06
CGA:  10    -0.489173561241E+03   -0.25770E-03   -0.25770E-03   688   0.269E-03 0.892E-07
CGA:  11    -0.489173647678E+03   -0.86437E-04   -0.86427E-04   688   0.103E-03 0.267E-06
  43 F= -.49348901E+03 E0= -.49348288E+03  d E =-.716488E-01  mag=    -0.0409
       N       E                     dE             d eps       ncg     rms          ort
SDA:   1    -0.488511738638E+03    0.66182E+00    0.00000E+00   688   0.169E+01 0.000E+00
CGA:   2    -0.489048603294E+03   -0.53686E+00   -0.53691E+00   688   0.530E+00-0.859E-03
CGA:   3    -0.489171550278E+03   -0.12295E+00   -0.12297E+00   688   0.119E+00 0.121E-03
CGA:   4    -0.489195875574E+03   -0.24325E-01   -0.24328E-01   688   0.262E-01-0.527E-05
CGA:   5    -0.489201755512E+03   -0.58799E-02   -0.58803E-02   688   0.756E-02 0.173E-04
CGA:   6    -0.489203665222E+03   -0.19097E-02   -0.19096E-02   688   0.278E-02-0.470E-05
CGA:   7    -0.489204500323E+03   -0.83510E-03   -0.83507E-03   688   0.127E-02 0.137E-05
CGA:   8    -0.489204899482E+03   -0.39916E-03   -0.39904E-03   688   0.506E-03 0.318E-05
CGA:   9    -0.489205053744E+03   -0.15426E-03   -0.15427E-03   688   0.158E-03-0.311E-06
CGA:  10    -0.489205101598E+03   -0.47854E-04   -0.47849E-04   688   0.493E-04 0.206E-06
  44 F= -.49352047E+03 E0= -.49351425E+03  d E =-.314618E-01  mag=    -0.0418
       N       E                     dE             d eps       ncg     rms          ort
SDA:   1    -0.487344549000E+03    0.18605E+01    0.00000E+00   688   0.460E+01 0.000E+00
CGA:   2    -0.488797625135E+03   -0.14531E+01   -0.14533E+01   688   0.146E+01-0.390E-02
CGA:   3    -0.489131413858E+03   -0.33379E+00   -0.33386E+00   688   0.342E+00 0.404E-03
CGA:   4    -0.489199236788E+03   -0.67823E-01   -0.67861E-01   688   0.766E-01 0.195E-04
CGA:   5    -0.489216187731E+03   -0.16951E-01   -0.16948E-01   688   0.211E-01 0.211E-04
CGA:   6    -0.489221698868E+03   -0.55111E-02   -0.55111E-02   688   0.739E-02-0.372E-05
CGA:   7    -0.489224018493E+03   -0.23196E-02   -0.23196E-02   688   0.332E-02 0.165E-05
CGA:   8    -0.489225090822E+03   -0.10723E-02   -0.10720E-02   688   0.132E-02 0.632E-05
CGA:   9    -0.489225494264E+03   -0.40344E-03   -0.40344E-03   688   0.406E-03-0.224E-07
CGA:  10    -0.489225618861E+03   -0.12460E-03   -0.12460E-03   688   0.124E-03-0.484E-07
CGA:  11    -0.489225659458E+03   -0.40597E-04   -0.40618E-04   688   0.464E-04-0.461E-06
  45 F= -.49354105E+03 E0= -.49353467E+03  d E =-.520383E-01  mag=    -0.0441
       N       E                     dE             d eps       ncg     rms          ort
SDA:   1    -0.488468448301E+03    0.75717E+00    0.00000E+00   688   0.192E+01 0.000E+00
CGA:   2    -0.489086617758E+03   -0.61817E+00   -0.61819E+00   688   0.587E+00-0.437E-03
CGA:   3    -0.489221578571E+03   -0.13496E+00   -0.13499E+00   688   0.135E+00 0.155E-03
CGA:   4    -0.489249155415E+03   -0.27577E-01   -0.27581E-01   688   0.302E-01-0.189E-04
CGA:   5    -0.489255806781E+03   -0.66514E-02   -0.66512E-02   688   0.868E-02 0.142E-04
CGA:   6    -0.489258048843E+03   -0.22421E-02   -0.22420E-02   688   0.311E-02-0.488E-05
CGA:   7    -0.489259020917E+03   -0.97207E-03   -0.97203E-03   688   0.142E-02 0.126E-05
CGA:   8    -0.489259468953E+03   -0.44804E-03   -0.44790E-03   688   0.565E-03 0.392E-05
CGA:   9    -0.489259636378E+03   -0.16743E-03   -0.16743E-03   688   0.174E-03-0.617E-06
CGA:  10    -0.489259689193E+03   -0.52815E-04   -0.52808E-04   688   0.504E-04 0.260E-06
  46 F= -.49357541E+03 E0= -.49356897E+03  d E =-.343625E-01  mag=    -0.0455
       N       E                     dE             d eps       ncg     rms          ort
SDA:   1    -0.484810494295E+03    0.44491E+01    0.00000E+00   688   0.109E+02 0.000E+00
CGA:   2    -0.488284926518E+03   -0.34744E+01   -0.34747E+01   688   0.353E+01-0.434E-02
CGA:   3    -0.489052164861E+03   -0.76724E+00   -0.76724E+00   688   0.911E+00 0.438E-03
CGA:   4    -0.489224893534E+03   -0.17273E+00   -0.17307E+00   688   0.200E+00 0.320E-04
CGA:   5    -0.489269484121E+03   -0.44591E-01   -0.44574E-01   688   0.509E-01-0.280E-04
CGA:   6    -0.489283417931E+03   -0.13934E-01   -0.13934E-01   688   0.179E-01 0.927E-05
CGA:   7    -0.489289040726E+03   -0.56228E-02   -0.56227E-02   688   0.837E-02 0.121E-05
CGA:   8    -0.489291666716E+03   -0.26260E-02   -0.26256E-02   688   0.328E-02 0.126E-04
CGA:   9    -0.489292665243E+03   -0.99853E-03   -0.99850E-03   688   0.988E-03 0.110E-05
CGA:  10    -0.489292972057E+03   -0.30681E-03   -0.30684E-03   688   0.292E-03-0.812E-06
CGA:  11    -0.489293070230E+03   -0.98173E-04   -0.98124E-04   688   0.104E-03 0.925E-06
  47 F= -.49360949E+03 E0= -.49360285E+03  d E =-.684457E-01  mag=    -0.0487
       N       E                     dE             d eps       ncg     rms          ort
SDA:   1    -0.488310091659E+03    0.98288E+00    0.00000E+00   688   0.246E+01 0.000E+00
CGA:   2    -0.489106666067E+03   -0.79657E+00   -0.79657E+00   688   0.762E+00 0.439E-04
CGA:   3    -0.489277614405E+03   -0.17095E+00   -0.17098E+00   688   0.179E+00 0.140E-03
CGA:   4    -0.489313882389E+03   -0.36268E-01   -0.36277E-01   688   0.397E-01-0.243E-04
CGA:   5    -0.489322573047E+03   -0.86907E-02   -0.86898E-02   688   0.110E-01 0.122E-04
CGA:   6    -0.489325428508E+03   -0.28555E-02   -0.28554E-02   688   0.390E-02-0.423E-05
CGA:   7    -0.489326635949E+03   -0.12074E-02   -0.12074E-02   688   0.181E-02 0.685E-06
CGA:   8    -0.489327209280E+03   -0.57333E-03   -0.57320E-03   688   0.737E-03 0.362E-05
CGA:   9    -0.489327431183E+03   -0.22190E-03   -0.22192E-03   688   0.229E-03-0.919E-06
CGA:  10    -0.489327501966E+03   -0.70783E-04   -0.70775E-04   688   0.669E-04 0.321E-06
  48 F= -.49364390E+03 E0= -.49363718E+03  d E =-.344045E-01  mag=    -0.0493
       N       E                     dE             d eps       ncg     rms          ort
SDA:   1    -0.486775064356E+03    0.25524E+01    0.00000E+00   688   0.623E+01 0.000E+00
CGA:   2    -0.488781970852E+03   -0.20069E+01   -0.20069E+01   688   0.198E+01 0.471E-03
CGA:   3    -0.489215243806E+03   -0.43327E+00   -0.43333E+00   688   0.494E+00 0.283E-03
CGA:   4    -0.489311403672E+03   -0.96160E-01   -0.96255E-01   688   0.109E+00-0.136E-05
CGA:   5    -0.489335419082E+03   -0.24015E-01   -0.24009E-01   688   0.283E-01 0.361E-05
CGA:   6    -0.489343049977E+03   -0.76309E-02   -0.76309E-02   688   0.981E-02 0.323E-06
CGA:   7    -0.489346144679E+03   -0.30947E-02   -0.30947E-02   688   0.458E-02-0.110E-06
CGA:   8    -0.489347599580E+03   -0.14549E-02   -0.14546E-02   688   0.184E-02 0.719E-05
CGA:   9    -0.489348160470E+03   -0.56089E-03   -0.56090E-03   688   0.567E-03-0.502E-06
CGA:  10    -0.489348337382E+03   -0.17691E-03   -0.17691E-03   688   0.167E-03-0.874E-07
CGA:  11    -0.489348394179E+03   -0.56797E-04   -0.56765E-04   688   0.594E-04 0.574E-06
  49 F= -.49366472E+03 E0= -.49365795E+03  d E =-.552289E-01  mag=    -0.0492
       N       E                     dE             d eps       ncg     rms          ort
SDA:   1    -0.488725870598E+03    0.62247E+00    0.00000E+00   688   0.157E+01 0.000E+00
CGA:   2    -0.489233427680E+03   -0.50756E+00   -0.50758E+00   688   0.480E+00-0.381E-03
CGA:   3    -0.489343333816E+03   -0.10991E+00   -0.10993E+00   688   0.108E+00 0.116E-03
CGA:   4    -0.489365394558E+03   -0.22061E-01   -0.22063E-01   688   0.240E-01-0.124E-04
CGA:   5    -0.489370695275E+03   -0.53007E-02   -0.53010E-02   688   0.669E-02 0.157E-04
CGA:   6    -0.489372410043E+03   -0.17148E-02   -0.17147E-02   688   0.237E-02-0.363E-05
CGA:   7    -0.489373136049E+03   -0.72601E-03   -0.72598E-03   688   0.109E-02 0.116E-05
CGA:   8    -0.489373479610E+03   -0.34356E-03   -0.34350E-03   688   0.440E-03 0.180E-05
CGA:   9    -0.489373613115E+03   -0.13351E-03   -0.13352E-03   688   0.135E-03-0.666E-06
CGA:  10    -0.489373654908E+03   -0.41793E-04   -0.41790E-04   688   0.405E-04 0.103E-06
  50 F= -.49368995E+03 E0= -.49368310E+03  d E =-.252218E-01  mag=    -0.0499
       N       E                     dE             d eps       ncg     rms          ort
SDA:   1    -0.487894290849E+03    0.14793E+01    0.00000E+00   688   0.362E+01 0.000E+00
CGA:   2    -0.489062848652E+03   -0.11686E+01   -0.11686E+01   688   0.112E+01-0.136E-02
CGA:   3    -0.489316370673E+03   -0.25352E+00   -0.25359E+00   688   0.263E+00 0.326E-03
CGA:   4    -0.489368589990E+03   -0.52219E-01   -0.52244E-01   688   0.593E-01-0.537E-05
CGA:   5    -0.489381586466E+03   -0.12996E-01   -0.12995E-01   688   0.157E-01 0.209E-04
CGA:   6    -0.489385752511E+03   -0.41660E-02   -0.41661E-02   688   0.539E-02-0.248E-05
CGA:   7    -0.489387457101E+03   -0.17046E-02   -0.17046E-02   688   0.248E-02 0.778E-06
CGA:   8    -0.489388244810E+03   -0.78771E-03   -0.78758E-03   688   0.100E-02 0.356E-05
CGA:   9    -0.489388547472E+03   -0.30266E-03   -0.30267E-03   688   0.308E-03-0.641E-06
CGA:  10    -0.489388642556E+03   -0.95084E-04   -0.95088E-04   688   0.915E-04-0.155E-06
  51 F= -.49370487E+03 E0= -.49369790E+03  d E =-.401450E-01  mag=    -0.0514
       N       E                     dE             d eps       ncg     rms          ort
SDA:   1    -0.489125136069E+03    0.26341E+00    0.00000E+00   688   0.679E+00 0.000E+00
CGA:   2    -0.489347046855E+03   -0.22191E+00   -0.22191E+00   688   0.207E+00-0.520E-04
CGA:   3    -0.489394531993E+03   -0.47485E-01   -0.47489E-01   688   0.452E-01 0.321E-04
CGA:   4    -0.489404143765E+03   -0.96118E-02   -0.96116E-02   688   0.979E-02-0.130E-04
CGA:   5    -0.489406350923E+03   -0.22072E-02   -0.22075E-02   688   0.280E-02 0.886E-05
CGA:   6    -0.489407077385E+03   -0.72646E-03   -0.72639E-03   688   0.103E-02-0.382E-05
CGA:   7    -0.489407392362E+03   -0.31498E-03   -0.31495E-03   688   0.486E-03 0.102E-05
CGA:   8    -0.489407541961E+03   -0.14960E-03   -0.14958E-03   688   0.201E-03 0.653E-06
CGA:   9    -0.489407601160E+03   -0.59199E-04   -0.59206E-04   688   0.644E-04-0.546E-06
  52 F= -.49372360E+03 E0= -.49371647E+03  d E =-.187318E-01  mag=    -0.0516
       N       E                     dE             d eps       ncg     rms          ort
SDA:   1    -0.486888295289E+03    0.25192E+01    0.00000E+00   688   0.613E+01 0.000E+00
CGA:   2    -0.488877041070E+03   -0.19887E+01   -0.19888E+01   688   0.194E+01-0.953E-03
CGA:   3    -0.489304878641E+03   -0.42784E+00   -0.42788E+00   688   0.465E+00 0.316E-03
CGA:   4    -0.489396806986E+03   -0.91928E-01   -0.92017E-01   688   0.106E+00 0.564E-04
CGA:   5    -0.489419914780E+03   -0.23108E-01   -0.23101E-01   688   0.278E-01 0.852E-05
CGA:   6    -0.489427375987E+03   -0.74612E-02   -0.74612E-02   688   0.952E-02 0.433E-06
CGA:   7    -0.489430387871E+03   -0.30119E-02   -0.30119E-02   688   0.441E-02-0.156E-05
CGA:   8    -0.489431790536E+03   -0.14027E-02   -0.14024E-02   688   0.176E-02 0.619E-05
CGA:   9    -0.489432334079E+03   -0.54354E-03   -0.54357E-03   688   0.535E-03-0.992E-06
CGA:  10    -0.489432501272E+03   -0.16719E-03   -0.16720E-03   688   0.163E-03-0.369E-06
CGA:  11    -0.489432555125E+03   -0.53854E-04   -0.53853E-04   688   0.614E-04 0.205E-07
  53 F= -.49374777E+03 E0= -.49374010E+03  d E =-.429011E-01  mag=    -0.0523
       N       E                     dE             d eps       ncg     rms          ort
SDA:   1    -0.488961118162E+03    0.47138E+00    0.00000E+00   688   0.117E+01 0.000E+00
CGA:   2    -0.489344445606E+03   -0.38333E+00   -0.38330E+00   688   0.376E+00 0.362E-03
CGA:   3    -0.489427635098E+03   -0.83189E-01   -0.83177E-01   688   0.831E-01-0.200E-04
CGA:   4    -0.489445229890E+03   -0.17595E-01   -0.17596E-01   688   0.175E-01-0.185E-04
CGA:   5    -0.489449209374E+03   -0.39795E-02   -0.39797E-02   688   0.495E-02 0.647E-05
CGA:   6    -0.489450457428E+03   -0.12481E-02   -0.12479E-02   688   0.180E-02-0.468E-05
CGA:   7    -0.489450995300E+03   -0.53787E-03   -0.53785E-03   688   0.829E-03 0.132E-05
CGA:   8    -0.489451259701E+03   -0.26440E-03   -0.26438E-03   688   0.338E-03 0.515E-06
CGA:   9    -0.489451364052E+03   -0.10435E-03   -0.10437E-03   688   0.107E-03-0.879E-06
CGA:  10    -0.489451396799E+03   -0.32747E-04   -0.32738E-04   688   0.331E-04 0.393E-06
  54 F= -.49376523E+03 E0= -.49375737E+03  d E =-.174598E-01  mag=    -0.0520
       N       E                     dE             d eps       ncg     rms          ort
SDA:   1    -0.489081653950E+03    0.36971E+00    0.00000E+00   688   0.898E+00 0.000E+00
CGA:   2    -0.489375433330E+03   -0.29378E+00   -0.29376E+00   688   0.288E+00 0.242E-03
CGA:   3    -0.489439290183E+03   -0.63857E-01   -0.63848E-01   688   0.633E-01-0.136E-04
CGA:   4    -0.489452758852E+03   -0.13469E-01   -0.13469E-01   688   0.133E-01-0.167E-04
CGA:   5    -0.489455794648E+03   -0.30358E-02   -0.30360E-02   688   0.370E-02 0.550E-05
CGA:   6    -0.489456752160E+03   -0.95751E-03   -0.95743E-03   688   0.134E-02-0.437E-05
CGA:   7    -0.489457161342E+03   -0.40918E-03   -0.40914E-03   688   0.620E-03 0.161E-05
CGA:   8    -0.489457358681E+03   -0.19734E-03   -0.19734E-03   688   0.256E-03-0.133E-06
CGA:   9    -0.489457435889E+03   -0.77207E-04   -0.77216E-04   688   0.826E-04-0.443E-06
  55 F= -.49377004E+03 E0= -.49376205E+03  d E =-.222747E-01  mag=    -0.0515
       N       E                     dE             d eps       ncg     rms          ort
SDA:   1    -0.489051081531E+03    0.40628E+00    0.00000E+00   688   0.100E+01 0.000E+00
CGA:   2    -0.489384191564E+03   -0.33311E+00   -0.33310E+00   688   0.313E+00 0.575E-04
CGA:   3    -0.489454930667E+03   -0.70739E-01   -0.70741E-01   688   0.673E-01 0.188E-04
CGA:   4    -0.489469164818E+03   -0.14234E-01   -0.14235E-01   688   0.143E-01-0.818E-05
CGA:   5    -0.489472474371E+03   -0.33096E-02   -0.33099E-02   688   0.405E-02 0.994E-05
CGA:   6    -0.489473524738E+03   -0.10504E-02   -0.10503E-02   688   0.153E-02-0.304E-05
CGA:   7    -0.489473981126E+03   -0.45639E-03   -0.45636E-03   688   0.734E-03 0.148E-05
CGA:   8    -0.489474206461E+03   -0.22534E-03   -0.22532E-03   688   0.296E-03 0.369E-06
CGA:   9    -0.489474296314E+03   -0.89853E-04   -0.89873E-04   688   0.911E-04-0.803E-06
  56 F= -.49378559E+03 E0= -.49377752E+03  d E =-.155426E-01  mag=    -0.0515
       N       E                     dE             d eps       ncg     rms          ort
SDA:   1    -0.488876770455E+03    0.59744E+00    0.00000E+00   688   0.144E+01 0.000E+00
CGA:   2    -0.489353538499E+03   -0.47677E+00   -0.47676E+00   688   0.448E+00 0.793E-04
CGA:   3    -0.489454764060E+03   -0.10123E+00   -0.10123E+00   688   0.965E-01 0.315E-04
CGA:   4    -0.489475127512E+03   -0.20363E-01   -0.20365E-01   688   0.207E-01-0.791E-05
CGA:   5    -0.489479871483E+03   -0.47440E-02   -0.47443E-02   688   0.585E-02 0.125E-04
CGA:   6    -0.489481383880E+03   -0.15124E-02   -0.15123E-02   688   0.219E-02-0.381E-05
CGA:   7    -0.489482043821E+03   -0.65994E-03   -0.65989E-03   688   0.103E-02 0.189E-05
CGA:   8    -0.489482366074E+03   -0.32225E-03   -0.32223E-03   688   0.412E-03 0.488E-06
CGA:   9    -0.489482491494E+03   -0.12542E-03   -0.12544E-03   688   0.127E-03-0.871E-06
CGA:  10    -0.489482530382E+03   -0.38888E-04   -0.38881E-04   688   0.388E-04 0.261E-06
  57 F= -.49379222E+03 E0= -.49378406E+03  d E =-.221778E-01  mag=    -0.0516
       N       E                     dE             d eps       ncg     rms          ort
SDA:   1    -0.489177049136E+03    0.30544E+00    0.00000E+00   688   0.754E+00 0.000E+00
CGA:   2    -0.489430867496E+03   -0.25382E+00   -0.25382E+00   688   0.232E+00 0.152E-04
CGA:   3    -0.489483210884E+03   -0.52343E-01   -0.52347E-01   688   0.488E-01 0.302E-04
CGA:   4    -0.489493713610E+03   -0.10503E-01   -0.10503E-01   688   0.106E-01-0.978E-05
CGA:   5    -0.489496188402E+03   -0.24748E-02   -0.24750E-02   688   0.289E-02 0.615E-05
CGA:   6    -0.489496978602E+03   -0.79020E-03   -0.79019E-03   688   0.109E-02-0.275E-05
CGA:   7    -0.489497319064E+03   -0.34046E-03   -0.34040E-03   688   0.526E-03 0.186E-05
CGA:   8    -0.489497476860E+03   -0.15780E-03   -0.15780E-03   688   0.215E-03-0.272E-06
CGA:   9    -0.489497538294E+03   -0.61434E-04   -0.61435E-04   688   0.654E-04-0.198E-06
  58 F= -.49380668E+03 E0= -.49379840E+03  d E =-.144555E-01  mag=    -0.0508
       N       E                     dE             d eps       ncg     rms          ort
SDA:   1    -0.486633323450E+03    0.28642E+01    0.00000E+00   688   0.679E+01 0.000E+00
CGA:   2    -0.488913479705E+03   -0.22802E+01   -0.22801E+01   688   0.213E+01 0.114E-04
CGA:   3    -0.489385896488E+03   -0.47242E+00   -0.47257E+00   688   0.464E+00 0.803E-03
CGA:   4    -0.489482588442E+03   -0.96692E-01   -0.96722E-01   688   0.106E+00 0.686E-04
CGA:   5    -0.489506241887E+03   -0.23653E-01   -0.23650E-01   688   0.290E-01 0.128E-04
CGA:   6    -0.489513953023E+03   -0.77111E-02   -0.77112E-02   688   0.104E-01-0.121E-05
CGA:   7    -0.489517256939E+03   -0.33039E-02   -0.33038E-02   688   0.477E-02 0.388E-05
CGA:   8    -0.489518785908E+03   -0.15290E-02   -0.15288E-02   688   0.186E-02 0.385E-05
CGA:   9    -0.489519348557E+03   -0.56265E-03   -0.56267E-03   688   0.555E-03-0.964E-06
CGA:  10    -0.489519519617E+03   -0.17106E-03   -0.17104E-03   688   0.163E-03 0.525E-06
CGA:  11    -0.489519575649E+03   -0.56032E-04   -0.56055E-04   688   0.618E-04-0.374E-06
  59 F= -.49382704E+03 E0= -.49381826E+03  d E =-.348173E-01  mag=    -0.0470
       N       E                     dE             d eps       ncg     rms          ort
SDA:   1    -0.488956242055E+03    0.56328E+00    0.00000E+00   688   0.137E+01 0.000E+00
CGA:   2    -0.489406968431E+03   -0.45073E+00   -0.45070E+00   688   0.462E+00 0.292E-03
CGA:   3    -0.489506848869E+03   -0.99880E-01   -0.99910E-01   688   0.100E+00 0.812E-04
CGA:   4    -0.489528306889E+03   -0.21458E-01   -0.21460E-01   688   0.214E-01-0.136E-04
CGA:   5    -0.489533262513E+03   -0.49556E-02   -0.49558E-02   688   0.591E-02 0.462E-05
CGA:   6    -0.489534801431E+03   -0.15389E-02   -0.15388E-02   688   0.219E-02-0.480E-05
CGA:   7    -0.489535462088E+03   -0.66066E-03   -0.66059E-03   688   0.102E-02 0.287E-05
CGA:   8    -0.489535780143E+03   -0.31806E-03   -0.31804E-03   688   0.414E-03 0.556E-06
CGA:   9    -0.489535904482E+03   -0.12434E-03   -0.12434E-03   688   0.128E-03-0.364E-06
CGA:  10    -0.489535943660E+03   -0.39178E-04   -0.39166E-04   688   0.381E-04 0.519E-06
  60 F= -.49384212E+03 E0= -.49383311E+03  d E =-.150760E-01  mag=    -0.0442
       N       E                     dE             d eps       ncg     rms          ort
SDA:   1    -0.489400695313E+03    0.13521E+00    0.00000E+00   688   0.326E+00 0.000E+00
CGA:   2    -0.489507770873E+03   -0.10708E+00   -0.10707E+00   688   0.109E+00 0.309E-04
CGA:   3    -0.489531450795E+03   -0.23680E-01   -0.23683E-01   688   0.235E-01 0.190E-04
CGA:   4    -0.489536501454E+03   -0.50507E-02   -0.50503E-02   688   0.501E-02-0.909E-05
CGA:   5    -0.489537671718E+03   -0.11703E-02   -0.11703E-02   688   0.135E-02 0.694E-06
CGA:   6    -0.489538037520E+03   -0.36580E-03   -0.36579E-03   688   0.497E-03-0.193E-05
CGA:   7    -0.489538193029E+03   -0.15551E-03   -0.15547E-03   688   0.236E-03 0.109E-05
CGA:   8    -0.489538265031E+03   -0.72003E-04   -0.72002E-04   688   0.101E-03 0.482E-07
  61 F= -.49384381E+03 E0= -.49383469E+03  d E =-.167711E-01  mag=    -0.0426
       N       E                     dE             d eps       ncg     rms          ort
SDA:   1    -0.489009708986E+03    0.52848E+00    0.00000E+00   688   0.130E+01 0.000E+00
CGA:   2    -0.489432385544E+03   -0.42268E+00   -0.42269E+00   688   0.422E+00-0.252E-03
CGA:   3    -0.489527057025E+03   -0.94671E-01   -0.94703E-01   688   0.907E-01 0.151E-03
CGA:   4    -0.489546296398E+03   -0.19239E-01   -0.19240E-01   688   0.199E-01-0.725E-05
CGA:   5    -0.489550994143E+03   -0.46977E-02   -0.46981E-02   688   0.561E-02 0.105E-04
CGA:   6    -0.489552480633E+03   -0.14865E-02   -0.14865E-02   688   0.225E-02-0.364E-05
CGA:   7    -0.489553131893E+03   -0.65126E-03   -0.65122E-03   688   0.109E-02 0.262E-05
CGA:   8    -0.489553455200E+03   -0.32331E-03   -0.32327E-03   688   0.427E-03 0.160E-05
CGA:   9    -0.489553583578E+03   -0.12838E-03   -0.12839E-03   688   0.128E-03-0.732E-06
CGA:  10    -0.489553622725E+03   -0.39147E-04   -0.39133E-04   688   0.390E-04 0.510E-06
  62 F= -.49385759E+03 E0= -.49384833E+03  d E =-.137821E-01  mag=    -0.0402
       N       E                     dE             d eps       ncg     rms          ort
SDA:   1    -0.488364545621E+03    0.11890E+01    0.00000E+00   688   0.286E+01 0.000E+00
CGA:   2    -0.489295091674E+03   -0.93055E+00   -0.93060E+00   688   0.937E+00-0.102E-02
CGA:   3    -0.489504103841E+03   -0.20901E+00   -0.20913E+00   688   0.202E+00 0.523E-03
CGA:   4    -0.489546809361E+03   -0.42706E-01   -0.42707E-01   688   0.449E-01-0.509E-05
CGA:   5    -0.489557316674E+03   -0.10507E-01   -0.10508E-01   688   0.123E-01 0.175E-04
CGA:   6    -0.489560635030E+03   -0.33184E-02   -0.33183E-02   688   0.468E-02-0.538E-05
CGA:   7    -0.489562074352E+03   -0.14393E-02   -0.14392E-02   688   0.221E-02 0.552E-05
CGA:   8    -0.489562753130E+03   -0.67878E-03   -0.67874E-03   688   0.882E-03 0.132E-05
CGA:   9    -0.489563011801E+03   -0.25867E-03   -0.25867E-03   688   0.275E-03-0.222E-06
CGA:  10    -0.489563093279E+03   -0.81478E-04   -0.81468E-04   688   0.851E-04 0.612E-06
  63 F= -.49386472E+03 E0= -.49385524E+03  d E =-.209141E-01  mag=    -0.0371
       N       E                     dE             d eps       ncg     rms          ort
SDA:   1    -0.489126760443E+03    0.43625E+00    0.00000E+00   688   0.109E+01 0.000E+00
CGA:   2    -0.489473055420E+03   -0.34629E+00   -0.34631E+00   688   0.357E+00-0.337E-03
CGA:   3    -0.489553492937E+03   -0.80438E-01   -0.80468E-01   688   0.772E-01 0.151E-03
CGA:   4    -0.489569855036E+03   -0.16362E-01   -0.16361E-01   688   0.168E-01-0.642E-05
CGA:   5    -0.489573823685E+03   -0.39686E-02   -0.39690E-02   688   0.435E-02 0.104E-04
CGA:   6    -0.489575040233E+03   -0.12165E-02   -0.12166E-02   688   0.161E-02-0.326E-05
CGA:   7    -0.489575552122E+03   -0.51189E-03   -0.51173E-03   688   0.756E-03 0.363E-05
CGA:   8    -0.489575786058E+03   -0.23394E-03   -0.23395E-03   688   0.308E-03-0.609E-06
CGA:   9    -0.489575876640E+03   -0.90583E-04   -0.90576E-04   688   0.954E-04 0.417E-06
  64 F= -.49387651E+03 E0= -.49386678E+03  d E =-.117854E-01  mag=    -0.0346
       N       E                     dE             d eps       ncg     rms          ort
SDA:   1    -0.489158433327E+03    0.41735E+00    0.00000E+00   688   0.102E+01 0.000E+00
CGA:   2    -0.489483720186E+03   -0.32529E+00   -0.32531E+00   688   0.337E+00-0.338E-03
CGA:   3    -0.489559525113E+03   -0.75805E-01   -0.75836E-01   688   0.734E-01 0.153E-03
CGA:   4    -0.489575062265E+03   -0.15537E-01   -0.15536E-01   688   0.159E-01-0.890E-05
CGA:   5    -0.489578807450E+03   -0.37452E-02   -0.37456E-02   688   0.426E-02 0.112E-04
CGA:   6    -0.489579967815E+03   -0.11604E-02   -0.11604E-02   688   0.161E-02-0.359E-05
CGA:   7    -0.489580457991E+03   -0.49018E-03   -0.49008E-03   688   0.767E-03 0.322E-05
CGA:   8    -0.489580690628E+03   -0.23264E-03   -0.23263E-03   688   0.314E-03 0.134E-06
CGA:   9    -0.489580783615E+03   -0.92986E-04   -0.92991E-04   688   0.996E-04-0.251E-06
  65 F= -.49388044E+03 E0= -.49387044E+03  d E =-.157200E-01  mag=    -0.0319
       N       E                     dE             d eps       ncg     rms          ort
SDA:   1    -0.489112352068E+03    0.46834E+00    0.00000E+00   688   0.117E+01 0.000E+00
CGA:   2    -0.489478173237E+03   -0.36582E+00   -0.36582E+00   688   0.403E+00 0.476E-04
CGA:   3    -0.489566625843E+03   -0.88453E-01   -0.88497E-01   688   0.893E-01 0.180E-03
CGA:   4    -0.489585747546E+03   -0.19122E-01   -0.19121E-01   688   0.188E-01-0.143E-04
CGA:   5    -0.489590156821E+03   -0.44093E-02   -0.44095E-02   688   0.505E-02 0.611E-05
CGA:   6    -0.489591505650E+03   -0.13488E-02   -0.13488E-02   688   0.186E-02-0.449E-05
CGA:   7    -0.489592071332E+03   -0.56568E-03   -0.56558E-03   688   0.871E-03 0.337E-05
CGA:   8    -0.489592342172E+03   -0.27084E-03   -0.27084E-03   688   0.361E-03 0.334E-07
CGA:   9    -0.489592449561E+03   -0.10739E-03   -0.10739E-03   688   0.118E-03-0.123E-06
CGA:  10    -0.489592483663E+03   -0.34102E-04   -0.34095E-04   688   0.378E-04 0.601E-06
  66 F= -.49389141E+03 E0= -.49388119E+03  d E =-.109657E-01  mag=    -0.0293
       N       E                     dE             d eps       ncg     rms          ort
SDA:   1    -0.489532641848E+03    0.59808E-01    0.00000E+00   688   0.148E+00 0.000E+00
CGA:   2    -0.489579110284E+03   -0.46468E-01   -0.46468E-01   688   0.506E-01 0.627E-06
CGA:   3    -0.489590276325E+03   -0.11166E-01   -0.11168E-01   688   0.111E-01 0.160E-04
CGA:   4    -0.489592661929E+03   -0.23856E-02   -0.23853E-02   688   0.236E-02-0.550E-05
CGA:   5    -0.489593217055E+03   -0.55513E-03   -0.55516E-03   688   0.611E-03 0.715E-06
CGA:   6    -0.489593386643E+03   -0.16959E-03   -0.16959E-03   688   0.223E-03-0.110E-05
CGA:   7    -0.489593457864E+03   -0.71221E-04   -0.71185E-04   688   0.105E-03 0.756E-06
  67 F= -.49389212E+03 E0= -.49388183E+03  d E =-.116780E-01  mag=    -0.0283
       N       E                     dE             d eps       ncg     rms          ort
SDA:   1    -0.489268371492E+03    0.32502E+00    0.00000E+00   688   0.818E+00 0.000E+00
CGA:   2    -0.489524434892E+03   -0.25606E+00   -0.25607E+00   688   0.270E+00-0.693E-04
CGA:   3    -0.489585856060E+03   -0.61421E-01   -0.61438E-01   688   0.601E-01 0.110E-03
CGA:   4    -0.489598422646E+03   -0.12567E-01   -0.12566E-01   688   0.129E-01-0.844E-05
CGA:   5    -0.489601521569E+03   -0.30989E-02   -0.30991E-02   688   0.356E-02 0.611E-05
CGA:   6    -0.489602466366E+03   -0.94480E-03   -0.94479E-03   688   0.146E-02-0.792E-06
CGA:   7    -0.489602879752E+03   -0.41339E-03   -0.41337E-03   688   0.707E-03 0.135E-05
CGA:   8    -0.489603092832E+03   -0.21308E-03   -0.21305E-03   688   0.272E-03 0.895E-06
CGA:   9    -0.489603176425E+03   -0.83592E-04   -0.83606E-04   688   0.860E-04-0.384E-06
  68 F= -.49390151E+03 E0= -.49389117E+03  d E =-.938472E-02  mag=    -0.0290
       N       E                     dE             d eps       ncg     rms          ort
[...]
CGA:   5    -0.489775311856E+03   -0.19162E-02   -0.19163E-02   688   0.229E-02 0.578E-05
CGA:   6    -0.489775873351E+03   -0.56149E-03   -0.56151E-03   688   0.844E-03 0.284E-05
CGA:   7    -0.489776104197E+03   -0.23085E-03   -0.23087E-03   688   0.378E-03-0.889E-06
CGA:   8    -0.489776216564E+03   -0.11237E-03   -0.11239E-03   688   0.146E-03-0.473E-06
CGA:   9    -0.489776262432E+03   -0.45868E-04   -0.45839E-04   688   0.448E-04 0.471E-06
 119 F= -.49405556E+03 E0= -.49404227E+03  d E =-.256682E-02  mag=    -0.0037
       N       E                     dE             d eps       ncg     rms          ort
SDA:   1    -0.489723754298E+03    0.52462E-01    0.00000E+00   688   0.135E+00 0.000E+00
CGA:   2    -0.489763548861E+03   -0.39795E-01   -0.39795E-01   688   0.495E-01-0.618E-05
CGA:   3    -0.489774592969E+03   -0.11044E-01   -0.11042E-01   688   0.112E-01-0.183E-04
CGA:   4    -0.489776798433E+03   -0.22055E-02   -0.22055E-02   688   0.227E-02-0.245E-05
CGA:   5    -0.489777327350E+03   -0.52892E-03   -0.52899E-03   688   0.621E-03 0.303E-05
CGA:   6    -0.489777479360E+03   -0.15201E-03   -0.15204E-03   688   0.221E-03 0.264E-05
CGA:   7    -0.489777540261E+03   -0.60901E-04   -0.60914E-04   688   0.997E-04-0.680E-06
 120 F= -.49405681E+03 E0= -.49404343E+03  d E =-.125164E-02  mag=    -0.0034
       N       E                     dE             d eps       ncg     rms          ort
SDA:   1    -0.489752698415E+03    0.24781E-01    0.00000E+00   688   0.632E-01 0.000E+00
CGA:   2    -0.489771281297E+03   -0.18583E-01   -0.18583E-01   688   0.231E-01 0.148E-05
CGA:   3    -0.489776427646E+03   -0.51463E-02   -0.51457E-02   688   0.538E-02-0.870E-05
CGA:   4    -0.489777459035E+03   -0.10314E-02   -0.10314E-02   688   0.112E-02-0.150E-05
CGA:   5    -0.489777727635E+03   -0.26860E-03   -0.26863E-03   688   0.319E-03 0.175E-05
CGA:   6    -0.489777805868E+03   -0.78234E-04   -0.78252E-04   688   0.118E-03 0.204E-05
 121 F= -.49405706E+03 E0= -.49404359E+03  d E =-.149891E-02  mag=    -0.0032
       N       E                     dE             d eps       ncg     rms          ort
SDA:   1    -0.489751874775E+03    0.25853E-01    0.00000E+00   688   0.678E-01 0.000E+00
CGA:   2    -0.489771676856E+03   -0.19802E-01   -0.19801E-01   688   0.251E-01 0.205E-04
CGA:   3    -0.489777166902E+03   -0.54900E-02   -0.54892E-02   688   0.567E-02-0.885E-05
CGA:   4    -0.489778308335E+03   -0.11414E-02   -0.11413E-02   688   0.129E-02-0.335E-05
CGA:   5    -0.489778592399E+03   -0.28406E-03   -0.28409E-03   688   0.401E-03 0.782E-06
CGA:   6    -0.489778685100E+03   -0.92701E-04   -0.92734E-04   688   0.142E-03 0.171E-05
 122 F= -.49405793E+03 E0= -.49404438E+03  d E =-.869523E-03  mag=    -0.0029
       N       E                     dE             d eps       ncg     rms          ort
SDA:   1    -0.489579077688E+03    0.19951E+00    0.00000E+00   688   0.506E+00 0.000E+00
CGA:   2    -0.489727232535E+03   -0.14815E+00   -0.14813E+00   688   0.186E+00 0.412E-03
CGA:   3    -0.489768144395E+03   -0.40912E-01   -0.40898E-01   688   0.418E-01-0.146E-03
CGA:   4    -0.489776643590E+03   -0.84992E-02   -0.85003E-02   688   0.848E-02-0.368E-05
CGA:   5    -0.489778672817E+03   -0.20292E-02   -0.20293E-02   688   0.226E-02 0.425E-05
CGA:   6    -0.489779260488E+03   -0.58767E-03   -0.58763E-03   688   0.820E-03 0.387E-05
CGA:   7    -0.489779491844E+03   -0.23136E-03   -0.23143E-03   688   0.405E-03-0.229E-05
CGA:   8    -0.489779602679E+03   -0.11083E-03   -0.11085E-03   688   0.163E-03-0.623E-06
CGA:   9    -0.489779652269E+03   -0.49590E-04   -0.49552E-04   688   0.505E-04 0.731E-06
 123 F= -.49405887E+03 E0= -.49404512E+03  d E =-.180701E-02  mag=    -0.0015
       N       E                     dE             d eps       ncg     rms          ort
SDA:   1    -0.489740764742E+03    0.38838E-01    0.00000E+00   688   0.102E+00 0.000E+00
CGA:   2    -0.489770445850E+03   -0.29681E-01   -0.29679E-01   688   0.374E-01 0.460E-04
CGA:   3    -0.489778532977E+03   -0.80871E-02   -0.80855E-02   688   0.869E-02-0.138E-04
CGA:   4    -0.489780269689E+03   -0.17367E-02   -0.17366E-02   688   0.171E-02-0.348E-05
CGA:   5    -0.489780665488E+03   -0.39580E-03   -0.39581E-03   688   0.476E-03 0.410E-06
CGA:   6    -0.489780779386E+03   -0.11390E-03   -0.11393E-03   688   0.170E-03 0.230E-05
CGA:   7    -0.489780826328E+03   -0.46941E-04   -0.46966E-04   688   0.749E-04-0.109E-05
 124 F= -.49405989E+03 E0= -.49404606E+03  d E =-.102159E-02  mag=    -0.0009
       N       E                     dE             d eps       ncg     rms          ort
SDA:   1    -0.489663650525E+03    0.11713E+00    0.00000E+00   688   0.300E+00 0.000E+00
CGA:   2    -0.489751080518E+03   -0.87430E-01   -0.87418E-01   688   0.110E+00 0.220E-03
CGA:   3    -0.489774919888E+03   -0.23839E-01   -0.23832E-01   688   0.258E-01-0.609E-04
CGA:   4    -0.489780044458E+03   -0.51246E-02   -0.51250E-02   688   0.506E-02-0.469E-05
CGA:   5    -0.489781261301E+03   -0.12168E-02   -0.12169E-02   688   0.135E-02 0.146E-05
CGA:   6    -0.489781602205E+03   -0.34090E-03   -0.34090E-03   688   0.481E-03 0.395E-05
CGA:   7    -0.489781737105E+03   -0.13490E-03   -0.13497E-03   688   0.225E-03-0.254E-05
CGA:   8    -0.489781800040E+03   -0.62935E-04   -0.62947E-04   688   0.915E-04-0.438E-06
 125 F= -.49406060E+03 E0= -.49404672E+03  d E =-.173339E-02  mag=    -0.0001
       N       E                     dE             d eps       ncg     rms          ort
SDA:   1    -0.489740061188E+03    0.41676E-01    0.00000E+00   688   0.110E+00 0.000E+00
CGA:   2    -0.489772011044E+03   -0.31950E-01   -0.31950E-01   688   0.396E-01 0.101E-04
CGA:   3    -0.489780724785E+03   -0.87137E-02   -0.87124E-02   688   0.955E-02-0.131E-04
CGA:   4    -0.489782574505E+03   -0.18497E-02   -0.18497E-02   688   0.178E-02-0.285E-05
CGA:   5    -0.489783015632E+03   -0.44113E-03   -0.44114E-03   688   0.465E-03 0.262E-05
CGA:   6    -0.489783135526E+03   -0.11989E-03   -0.11988E-03   688   0.166E-03 0.264E-05
CGA:   7    -0.489783182651E+03   -0.47125E-04   -0.47172E-04   688   0.788E-04-0.162E-05
 126 F= -.49406177E+03 E0= -.49404785E+03  d E =-.117019E-02  mag=     0.0004
       N       E                     dE             d eps       ncg     rms          ort
SDA:   1    -0.489708133507E+03    0.75002E-01    0.00000E+00   688   0.193E+00 0.000E+00
CGA:   2    -0.489764366002E+03   -0.56232E-01   -0.56233E-01   688   0.692E-01 0.988E-05
CGA:   3    -0.489779674661E+03   -0.15309E-01   -0.15306E-01   688   0.167E-01-0.287E-04
CGA:   4    -0.489782866595E+03   -0.31919E-02   -0.31922E-02   688   0.327E-02-0.240E-05
CGA:   5    -0.489783657612E+03   -0.79102E-03   -0.79105E-03   688   0.890E-03 0.306E-05
CGA:   6    -0.489783871652E+03   -0.21404E-03   -0.21408E-03   688   0.330E-03 0.333E-05
CGA:   7    -0.489783960148E+03   -0.88496E-04   -0.88515E-04   688   0.142E-03-0.127E-05
 127 F= -.49406227E+03 E0= -.49404831E+03  d E =-.166553E-02  mag=     0.0009
       N       E                     dE             d eps       ncg     rms          ort
SDA:   1    -0.489747251332E+03    0.36620E-01    0.00000E+00   688   0.960E-01 0.000E+00
CGA:   2    -0.489775412778E+03   -0.28161E-01   -0.28160E-01   688   0.345E-01 0.302E-04
CGA:   3    -0.489783000417E+03   -0.75876E-02   -0.75864E-02   688   0.829E-02-0.142E-04
CGA:   4    -0.489784588838E+03   -0.15884E-02   -0.15884E-02   688   0.168E-02-0.278E-05
CGA:   5    -0.489784993940E+03   -0.40510E-03   -0.40511E-03   688   0.475E-03 0.968E-06
CGA:   6    -0.489785107717E+03   -0.11378E-03   -0.11381E-03   688   0.179E-03 0.252E-05
CGA:   7    -0.489785156849E+03   -0.49132E-04   -0.49155E-04   688   0.783E-04-0.985E-06
 128 F= -.49406325E+03 E0= -.49404925E+03  d E =-.984022E-03  mag=     0.0014
       N       E                     dE             d eps       ncg     rms          ort
SDA:   1    -0.489477525804E+03    0.30758E+00    0.00000E+00   688   0.784E+00 0.000E+00
CGA:   2    -0.489707214457E+03   -0.22969E+00   -0.22966E+00   688   0.281E+00 0.495E-03
CGA:   3    -0.489769198100E+03   -0.61984E-01   -0.61961E-01   688   0.667E-01-0.226E-03
CGA:   4    -0.489782198971E+03   -0.13001E-01   -0.13005E-01   688   0.129E-01 0.173E-05
CGA:   5    -0.489785360817E+03   -0.31618E-02   -0.31619E-02   688   0.330E-02 0.504E-05
CGA:   6    -0.489786219713E+03   -0.85890E-03   -0.85885E-03   688   0.116E-02 0.587E-05
CGA:   7    -0.489786554883E+03   -0.33517E-03   -0.33532E-03   688   0.534E-03-0.411E-05
CGA:   8    -0.489786704638E+03   -0.14975E-03   -0.14975E-03   688   0.222E-03 0.132E-06
CGA:   9    -0.489786768491E+03   -0.63853E-04   -0.63822E-04   688   0.675E-04 0.969E-06
 129 F= -.49406425E+03 E0= -.49405016E+03  d E =-.198298E-02  mag=     0.0030
       N       E                     dE             d eps       ncg     rms          ort
SDA:   1    -0.489713204908E+03    0.73500E-01    0.00000E+00   688   0.190E+00 0.000E+00
CGA:   2    -0.489768409066E+03   -0.55204E-01   -0.55198E-01   688   0.694E-01 0.130E-03
CGA:   3    -0.489783429796E+03   -0.15021E-01   -0.15017E-01   688   0.164E-01-0.285E-04
CGA:   4    -0.489786739316E+03   -0.33095E-02   -0.33096E-02   688   0.316E-02-0.487E-05
CGA:   5    -0.489787488821E+03   -0.74950E-03   -0.74952E-03   688   0.838E-03 0.551E-06
CGA:   6    -0.489787701896E+03   -0.21308E-03   -0.21308E-03   688   0.286E-03 0.321E-05
CGA:   7    -0.489787786648E+03   -0.84752E-04   -0.84846E-04   688   0.126E-03-0.232E-05
 130 F= -.49406513E+03 E0= -.49405102E+03  d E =-.878796E-03  mag=     0.0034
       N       E                     dE             d eps       ncg     rms          ort
SDA:   1    -0.489781642128E+03    0.60598E-02    0.00000E+00   688   0.159E-01 0.000E+00
CGA:   2    -0.489786276602E+03   -0.46345E-02   -0.46342E-02   688   0.588E-02 0.625E-05
CGA:   3    -0.489787529161E+03   -0.12526E-02   -0.12525E-02   688   0.149E-02-0.282E-06
CGA:   4    -0.489787813241E+03   -0.28408E-03   -0.28394E-03   688   0.310E-03-0.222E-05
CGA:   5    -0.489787887734E+03   -0.74492E-04   -0.74499E-04   688   0.969E-04 0.452E-06
 131 F= -.49406519E+03 E0= -.49405107E+03  d E =-.939492E-03  mag=     0.0035
       N       E                     dE             d eps       ncg     rms          ort
SDA:   1    -0.489717900053E+03    0.69913E-01    0.00000E+00   688   0.181E+00 0.000E+00
CGA:   2    -0.489770608139E+03   -0.52708E-01   -0.52707E-01   688   0.649E-01 0.273E-04
CGA:   3    -0.489784730101E+03   -0.14122E-01   -0.14120E-01   688   0.162E-01-0.194E-04
CGA:   4    -0.489787923012E+03   -0.31929E-02   -0.31932E-02   688   0.314E-02-0.238E-05
CGA:   5    -0.489788675664E+03   -0.75265E-03   -0.75269E-03   688   0.867E-03 0.296E-05
CGA:   6    -0.489788888015E+03   -0.21235E-03   -0.21237E-03   688   0.322E-03 0.295E-05
CGA:   7    -0.489788977644E+03   -0.89629E-04   -0.89664E-04   688   0.139E-03-0.126E-05
 132 F= -.49406634E+03 E0= -.49405222E+03  d E =-.114969E-02  mag=     0.0034
       N       E                     dE             d eps       ncg     rms          ort
SDA:   1    -0.489676053688E+03    0.11283E+00    0.00000E+00   688   0.289E+00 0.000E+00
CGA:   2    -0.489760330161E+03   -0.84276E-01   -0.84275E-01   688   0.102E+00 0.349E-04
CGA:   3    -0.489782862147E+03   -0.22532E-01   -0.22528E-01   688   0.250E-01-0.385E-04
CGA:   4    -0.489787721585E+03   -0.48594E-02   -0.48601E-02   688   0.488E-02-0.201E-05
CGA:   5    -0.489788914060E+03   -0.11925E-02   -0.11925E-02   688   0.129E-02 0.385E-05
CGA:   6    -0.489789243655E+03   -0.32959E-03   -0.32958E-03   688   0.468E-03 0.370E-05
CGA:   7    -0.489789375539E+03   -0.13188E-03   -0.13195E-03   688   0.214E-03-0.202E-05
CGA:   8    -0.489789436798E+03   -0.61259E-04   -0.61266E-04   688   0.857E-04-0.207E-06
 133 F= -.49406687E+03 E0= -.49405273E+03  d E =-.168267E-02  mag=     0.0031
       N       E                     dE             d eps       ncg     rms          ort
SDA:   1    -0.489702088778E+03    0.87287E-01    0.00000E+00   688   0.226E+00 0.000E+00
CGA:   2    -0.489767693976E+03   -0.65605E-01   -0.65603E-01   688   0.810E-01 0.526E-04
CGA:   3    -0.489785336446E+03   -0.17642E-01   -0.17639E-01   688   0.196E-01-0.291E-04
CGA:   4    -0.489789220939E+03   -0.38845E-02   -0.38848E-02   688   0.367E-02-0.358E-05
CGA:   5    -0.489790122457E+03   -0.90152E-03   -0.90155E-03   688   0.933E-03 0.356E-05
CGA:   6    -0.489790369778E+03   -0.24732E-03   -0.24728E-03   688   0.314E-03 0.322E-05
CGA:   7    -0.489790465263E+03   -0.95485E-04   -0.95593E-04   688   0.141E-03-0.213E-05
 134 F= -.49406804E+03 E0= -.49405387E+03  d E =-.117278E-02  mag=     0.0031
       N       E                     dE             d eps       ncg     rms          ort
SDA:   1    -0.489295871375E+03    0.49450E+00    0.00000E+00   688   0.127E+01 0.000E+00
CGA:   2    -0.489663815877E+03   -0.36794E+00   -0.36792E+00   688   0.449E+00 0.544E-03
CGA:   3    -0.489762413137E+03   -0.98597E-01   -0.98562E-01   688   0.109E+00-0.300E-03
CGA:   4    -0.489783901579E+03   -0.21488E-01   -0.21498E-01   688   0.210E-01 0.156E-04
CGA:   5    -0.489789009581E+03   -0.51080E-02   -0.51081E-02   688   0.541E-02 0.858E-05
CGA:   6    -0.489790389617E+03   -0.13800E-02   -0.13800E-02   688   0.192E-02 0.476E-05
CGA:   7    -0.489790924137E+03   -0.53452E-03   -0.53458E-03   688   0.857E-03-0.256E-05
CGA:   8    -0.489791170052E+03   -0.24592E-03   -0.24593E-03   688   0.339E-03-0.430E-06
CGA:   9    -0.489791272627E+03   -0.10258E-03   -0.10250E-03   688   0.100E-03 0.164E-05
CGA:  10    -0.489791304516E+03   -0.31889E-04   -0.31899E-04   688   0.302E-04-0.164E-06
 135 F= -.49406922E+03 E0= -.49405496E+03  d E =-.235137E-02  mag=     0.0034
       N       E                     dE             d eps       ncg     rms          ort
SDA:   1    -0.489726365086E+03    0.64908E-01    0.00000E+00   688   0.169E+00 0.000E+00
CGA:   2    -0.489775248166E+03   -0.48883E-01   -0.48880E-01   688   0.614E-01 0.836E-04
CGA:   3    -0.489788489651E+03   -0.13241E-01   -0.13238E-01   688   0.147E-01-0.196E-04
CGA:   4    -0.489791434681E+03   -0.29450E-02   -0.29451E-02   688   0.284E-02-0.496E-05
CGA:   5    -0.489792105397E+03   -0.67072E-03   -0.67076E-03   688   0.731E-03 0.177E-05
CGA:   6    -0.489792288331E+03   -0.18293E-03   -0.18296E-03   688   0.257E-03 0.254E-05
CGA:   7    -0.489792359875E+03   -0.71543E-04   -0.71569E-04   688   0.114E-03-0.129E-05
 136 F= -.49407021E+03 E0= -.49405592E+03  d E =-.985801E-03  mag=     0.0036
       N       E                     dE             d eps       ncg     rms          ort
SDA:   1    -0.489617952343E+03    0.17434E+00    0.00000E+00   688   0.448E+00 0.000E+00
CGA:   2    -0.489747610553E+03   -0.12966E+00   -0.12964E+00   688   0.162E+00 0.354E-03
CGA:   3    -0.489782653137E+03   -0.35043E-01   -0.35030E-01   688   0.391E-01-0.862E-04
CGA:   4    -0.489790452375E+03   -0.77992E-02   -0.78005E-02   688   0.761E-02-0.478E-05
CGA:   5    -0.489792282673E+03   -0.18303E-02   -0.18304E-02   688   0.198E-02 0.335E-05
CGA:   6    -0.489792788425E+03   -0.50575E-03   -0.50576E-03   688   0.696E-03 0.383E-05
CGA:   7    -0.489792984556E+03   -0.19613E-03   -0.19618E-03   688   0.313E-03-0.212E-05
CGA:   8    -0.489793073780E+03   -0.89224E-04   -0.89230E-04   688   0.125E-03-0.191E-06
 137 F= -.49407081E+03 E0= -.49405652E+03  d E =-.158813E-02  mag=     0.0038
       N       E                     dE             d eps       ncg     rms          ort
SDA:   1    -0.489716352852E+03    0.76632E-01    0.00000E+00   688   0.200E+00 0.000E+00
CGA:   2    -0.489774193929E+03   -0.57841E-01   -0.57840E-01   688   0.720E-01 0.415E-04
CGA:   3    -0.489789832952E+03   -0.15639E-01   -0.15636E-01   688   0.175E-01-0.216E-04
CGA:   4    -0.489793296712E+03   -0.34638E-02   -0.34640E-02   688   0.327E-02-0.417E-05
CGA:   5    -0.489794102507E+03   -0.80580E-03   -0.80583E-03   688   0.836E-03 0.316E-05
CGA:   6    -0.489794325650E+03   -0.22314E-03   -0.22311E-03   688   0.281E-03 0.316E-05
CGA:   7    -0.489794412349E+03   -0.86699E-04   -0.86809E-04   688   0.124E-03-0.218E-05
 138 F= -.49407193E+03 E0= -.49405765E+03  d E =-.112241E-02  mag=     0.0038
       N       E                     dE             d eps       ncg     rms          ort
SDA:   1    -0.489093252499E+03    0.70107E+00    0.00000E+00   688   0.180E+01 0.000E+00
CGA:   2    -0.489615193462E+03   -0.52194E+00   -0.52191E+00   688   0.640E+00 0.784E-03
CGA:   3    -0.489755468427E+03   -0.14027E+00   -0.14022E+00   688   0.156E+00-0.376E-03
CGA:   4    -0.489786166840E+03   -0.30698E-01   -0.30716E-01   688   0.299E-01 0.309E-04
CGA:   5    -0.489793465083E+03   -0.72982E-02   -0.72984E-02   688   0.752E-02 0.956E-05
CGA:   6    -0.489795432717E+03   -0.19676E-02   -0.19676E-02   688   0.259E-02 0.453E-05
CGA:   7    -0.489796180066E+03   -0.74735E-03   -0.74745E-03   688   0.115E-02-0.334E-05
CGA:   8    -0.489796507993E+03   -0.32793E-03   -0.32794E-03   688   0.470E-03-0.579E-06
CGA:   9    -0.489796645357E+03   -0.13736E-03   -0.13731E-03   688   0.137E-03 0.157E-05
CGA:  10    -0.489796689065E+03   -0.43707E-04   -0.43723E-04   688   0.387E-04-0.271E-06
 139 F= -.49407356E+03 E0= -.49405934E+03  d E =-.275352E-02  mag=     0.0035
       N       E                     dE             d eps       ncg     rms          ort
SDA:   1    -0.489717070419E+03    0.79575E-01    0.00000E+00   688   0.207E+00 0.000E+00
CGA:   2    -0.489777188537E+03   -0.60118E-01   -0.60118E-01   688   0.745E-01 0.207E-04
CGA:   3    -0.489793469368E+03   -0.16281E-01   -0.16278E-01   688   0.182E-01-0.174E-04
CGA:   4    -0.489797040729E+03   -0.35714E-02   -0.35717E-02   688   0.346E-02-0.486E-05
CGA:   5    -0.489797876803E+03   -0.83607E-03   -0.83614E-03   688   0.875E-03 0.333E-05
CGA:   6    -0.489798100469E+03   -0.22367E-03   -0.22368E-03   688   0.311E-03 0.266E-05
CGA:   7    -0.489798188640E+03   -0.88172E-04   -0.88201E-04   688   0.137E-03-0.137E-05
 140 F= -.49407479E+03 E0= -.49406057E+03  d E =-.122812E-02  mag=     0.0034
       N       E                     dE             d eps       ncg     rms          ort
SDA:   1    -0.489365375631E+03    0.43272E+00    0.00000E+00   688   0.111E+01 0.000E+00
CGA:   2    -0.489687699727E+03   -0.32232E+00   -0.32232E+00   688   0.396E+00 0.204E-03
CGA:   3    -0.489774573819E+03   -0.86874E-01   -0.86849E-01   688   0.971E-01-0.169E-03
CGA:   4    -0.489793586885E+03   -0.19013E-01   -0.19021E-01   688   0.185E-01 0.595E-05
CGA:   5    -0.489798134332E+03   -0.45474E-02   -0.45476E-02   688   0.468E-02 0.780E-05
CGA:   6    -0.489799363447E+03   -0.12291E-02   -0.12291E-02   688   0.164E-02 0.437E-05
CGA:   7    -0.489799838208E+03   -0.47476E-03   -0.47485E-03   688   0.723E-03-0.301E-05
CGA:   8    -0.489800047284E+03   -0.20908E-03   -0.20910E-03   688   0.295E-03-0.697E-06
CGA:   9    -0.489800133207E+03   -0.85923E-04   -0.85892E-04   688   0.860E-04 0.104E-05
 141 F= -.49407611E+03 E0= -.49406180E+03  d E =-.254350E-02  mag=     0.0031
       N       E                     dE             d eps       ncg     rms          ort
SDA:   1    -0.489683399805E+03    0.11665E+00    0.00000E+00   688   0.302E+00 0.000E+00
CGA:   2    -0.489770853896E+03   -0.87454E-01   -0.87446E-01   688   0.111E+00 0.203E-03
CGA:   3    -0.489794677019E+03   -0.23823E-01   -0.23815E-01   688   0.264E-01-0.424E-04
CGA:   4    -0.489800032772E+03   -0.53558E-02   -0.53562E-02   688   0.503E-02-0.700E-05
CGA:   5    -0.489801241332E+03   -0.12086E-02   -0.12086E-02   688   0.128E-02 0.235E-05
CGA:   6    -0.489801577837E+03   -0.33650E-03   -0.33650E-03   688   0.437E-03 0.266E-05
CGA:   7    -0.489801708872E+03   -0.13104E-03   -0.13111E-03   688   0.190E-03-0.195E-05
CGA:   8    -0.489801765123E+03   -0.56251E-04   -0.56255E-04   688   0.795E-04-0.120E-06
 142 F= -.49407730E+03 E0= -.49406296E+03  d E =-.119564E-02  mag=     0.0027
