       N       E                     dE             d eps       ncg     rms          rms(c)
DAV:   1     0.274375271625E+04    0.27438E+04   -0.11731E+05  3248   0.127E+03
DAV:   2    -0.171257729721E+03   -0.29150E+04   -0.27850E+04  4304   0.296E+02
DAV:   3    -0.684205506400E+03   -0.51295E+03   -0.50989E+03  3560   0.129E+02
DAV:   4    -0.703725871067E+03   -0.19520E+02   -0.19369E+02  3560   0.312E+01
DAV:   5    -0.704348647101E+03   -0.62278E+00   -0.62085E+00  4056   0.480E+00    0.465E+01
RMM:   6    -0.732208719211E+03   -0.27860E+02   -0.53381E+02  4106   0.394E+01    0.840E+01
RMM:   7    -0.662326094122E+03    0.69883E+02   -0.55787E+01  3035   0.138E+01    0.320E+01
RMM:   8    -0.662364364697E+03   -0.38271E-01   -0.21680E+01  3129   0.706E+00    0.283E+01
RMM:   9    -0.647169650387E+03    0.15195E+02   -0.19853E+01  2971   0.840E+00    0.115E+01
RMM:  10    -0.647596678490E+03   -0.42703E+00   -0.30162E+00  2995   0.307E+00    0.144E+01
RMM:  11    -0.646580589130E+03    0.10161E+01   -0.40823E-01  3114   0.103E+00    0.768E+00
RMM:  12    -0.646426754725E+03    0.15383E+00   -0.15872E-01  2944   0.924E-01    0.610E+00
RMM:  13    -0.646528630907E+03   -0.10188E+00   -0.27380E-02  2987   0.312E-01    0.720E+00
RMM:  14    -0.646377799282E+03    0.15083E+00   -0.27060E-02  2981   0.372E-01    0.731E+00
RMM:  15    -0.646377502533E+03    0.29675E-03   -0.38861E-03  3282   0.827E-02    0.648E+00
RMM:  16    -0.646418971913E+03   -0.41469E-01   -0.16011E-02  2947   0.240E-01    0.665E+00
RMM:  17    -0.646446191913E+03   -0.27220E-01   -0.69948E-02  2963   0.405E-01    0.428E+00
RMM:  18    -0.646519937326E+03   -0.73745E-01   -0.67058E-02  2967   0.352E-01    0.358E+00
RMM:  19    -0.646503130607E+03    0.16807E-01   -0.19734E-02  3217   0.149E-01    0.301E+00
RMM:  20    -0.646507810870E+03   -0.46803E-02   -0.26800E-03  3164   0.671E-02    0.301E+00
RMM:  21    -0.646495251293E+03    0.12560E-01   -0.87340E-03  2970   0.139E-01    0.268E+00
RMM:  22    -0.646439920174E+03    0.55331E-01   -0.28040E-02  2974   0.250E-01    0.261E+00
RMM:  23    -0.646422471222E+03    0.17449E-01   -0.69220E-03  3110   0.124E-01    0.274E+00
RMM:  24    -0.646445593976E+03   -0.23123E-01   -0.68931E-03  2975   0.156E-01    0.277E+00
RMM:  25    -0.646439751359E+03    0.58426E-02   -0.85253E-04  2867   0.397E-02    0.277E+00
RMM:  26    -0.646383188851E+03    0.56563E-01   -0.19566E-02  2976   0.231E-01    0.258E+00
RMM:  27    -0.646402400464E+03   -0.19212E-01   -0.60296E-02  3025   0.327E-01    0.271E+00
RMM:  28    -0.646429797135E+03   -0.27397E-01   -0.13010E-02  3035   0.276E-01    0.383E+00
RMM:  29    -0.646424033846E+03    0.57633E-02   -0.33577E-03  3025   0.120E-01    0.419E+00
RMM:  30    -0.646433087953E+03   -0.90541E-02   -0.17221E-03  3006   0.543E-02    0.454E+00
RMM:  31    -0.646428829210E+03    0.42587E-02   -0.79588E-04  2856   0.365E-02    0.453E+00
RMM:  32    -0.646444375738E+03   -0.15547E-01   -0.63650E-04  2680   0.349E-02    0.493E+00
RMM:  33    -0.646441824868E+03    0.25509E-02   -0.24530E-04  2204   0.272E-02    0.502E+00
RMM:  34    -0.646475992524E+03   -0.34168E-01   -0.53581E-03  2979   0.112E-01    0.537E+00
RMM:  35    -0.646512883391E+03   -0.36891E-01   -0.14244E-02  3000   0.165E-01    0.533E+00
RMM:  36    -0.646531878245E+03   -0.18995E-01   -0.67777E-03  3098   0.109E-01    0.540E+00
RMM:  37    -0.646553611178E+03   -0.21733E-01   -0.11609E-03  2870   0.506E-02    0.558E+00
RMM:  38    -0.646580536700E+03   -0.26926E-01   -0.54835E-03  2947   0.101E-01    0.563E+00
RMM:  39    -0.646645210850E+03   -0.64674E-01   -0.10996E-02  2961   0.123E-01    0.543E+00
RMM:  40    -0.646625955669E+03    0.19255E-01   -0.60910E-03  3107   0.838E-02    0.551E+00
RMM:  41    -0.646608323421E+03    0.17632E-01   -0.32272E-03  3080   0.591E-02    0.557E+00
RMM:  42    -0.646621225159E+03   -0.12902E-01   -0.67887E-04  2721   0.325E-02    0.552E+00
RMM:  43    -0.646634953355E+03   -0.13728E-01   -0.41153E-04  2483   0.237E-02    0.546E+00
RMM:  44    -0.646596873200E+03    0.38080E-01   -0.13434E-03  2912   0.537E-02    0.552E+00
RMM:  45    -0.646569740553E+03    0.27133E-01   -0.20042E-03  2884   0.612E-02    0.543E+00
RMM:  46    -0.646520897280E+03    0.48843E-01   -0.77681E-03  2972   0.109E-01    0.522E+00
RMM:  47    -0.646438088886E+03    0.82808E-01   -0.14633E-02  3011   0.153E-01    0.417E+00
RMM:  48    -0.646444127182E+03   -0.60383E-02   -0.37789E-03  3073   0.887E-02    0.335E+00
RMM:  49    -0.646450933468E+03   -0.68063E-02   -0.11379E-03  2607   0.576E-02    0.298E+00
RMM:  50    -0.646451498787E+03   -0.56532E-03   -0.32688E-04  2152   0.321E-02
   1 F= -.65284791E+03 E0= -.65282215E+03  d E =-.652848E+03  mag=    -0.1205
       N       E                     dE             d eps       ncg     rms          rms(c)
DAV:   1    -0.646481276567E+03   -0.30343E-01   -0.12330E+01  3168   0.979E+00    0.375E+00
RMM:   2    -0.649203637026E+03   -0.27224E+01   -0.34737E+00  3012   0.309E+00    0.191E+01
RMM:   3    -0.646558831022E+03    0.26448E+01   -0.14664E+00  3118   0.178E+00    0.410E+00
RMM:   4    -0.646573980065E+03   -0.15149E-01   -0.85411E-02  3535   0.485E-01    0.526E+00
RMM:   5    -0.646612422724E+03   -0.38443E-01   -0.20706E-02  3079   0.252E-01    0.550E+00
RMM:   6    -0.646682909955E+03   -0.70487E-01   -0.33178E-02  3006   0.270E-01    0.526E+00
RMM:   7    -0.646734232849E+03   -0.51323E-01   -0.21949E-02  3038   0.183E-01    0.521E+00
RMM:   8    -0.646784136557E+03   -0.49904E-01   -0.13499E-02  3166   0.133E-01    0.505E+00
RMM:   9    -0.646830584151E+03   -0.46448E-01   -0.66926E-03  3112   0.102E-01    0.481E+00
RMM:  10    -0.646882428556E+03   -0.51844E-01   -0.83247E-03  3059   0.124E-01    0.442E+00
RMM:  11    -0.646913540954E+03   -0.31112E-01   -0.80079E-03  3102   0.117E-01    0.400E+00
RMM:  12    -0.646920367839E+03   -0.68269E-02   -0.32320E-03  3239   0.653E-02    0.381E+00
RMM:  13    -0.646917401459E+03    0.29664E-02   -0.28752E-04  2402   0.235E-02    0.385E+00
RMM:  14    -0.646936997697E+03   -0.19596E-01   -0.63361E-03  3036   0.114E-01    0.334E+00
RMM:  15    -0.646949726820E+03   -0.12729E-01   -0.95818E-03  3084   0.122E-01    0.282E+00
RMM:  16    -0.646948757555E+03    0.96926E-03   -0.25835E-03  3169   0.546E-02    0.269E+00
RMM:  17    -0.646948783840E+03   -0.26285E-04   -0.70047E-04  2736   0.254E-02    0.262E+00
RMM:  18    -0.646951350569E+03   -0.25667E-02   -0.48195E-04  2734   0.283E-02    0.253E+00
RMM:  19    -0.646961777657E+03   -0.10427E-01   -0.20920E-02  3021   0.212E-01    0.158E+00
RMM:  20    -0.646956558908E+03    0.52187E-02   -0.77482E-03  3165   0.108E-01    0.136E+00
RMM:  21    -0.646957260310E+03   -0.70140E-03   -0.55957E-03  3144   0.931E-02    0.983E-01
RMM:  22    -0.646957046156E+03    0.21415E-03   -0.19663E-03  3185   0.429E-02    0.901E-01
RMM:  23    -0.646956602412E+03    0.44374E-03   -0.26300E-04  2486   0.231E-02    0.844E-01
RMM:  24    -0.646955803179E+03    0.79923E-03   -0.12076E-03  3043   0.501E-02    0.636E-01
RMM:  25    -0.646956191049E+03   -0.38787E-03   -0.16836E-03  3060   0.579E-02    0.535E-01
RMM:  26    -0.646957106555E+03   -0.91551E-03   -0.43462E-03  3062   0.934E-02    0.247E-01
RMM:  27    -0.646959287211E+03   -0.21807E-02   -0.82656E-04  3009   0.443E-02    0.341E-01
RMM:  28    -0.646959836033E+03   -0.54882E-03   -0.28824E-04  2591   0.196E-02    0.289E-01
RMM:  29    -0.646960066509E+03   -0.23048E-03   -0.11406E-04  2175   0.137E-02    0.240E-01
RMM:  30    -0.646960337349E+03   -0.27084E-03   -0.26053E-05  2047   0.821E-03    0.198E-01
RMM:  31    -0.646960316846E+03    0.20503E-04   -0.19169E-05  1881   0.685E-03    0.182E-01
RMM:  32    -0.646960330658E+03   -0.13812E-04   -0.17412E-05  1871   0.584E-03    0.169E-01
RMM:  33    -0.646960319082E+03    0.11576E-04   -0.44640E-06  1578   0.385E-03    0.142E-01
RMM:  34    -0.646960318937E+03    0.14533E-06   -0.43549E-06  1721   0.380E-03
   2 F= -.65336838E+03 E0= -.65334976E+03  d E =-.520472E+00  mag=    -1.6741
       N       E                     dE             d eps       ncg     rms          rms(c)
DAV:   1    -0.646972677449E+03   -0.12358E-01   -0.45294E-02  3328   0.595E-01    0.116E-01
RMM:   2    -0.646972786217E+03   -0.10877E-03   -0.16947E-03  3005   0.976E-02    0.126E-01
RMM:   3    -0.646972622519E+03    0.16370E-03   -0.49328E-04  2899   0.399E-02    0.856E-02
RMM:   4    -0.646972467230E+03    0.15529E-03   -0.94452E-05  2425   0.201E-02    0.282E-02
RMM:   5    -0.646972433226E+03    0.34003E-04   -0.33869E-05  1917   0.125E-02    0.919E-03
RMM:   6    -0.646972520474E+03   -0.87247E-04   -0.45966E-06  1763   0.564E-03    0.384E-03
RMM:   7    -0.646972601372E+03   -0.80898E-04   -0.35159E-06  1750   0.334E-03    0.198E-03
RMM:   8    -0.646972633835E+03   -0.32463E-04   -0.91106E-07  1018   0.193E-03    0.148E-03
RMM:   9    -0.646972666111E+03   -0.32275E-04   -0.10914E-06   947   0.180E-03    0.786E-04
RMM:  10    -0.646972681770E+03   -0.15660E-04   -0.57566E-07   744   0.165E-03    0.471E-04
RMM:  11    -0.646972686676E+03   -0.49062E-05   -0.44530E-07   735   0.158E-03
   3 F= -.65338016E+03 E0= -.65336164E+03  d E =-.532248E+00  mag=    -1.6906
       N       E                     dE             d eps       ncg     rms          rms(c)
DAV:   1    -0.647027164130E+03   -0.54482E-01   -0.24253E+00  3144   0.435E+00    0.769E-01
RMM:   2    -0.647036923637E+03   -0.97595E-02   -0.97297E-02  3004   0.724E-01    0.101E+00
RMM:   3    -0.647026398439E+03    0.10525E-01   -0.24220E-02  3090   0.287E-01    0.481E-01
RMM:   4    -0.647020944395E+03    0.54540E-02   -0.53109E-03  3026   0.147E-01    0.147E-01
RMM:   5    -0.647020940152E+03    0.42436E-05   -0.88014E-04  2961   0.642E-02    0.519E-02
RMM:   6    -0.647022857153E+03   -0.19170E-02   -0.15412E-04  3002   0.230E-02    0.279E-02
RMM:   7    -0.647024298098E+03   -0.14409E-02   -0.68476E-05  2107   0.123E-02    0.156E-02
RMM:   8    -0.647025346373E+03   -0.10483E-02   -0.45058E-05  2005   0.880E-03    0.790E-03
RMM:   9    -0.647025869067E+03   -0.52269E-03   -0.25497E-05  1931   0.557E-03    0.434E-03
RMM:  10    -0.647026120927E+03   -0.25186E-03   -0.15615E-05  1549   0.418E-03    0.220E-03
RMM:  11    -0.647026189414E+03   -0.68487E-04   -0.54623E-06  1386   0.298E-03    0.126E-03
RMM:  12    -0.647026211796E+03   -0.22382E-04   -0.36151E-06  1222   0.250E-03    0.946E-04
RMM:  13    -0.647026223949E+03   -0.12153E-04   -0.10815E-06   999   0.181E-03    0.597E-04
RMM:  14    -0.647026239043E+03   -0.15094E-04   -0.96258E-07   931   0.170E-03    0.452E-04
RMM:  15    -0.647026244768E+03   -0.57251E-05   -0.34002E-07   659   0.151E-03
   4 F= -.65342891E+03 E0= -.65341182E+03  d E =-.580999E+00  mag=    -1.8094
       N       E                     dE             d eps       ncg     rms          rms(c)
DAV:   1    -0.647029391613E+03   -0.31526E-02   -0.10768E-01  3288   0.916E-01    0.163E-01
RMM:   2    -0.647029754686E+03   -0.36307E-03   -0.44180E-03  3004   0.153E-01    0.216E-01
RMM:   3    -0.647029261481E+03    0.49321E-03   -0.10622E-03  3070   0.601E-02    0.102E-01
RMM:   4    -0.647028959719E+03    0.30176E-03   -0.23347E-04  2944   0.308E-02    0.306E-02
RMM:   5    -0.647028952325E+03    0.73939E-05   -0.37186E-05  1952   0.137E-02
   5 F= -.65343050E+03 E0= -.65341381E+03  d E =-.582591E+00  mag=    -1.8249
       N       E                     dE             d eps       ncg     rms          rms(c)
DAV:   1    -0.647038066158E+03   -0.91064E-02   -0.19266E+00  3264   0.419E+00    0.374E-01
RMM:   2    -0.647043917024E+03   -0.58509E-02   -0.66012E-02  3006   0.635E-01    0.336E-01
RMM:   3    -0.647043037552E+03    0.87947E-03   -0.56346E-03  3288   0.158E-01    0.283E-01
RMM:   4    -0.647042282963E+03    0.75459E-03   -0.15237E-03  3093   0.808E-02    0.113E-01
RMM:   5    -0.647042162367E+03    0.12060E-03   -0.57958E-04  3036   0.484E-02    0.425E-02
RMM:   6    -0.647042183167E+03   -0.20800E-04   -0.41312E-05  2086   0.168E-02    0.207E-02
RMM:   7    -0.647042220007E+03   -0.36840E-04   -0.20339E-05  1860   0.942E-03    0.875E-03
RMM:   8    -0.647042241781E+03   -0.21773E-04   -0.44717E-06  1774   0.536E-03    0.521E-03
RMM:   9    -0.647042258595E+03   -0.16815E-04   -0.26205E-06  1761   0.353E-03    0.181E-03
RMM:  10    -0.647042265862E+03   -0.72663E-05   -0.77772E-07  1179   0.212E-03
   6 F= -.65344307E+03 E0= -.65342651E+03  d E =-.125716E-01  mag=    -1.8296
       N       E                     dE             d eps       ncg     rms          rms(c)
DAV:   1    -0.647042392091E+03   -0.13350E-03   -0.31553E-02  3376   0.537E-01    0.478E-02
RMM:   2    -0.647042488877E+03   -0.96786E-04   -0.10926E-03  2999   0.817E-02    0.436E-02
RMM:   3    -0.647042478705E+03    0.10172E-04   -0.88218E-05  2258   0.203E-02    0.362E-02
RMM:   4    -0.647042469250E+03    0.94551E-05   -0.24421E-05  1862   0.119E-02
   7 F= -.65344339E+03 E0= -.65342681E+03  d E =-.128894E-01  mag=    -1.8295
       N       E                     dE             d eps       ncg     rms          rms(c)
DAV:   1    -0.647046586488E+03   -0.41078E-02   -0.67917E-01  3304   0.249E+00    0.295E-01
RMM:   2    -0.647049949875E+03   -0.33634E-02   -0.28712E-02  3053   0.383E-01    0.471E-01
RMM:   3    -0.647047654279E+03    0.22956E-02   -0.44649E-03  3210   0.127E-01    0.159E-01
RMM:   4    -0.647047366958E+03    0.28732E-03   -0.63057E-04  3145   0.493E-02    0.848E-02
RMM:   5    -0.647047279238E+03    0.87720E-04   -0.22697E-04  2945   0.321E-02    0.291E-02
RMM:   6    -0.647047324437E+03   -0.45199E-04   -0.19683E-05  1870   0.107E-02    0.109E-02
RMM:   7    -0.647047367507E+03   -0.43070E-04   -0.60322E-06  1775   0.578E-03    0.514E-03
RMM:   8    -0.647047394711E+03   -0.27204E-04   -0.21048E-06  1742   0.357E-03    0.316E-03
RMM:   9    -0.647047420733E+03   -0.26022E-04   -0.11001E-06  1286   0.234E-03    0.126E-03
RMM:  10    -0.647047430342E+03   -0.96084E-05   -0.37835E-07   874   0.179E-03
   8 F= -.65344707E+03 E0= -.65343025E+03  d E =-.368002E-02  mag=    -1.8173
       N       E                     dE             d eps       ncg     rms          rms(c)
DAV:   1    -0.647047357495E+03    0.63238E-04   -0.23610E-02  3424   0.466E-01    0.552E-02
RMM:   2    -0.647047475064E+03   -0.11757E-03   -0.10009E-03  3054   0.713E-02    0.878E-02
RMM:   3    -0.647047398859E+03    0.76205E-04   -0.15003E-04  2278   0.236E-02    0.304E-02
RMM:   4    -0.647047391045E+03    0.78141E-05   -0.21419E-05  1851   0.109E-02
   9 F= -.65344728E+03 E0= -.65343051E+03  d E =-.388871E-02  mag=    -1.8186
       N       E                     dE             d eps       ncg     rms          rms(c)
DAV:   1    -0.647048234876E+03   -0.83602E-03   -0.27713E-01  3224   0.157E+00    0.135E-01
RMM:   2    -0.647048978174E+03   -0.74330E-03   -0.82856E-03  2977   0.217E-01    0.137E-01
RMM:   3    -0.647048826809E+03    0.15136E-03   -0.83796E-04  3353   0.577E-02    0.962E-02
RMM:   4    -0.647048731438E+03    0.95371E-04   -0.17021E-04  2932   0.260E-02    0.387E-02
RMM:   5    -0.647048718275E+03    0.13163E-04   -0.65537E-05  2562   0.167E-02    0.140E-02
RMM:   6    -0.647048728613E+03   -0.10338E-04   -0.53368E-06  1764   0.687E-03    0.647E-03
RMM:   7    -0.647048736968E+03   -0.83550E-05   -0.21058E-06  1725   0.374E-03
  10 F= -.65344896E+03 E0= -.65343221E+03  d E =-.168727E-02  mag=    -1.8217
       N       E                     dE             d eps       ncg     rms          rms(c)
DAV:   1    -0.647048755916E+03   -0.27303E-04   -0.43352E-04  3392   0.623E-02    0.563E-03
RMM:   2    -0.647048758541E+03   -0.26247E-05   -0.10906E-05  1726   0.855E-03
  11 F= -.65344897E+03 E0= -.65343222E+03  d E =-.169596E-02  mag=    -1.8217
       N       E                     dE             d eps       ncg     rms          rms(c)
DAV:   1    -0.647049038990E+03   -0.28307E-03   -0.12776E-01  3224   0.106E+00    0.100E-01
RMM:   2    -0.647049442094E+03   -0.40310E-03   -0.42230E-03  2995   0.150E-01    0.125E-01
RMM:   3    -0.647049280790E+03    0.16130E-03   -0.49330E-04  3235   0.438E-02    0.647E-02
RMM:   4    -0.647049236599E+03    0.44192E-04   -0.77249E-05  2669   0.186E-02    0.283E-02
RMM:   5    -0.647049231647E+03    0.49518E-05   -0.32844E-05  1935   0.128E-02
  12 F= -.65344966E+03 E0= -.65343297E+03  d E =-.690377E-03  mag=    -1.8208
