  71  71   0   0
  0.4011563E+02  0.1487831E-08  0.1477209E-08  0.1500000E-08  0.3000000E-15
  1.000000000000000E-004
  CAR 
 unknown system                          
      5.29552527    -48.59058486  301     -2.04476360      1.00000000
    -48.591  0.0000E+00  0.0000E+00  0.0000E+00  0.0000E+00
    -48.411  0.0000E+00  0.0000E+00  0.0000E+00  0.0000E+00
    -48.231  0.0000E+00  0.0000E+00  0.0000E+00  0.0000E+00
    -48.052  0.0000E+00  0.0000E+00  0.0000E+00  0.0000E+00
    -47.872  0.0000E+00  0.0000E+00  0.0000E+00  0.0000E+00
    -47.692  0.0000E+00  0.0000E+00  0.0000E+00  0.0000E+00
    -47.513  0.0000E+00  0.0000E+00  0.0000E+00  0.0000E+00
    -47.333  0.0000E+00  0.0000E+00  0.0000E+00  0.0000E+00
    -47.154  0.0000E+00  0.0000E+00  0.0000E+00  0.0000E+00
    -46.974  0.0000E+00  0.0000E+00  0.0000E+00  0.0000E+00
    -46.794  0.0000E+00  0.0000E+00  0.0000E+00  0.0000E+00
    -46.615  0.1481E-12  0.0000E+00  0.2661E-13  0.0000E+00
    -46.435  0.2247E-06  0.0000E+00  0.4036E-07  0.0000E+00
    -46.256  0.7373E-03  0.0000E+00  0.1325E-03  0.0000E+00
    -46.076  0.1077E-01  0.0000E+00  0.2067E-02  0.0000E+00
    -45.896  0.1065E-01  0.0000E+00  0.3980E-02  0.0000E+00
    -45.717  0.1826E-01  0.0000E+00  0.7259E-02  0.0000E+00
    -45.537  0.1340E-02  0.0000E+00  0.7500E-02  0.0000E+00
    -45.357  0.7231E-06  0.0000E+00  0.7500E-02  0.0000E+00
    -45.178  0.9320E-12  0.0000E+00  0.7500E-02  0.0000E+00
    -44.998  0.0000E+00  0.0000E+00  0.7500E-02  0.0000E+00
    -44.819  0.0000E+00  0.0000E+00  0.7500E-02  0.0000E+00
    -44.639  0.0000E+00  0.0000E+00  0.7500E-02  0.0000E+00
    -44.459  0.0000E+00  0.1129E-13  0.7500E-02  0.2028E-14
    -44.280  0.0000E+00  0.4235E-07  0.7500E-02  0.7607E-08
    -44.100  0.0000E+00  0.3295E-03  0.7500E-02  0.5919E-04
    -43.920  0.0000E+00  0.9629E-02  0.7500E-02  0.1789E-02
    -43.741  0.0000E+00  0.1064E-01  0.7500E-02  0.3699E-02
    -43.561  0.0000E+00  0.1649E-01  0.7500E-02  0.6661E-02
    -43.382  0.0000E+00  0.4649E-02  0.7500E-02  0.7496E-02
    -43.202  0.0000E+00  0.1974E-04  0.7500E-02  0.7500E-02
    -43.022  0.0000E+00  0.2290E-09  0.7500E-02  0.7500E-02
    -42.843  0.0000E+00  0.6181E-17  0.7500E-02  0.7500E-02
    -42.663  0.0000E+00  0.0000E+00  0.7500E-02  0.7500E-02
    -42.483  0.0000E+00  0.0000E+00  0.7500E-02  0.7500E-02
    -42.304  0.0000E+00  0.0000E+00  0.7500E-02  0.7500E-02
    -42.124  0.0000E+00  0.0000E+00  0.7500E-02  0.7500E-02
    -41.945  0.0000E+00  0.0000E+00  0.7500E-02  0.7500E-02
    -41.765  0.0000E+00  0.0000E+00  0.7500E-02  0.7500E-02
    -41.585  0.0000E+00  0.0000E+00  0.7500E-02  0.7500E-02
    -41.406  0.0000E+00  0.0000E+00  0.7500E-02  0.7500E-02
    -41.226  0.0000E+00  0.0000E+00  0.7500E-02  0.7500E-02
    -41.047  0.0000E+00  0.0000E+00  0.7500E-02  0.7500E-02
    -40.867  0.0000E+00  0.0000E+00  0.7500E-02  0.7500E-02
    -40.687  0.0000E+00  0.0000E+00  0.7500E-02  0.7500E-02
    -40.508  0.0000E+00  0.0000E+00  0.7500E-02  0.7500E-02
    -40.328  0.0000E+00  0.0000E+00  0.7500E-02  0.7500E-02
    -40.148  0.0000E+00  0.0000E+00  0.7500E-02  0.7500E-02
    -39.969  0.0000E+00  0.0000E+00  0.7500E-02  0.7500E-02
    -39.789  0.0000E+00  0.0000E+00  0.7500E-02  0.7500E-02
    -39.610  0.0000E+00  0.0000E+00  0.7500E-02  0.7500E-02
    -39.430  0.0000E+00  0.0000E+00  0.7500E-02  0.7500E-02
    -39.250  0.0000E+00  0.0000E+00  0.7500E-02  0.7500E-02
    -39.071  0.0000E+00  0.0000E+00  0.7500E-02  0.7500E-02
    -38.891  0.0000E+00  0.0000E+00  0.7500E-02  0.7500E-02
    -38.711  0.0000E+00  0.0000E+00  0.7500E-02  0.7500E-02
    -38.532  0.0000E+00  0.0000E+00  0.7500E-02  0.7500E-02
    -38.352  0.0000E+00  0.0000E+00  0.7500E-02  0.7500E-02
    -38.173  0.0000E+00  0.0000E+00  0.7500E-02  0.7500E-02
    -37.993  0.0000E+00  0.0000E+00  0.7500E-02  0.7500E-02
    -37.813  0.0000E+00  0.0000E+00  0.7500E-02  0.7500E-02
    -37.634  0.0000E+00  0.0000E+00  0.7500E-02  0.7500E-02
    -37.454  0.0000E+00  0.0000E+00  0.7500E-02  0.7500E-02
    -37.275  0.0000E+00  0.0000E+00  0.7500E-02  0.7500E-02
    -37.095  0.0000E+00  0.0000E+00  0.7500E-02  0.7500E-02
    -36.915  0.0000E+00  0.0000E+00  0.7500E-02  0.7500E-02
    -36.736  0.0000E+00  0.0000E+00  0.7500E-02  0.7500E-02
    -36.556  0.0000E+00  0.0000E+00  0.7500E-02  0.7500E-02
    -36.376  0.0000E+00  0.0000E+00  0.7500E-02  0.7500E-02
    -36.197  0.0000E+00  0.0000E+00  0.7500E-02  0.7500E-02
    -36.017  0.0000E+00  0.0000E+00  0.7500E-02  0.7500E-02
    -35.838  0.0000E+00  0.0000E+00  0.7500E-02  0.7500E-02
    -35.658  0.0000E+00  0.0000E+00  0.7500E-02  0.7500E-02
    -35.478  0.0000E+00  0.0000E+00  0.7500E-02  0.7500E-02
    -35.299  0.0000E+00  0.0000E+00  0.7500E-02  0.7500E-02
    -35.119  0.0000E+00  0.0000E+00  0.7500E-02  0.7500E-02
    -34.939  0.0000E+00  0.0000E+00  0.7500E-02  0.7500E-02
    -34.760  0.0000E+00  0.0000E+00  0.7500E-02  0.7500E-02
    -34.580  0.0000E+00  0.0000E+00  0.7500E-02  0.7500E-02
    -34.401  0.0000E+00  0.0000E+00  0.7500E-02  0.7500E-02
    -34.221  0.0000E+00  0.0000E+00  0.7500E-02  0.7500E-02
    -34.041  0.0000E+00  0.0000E+00  0.7500E-02  0.7500E-02
    -33.862  0.0000E+00  0.0000E+00  0.7500E-02  0.7500E-02
    -33.682  0.0000E+00  0.0000E+00  0.7500E-02  0.7500E-02
    -33.502  0.0000E+00  0.0000E+00  0.7500E-02  0.7500E-02
    -33.323  0.0000E+00  0.0000E+00  0.7500E-02  0.7500E-02
    -33.143  0.0000E+00  0.0000E+00  0.7500E-02  0.7500E-02
    -32.964  0.0000E+00  0.0000E+00  0.7500E-02  0.7500E-02
    -32.784  0.0000E+00  0.0000E+00  0.7500E-02  0.7500E-02
    -32.604  0.0000E+00  0.0000E+00  0.7500E-02  0.7500E-02
    -32.425  0.0000E+00  0.0000E+00  0.7500E-02  0.7500E-02
    -32.245  0.0000E+00  0.0000E+00  0.7500E-02  0.7500E-02
    -32.066  0.0000E+00  0.0000E+00  0.7500E-02  0.7500E-02
    -31.886  0.0000E+00  0.0000E+00  0.7500E-02  0.7500E-02
    -31.706  0.0000E+00  0.0000E+00  0.7500E-02  0.7500E-02
    -31.527  0.0000E+00  0.0000E+00  0.7500E-02  0.7500E-02
    -31.347  0.0000E+00  0.0000E+00  0.7500E-02  0.7500E-02
    -31.167  0.0000E+00  0.0000E+00  0.7500E-02  0.7500E-02
    -30.988  0.0000E+00  0.0000E+00  0.7500E-02  0.7500E-02
    -30.808  0.0000E+00  0.0000E+00  0.7500E-02  0.7500E-02
    -30.629  0.0000E+00  0.0000E+00  0.7500E-02  0.7500E-02
    -30.449  0.0000E+00  0.0000E+00  0.7500E-02  0.7500E-02
    -30.269  0.0000E+00  0.0000E+00  0.7500E-02  0.7500E-02
    -30.090  0.0000E+00  0.0000E+00  0.7500E-02  0.7500E-02
    -29.910  0.0000E+00  0.0000E+00  0.7500E-02  0.7500E-02
    -29.730  0.0000E+00  0.0000E+00  0.7500E-02  0.7500E-02
    -29.551  0.0000E+00  0.0000E+00  0.7500E-02  0.7500E-02
    -29.371  0.0000E+00  0.0000E+00  0.7500E-02  0.7500E-02
    -29.192  0.0000E+00  0.0000E+00  0.7500E-02  0.7500E-02
    -29.012  0.0000E+00  0.0000E+00  0.7500E-02  0.7500E-02
    -28.832  0.0000E+00  0.0000E+00  0.7500E-02  0.7500E-02
    -28.653  0.0000E+00  0.0000E+00  0.7500E-02  0.7500E-02
    -28.473  0.0000E+00  0.0000E+00  0.7500E-02  0.7500E-02
    -28.293  0.0000E+00  0.0000E+00  0.7500E-02  0.7500E-02
    -28.114  0.0000E+00  0.0000E+00  0.7500E-02  0.7500E-02
    -27.934  0.0000E+00  0.0000E+00  0.7500E-02  0.7500E-02
    -27.755  0.0000E+00  0.0000E+00  0.7500E-02  0.7500E-02
    -27.575  0.0000E+00  0.0000E+00  0.7500E-02  0.7500E-02
    -27.395  0.0000E+00  0.0000E+00  0.7500E-02  0.7500E-02
    -27.216  0.0000E+00  0.0000E+00  0.7500E-02  0.7500E-02
    -27.036  0.0000E+00  0.0000E+00  0.7500E-02  0.7500E-02
    -26.857  0.0000E+00  0.0000E+00  0.7500E-02  0.7500E-02
    -26.677  0.0000E+00  0.0000E+00  0.7500E-02  0.7500E-02
    -26.497  0.0000E+00  0.0000E+00  0.7500E-02  0.7500E-02
    -26.318  0.0000E+00  0.0000E+00  0.7500E-02  0.7500E-02
    -26.138  0.0000E+00  0.0000E+00  0.7500E-02  0.7500E-02
    -25.958  0.0000E+00  0.0000E+00  0.7500E-02  0.7500E-02
    -25.779  0.0000E+00  0.0000E+00  0.7500E-02  0.7500E-02
    -25.599  0.0000E+00  0.0000E+00  0.7500E-02  0.7500E-02
    -25.420  0.0000E+00  0.0000E+00  0.7500E-02  0.7500E-02
    -25.240  0.0000E+00  0.0000E+00  0.7500E-02  0.7500E-02
    -25.060  0.0000E+00  0.0000E+00  0.7500E-02  0.7500E-02
    -24.881  0.0000E+00  0.0000E+00  0.7500E-02  0.7500E-02
    -24.701  0.2318E-17  0.3090E-17  0.7500E-02  0.7500E-02
    -24.521  0.1290E-09  0.1528E-09  0.7500E-02  0.7500E-02
    -24.342  0.1417E-04  0.1563E-04  0.7503E-02  0.7503E-02
    -24.162  0.4064E-02  0.4204E-02  0.8232E-02  0.8258E-02
    -23.983  0.9520E-02  0.9401E-02  0.9943E-02  0.9946E-02
    -23.803  0.3200E-03  0.2984E-03  0.1000E-01  0.1000E-01
    -23.623  0.3994E-07  0.3475E-07  0.1000E-01  0.1000E-01
    -23.444  0.1033E-13  0.8359E-14  0.1000E-01  0.1000E-01
    -23.264  0.0000E+00  0.0000E+00  0.1000E-01  0.1000E-01
    -23.084  0.0000E+00  0.0000E+00  0.1000E-01  0.1000E-01
    -22.905  0.0000E+00  0.0000E+00  0.1000E-01  0.1000E-01
    -22.725  0.0000E+00  0.0000E+00  0.1000E-01  0.1000E-01
    -22.546  0.0000E+00  0.0000E+00  0.1000E-01  0.1000E-01
    -22.366  0.0000E+00  0.0000E+00  0.1000E-01  0.1000E-01
    -22.186  0.0000E+00  0.0000E+00  0.1000E-01  0.1000E-01
    -22.007  0.3749E-14  0.4145E-14  0.1000E-01  0.1000E-01
    -21.827  0.1648E-07  0.1766E-07  0.1000E-01  0.1000E-01
    -21.648  0.1656E-03  0.1719E-03  0.1003E-01  0.1003E-01
    -21.468  0.7778E-02  0.7858E-02  0.1143E-01  0.1144E-01
    -21.288  0.1212E-01  0.1214E-01  0.1360E-01  0.1362E-01
    -21.109  0.1603E-01  0.1612E-01  0.1648E-01  0.1652E-01
    -20.929  0.1211E-01  0.1210E-01  0.1866E-01  0.1869E-01
    -20.749  0.9918E-02  0.9884E-02  0.2044E-01  0.2047E-01
    -20.570  0.1446E-01  0.1471E-01  0.2304E-01  0.2311E-01
    -20.390  0.1862E-01  0.1843E-01  0.2638E-01  0.2642E-01
    -20.211  0.8271E-02  0.8384E-02  0.2787E-01  0.2793E-01
    -20.031  0.1111E-01  0.1108E-01  0.2986E-01  0.2992E-01
    -19.851  0.1377E-01  0.1392E-01  0.3234E-01  0.3242E-01
    -19.672  0.2096E-01  0.2091E-01  0.3610E-01  0.3617E-01
    -19.492  0.1110E-01  0.1092E-01  0.3810E-01  0.3813E-01
    -19.312  0.8885E-02  0.9125E-02  0.3969E-01  0.3977E-01
    -19.133  0.1528E-01  0.1558E-01  0.4244E-01  0.4257E-01
    -18.953  0.1578E-01  0.1551E-01  0.4527E-01  0.4536E-01
    -18.774  0.1164E-01  0.1170E-01  0.4736E-01  0.4746E-01
    -18.594  0.1939E-01  0.1918E-01  0.5084E-01  0.5090E-01
    -18.414  0.9609E-02  0.9435E-02  0.5257E-01  0.5260E-01
    -18.235  0.1393E-01  0.1489E-01  0.5507E-01  0.5527E-01
    -18.055  0.2030E-01  0.1978E-01  0.5872E-01  0.5883E-01
    -17.876  0.1158E-01  0.1123E-01  0.6080E-01  0.6084E-01
    -17.696  0.4770E-02  0.4772E-02  0.6165E-01  0.6170E-01
    -17.516  0.2080E-01  0.2117E-01  0.6539E-01  0.6550E-01
    -17.337  0.2022E-01  0.2017E-01  0.6902E-01  0.6912E-01
    -17.157  0.1504E-01  0.1510E-01  0.7172E-01  0.7184E-01
    -16.977  0.1434E-01  0.1428E-01  0.7430E-01  0.7440E-01
    -16.798  0.1891E-01  0.1905E-01  0.7770E-01  0.7782E-01
    -16.618  0.1184E-01  0.1137E-01  0.7982E-01  0.7987E-01
    -16.439  0.8001E-02  0.8662E-02  0.8126E-01  0.8142E-01
    -16.259  0.1961E-01  0.1936E-01  0.8478E-01  0.8490E-01
    -16.079  0.1585E-01  0.1595E-01  0.8763E-01  0.8776E-01
    -15.900  0.1464E-01  0.1436E-01  0.9026E-01  0.9034E-01
    -15.720  0.1011E-01  0.1044E-01  0.9207E-01  0.9222E-01
    -15.540  0.9269E-02  0.9186E-02  0.9374E-01  0.9387E-01
    -15.361  0.7012E-02  0.6463E-02  0.9500E-01  0.9503E-01
    -15.181  0.1117E-01  0.1173E-01  0.9700E-01  0.9714E-01
    -15.002  0.1805E-01  0.1807E-01  0.1002E+00  0.1004E+00
    -14.822  0.1852E-01  0.1850E-01  0.1036E+00  0.1037E+00
    -14.642  0.1540E-01  0.1511E-01  0.1063E+00  0.1064E+00
    -14.463  0.1421E-01  0.1410E-01  0.1089E+00  0.1090E+00
    -14.283  0.1497E-01  0.1531E-01  0.1116E+00  0.1117E+00
    -14.103  0.1547E-01  0.1531E-01  0.1144E+00  0.1145E+00
    -13.924  0.1428E-01  0.1447E-01  0.1169E+00  0.1171E+00
    -13.744  0.1853E-01  0.1860E-01  0.1203E+00  0.1204E+00
    -13.565  0.1478E-01  0.1434E-01  0.1229E+00  0.1230E+00
    -13.385  0.1533E-01  0.1593E-01  0.1257E+00  0.1258E+00
    -13.205  0.1146E-01  0.1125E-01  0.1277E+00  0.1279E+00
    -13.026  0.1026E-01  0.9852E-02  0.1296E+00  0.1296E+00
    -12.846  0.7922E-02  0.8249E-02  0.1310E+00  0.1311E+00
    -12.667  0.2619E-01  0.2639E-01  0.1357E+00  0.1358E+00
    -12.487  0.1694E-01  0.1682E-01  0.1387E+00  0.1389E+00
    -12.307  0.1072E-01  0.1035E-01  0.1407E+00  0.1407E+00
    -12.128  0.1114E-01  0.1122E-01  0.1427E+00  0.1427E+00
    -11.948  0.1466E-01  0.1452E-01  0.1453E+00  0.1453E+00
    -11.768  0.2052E-01  0.2099E-01  0.1490E+00  0.1491E+00
    -11.589  0.2298E-01  0.2312E-01  0.1531E+00  0.1533E+00
    -11.409  0.1899E-01  0.1854E-01  0.1565E+00  0.1566E+00
    -11.230  0.7825E-02  0.7775E-02  0.1579E+00  0.1580E+00
    -11.050  0.1655E-01  0.1662E-01  0.1609E+00  0.1610E+00
    -10.870  0.1752E-01  0.1752E-01  0.1640E+00  0.1641E+00
    -10.691  0.1632E-01  0.1626E-01  0.1670E+00  0.1670E+00
    -10.511  0.1495E-01  0.1517E-01  0.1697E+00  0.1698E+00
    -10.331  0.3808E-01  0.3816E-01  0.1765E+00  0.1766E+00
    -10.152  0.1890E-01  0.1852E-01  0.1799E+00  0.1800E+00
     -9.972  0.2148E-01  0.2190E-01  0.1838E+00  0.1839E+00
     -9.793  0.2160E-01  0.2127E-01  0.1876E+00  0.1877E+00
     -9.613  0.2205E-01  0.2204E-01  0.1916E+00  0.1917E+00
     -9.433  0.3132E-01  0.3132E-01  0.1972E+00  0.1973E+00
     -9.254  0.3199E-01  0.3201E-01  0.2030E+00  0.2030E+00
     -9.074  0.3184E-01  0.3189E-01  0.2087E+00  0.2088E+00
     -8.894  0.3200E-01  0.3189E-01  0.2144E+00  0.2145E+00
     -8.715  0.3390E-01  0.3419E-01  0.2205E+00  0.2206E+00
     -8.535  0.5054E-01  0.5091E-01  0.2296E+00  0.2298E+00
     -8.356  0.5548E-01  0.5492E-01  0.2396E+00  0.2396E+00
     -8.176  0.2752E-01  0.2754E-01  0.2445E+00  0.2446E+00
     -7.996  0.2806E-01  0.2841E-01  0.2495E+00  0.2497E+00
     -7.817  0.3035E-01  0.2982E-01  0.2550E+00  0.2551E+00
     -7.637  0.2496E-01  0.2485E-01  0.2595E+00  0.2595E+00
     -7.458  0.3957E-01  0.3972E-01  0.2666E+00  0.2667E+00
     -7.278  0.3261E-01  0.3285E-01  0.2724E+00  0.2726E+00
     -7.098  0.2890E-01  0.2784E-01  0.2776E+00  0.2776E+00
     -6.919  0.3478E-01  0.3548E-01  0.2839E+00  0.2839E+00
     -6.739  0.2322E-01  0.2313E-01  0.2881E+00  0.2881E+00
     -6.559  0.1943E-01  0.1909E-01  0.2915E+00  0.2915E+00
     -6.380  0.1924E-01  0.1807E-01  0.2950E+00  0.2948E+00
     -6.200  0.3575E-01  0.3545E-01  0.3014E+00  0.3011E+00
     -6.021  0.2868E-01  0.3019E-01  0.3066E+00  0.3065E+00
     -5.841  0.2959E-01  0.2926E-01  0.3119E+00  0.3118E+00
     -5.661  0.2424E-01  0.2272E-01  0.3162E+00  0.3159E+00
     -5.482  0.1645E-01  0.1750E-01  0.3192E+00  0.3190E+00
     -5.302  0.1394E-01  0.1259E-01  0.3217E+00  0.3213E+00
     -5.122  0.2231E-01  0.2164E-01  0.3257E+00  0.3252E+00
     -4.943  0.3139E-01  0.2364E-01  0.3313E+00  0.3294E+00
     -4.763  0.3072E-01  0.3319E-01  0.3369E+00  0.3354E+00
     -4.584  0.3259E-01  0.3561E-01  0.3427E+00  0.3418E+00
     -4.404  0.9391E-02  0.1436E-01  0.3444E+00  0.3444E+00
     -4.224  0.5559E-02  0.4218E-02  0.3454E+00  0.3451E+00
     -4.045  0.1325E-01  0.9425E-02  0.3478E+00  0.3468E+00
     -3.865  0.3086E-01  0.1925E-01  0.3533E+00  0.3503E+00
     -3.685  0.1169E-01  0.1390E-01  0.3554E+00  0.3528E+00
     -3.506  0.8506E-02  0.1714E-01  0.3570E+00  0.3558E+00
     -3.326  0.1571E-01  0.1536E-01  0.3598E+00  0.3586E+00
     -3.147  0.1740E-01  0.8476E-02  0.3629E+00  0.3601E+00
     -2.967  0.4974E-02  0.6365E-02  0.3638E+00  0.3613E+00
     -2.787  0.9382E-02  0.2966E-02  0.3655E+00  0.3618E+00
     -2.608  0.5458E-02  0.4266E-03  0.3665E+00  0.3619E+00
     -2.428  0.2614E-02  0.4502E-03  0.3669E+00  0.3620E+00
     -2.249  0.3125E-02  0.3091E-02  0.3675E+00  0.3625E+00
     -2.069  0.5313E-02  0.6652E-02  0.3684E+00  0.3637E+00
     -1.889  0.1774E-02  0.9303E-02  0.3688E+00  0.3654E+00
     -1.710  0.7122E-02  0.1381E-02  0.3700E+00  0.3656E+00
     -1.530  0.1699E-01  0.1971E-02  0.3731E+00  0.3660E+00
     -1.350  0.1653E-01  0.1073E-01  0.3761E+00  0.3679E+00
     -1.171  0.8528E-02  0.1239E-02  0.3776E+00  0.3681E+00
     -0.991  0.4298E-02  0.6196E-02  0.3784E+00  0.3692E+00
     -0.812  0.1596E-01  0.2728E-01  0.3812E+00  0.3741E+00
     -0.632  0.1844E-01  0.2810E-01  0.3845E+00  0.3792E+00
     -0.452  0.1427E-01  0.2675E-01  0.3871E+00  0.3840E+00
     -0.273  0.2167E-01  0.2591E-01  0.3910E+00  0.3886E+00
     -0.093  0.8434E-02  0.1633E-01  0.3925E+00  0.3916E+00
      0.087  0.9641E-02  0.7448E-02  0.3942E+00  0.3929E+00
      0.266  0.2480E-01  0.2437E-01  0.3987E+00  0.3973E+00
      0.446  0.1647E-01  0.2275E-01  0.4017E+00  0.4014E+00
      0.625  0.1380E-01  0.1635E-01  0.4041E+00  0.4043E+00
      0.805  0.1255E-01  0.5830E-02  0.4064E+00  0.4054E+00
      0.985  0.1953E-01  0.1446E-01  0.4099E+00  0.4080E+00
      1.164  0.1314E-01  0.2080E-01  0.4123E+00  0.4117E+00
      1.344  0.1650E-01  0.1338E-01  0.4152E+00  0.4141E+00
      1.523  0.1735E-01  0.1840E-01  0.4183E+00  0.4174E+00
      1.703  0.2422E-01  0.2400E-01  0.4227E+00  0.4217E+00
      1.883  0.2975E-01  0.2842E-01  0.4280E+00  0.4268E+00
      2.062  0.3098E-01  0.3030E-01  0.4336E+00  0.4323E+00
      2.242  0.2681E-01  0.2469E-01  0.4384E+00  0.4367E+00
      2.422  0.2419E-01  0.2079E-01  0.4428E+00  0.4404E+00
      2.601  0.4060E-01  0.3994E-01  0.4501E+00  0.4476E+00
      2.781  0.4581E-01  0.4877E-01  0.4583E+00  0.4564E+00
      2.960  0.9450E-02  0.1976E-01  0.4600E+00  0.4599E+00
      3.140  0.1069E-03  0.4535E-03  0.4600E+00  0.4600E+00
      3.320  0.7506E-08  0.8005E-07  0.4600E+00  0.4600E+00
      3.499  0.1345E-14  0.4248E-13  0.4600E+00  0.4600E+00
      3.679  0.0000E+00  0.0000E+00  0.4600E+00  0.4600E+00
      3.859  0.0000E+00  0.0000E+00  0.4600E+00  0.4600E+00
      4.038  0.0000E+00  0.0000E+00  0.4600E+00  0.4600E+00
      4.218  0.0000E+00  0.0000E+00  0.4600E+00  0.4600E+00
      4.397  0.0000E+00  0.0000E+00  0.4600E+00  0.4600E+00
      4.577  0.0000E+00  0.0000E+00  0.4600E+00  0.4600E+00
      4.757  0.0000E+00  0.0000E+00  0.4600E+00  0.4600E+00
      4.936  0.0000E+00  0.0000E+00  0.4600E+00  0.4600E+00
      5.116  0.0000E+00  0.0000E+00  0.4600E+00  0.4600E+00
      5.296  0.0000E+00  0.0000E+00  0.4600E+00  0.4600E+00
