       N       E                     dE             d eps       ncg     rms          rms(c)
DAV:   1     0.273532248097E+04    0.27353E+04   -0.11740E+05  3256   0.127E+03
DAV:   2    -0.173658380409E+03   -0.29090E+04   -0.27807E+04  4320   0.295E+02
DAV:   3    -0.684330463740E+03   -0.51067E+03   -0.50773E+03  3544   0.129E+02
DAV:   4    -0.703741126938E+03   -0.19411E+02   -0.19261E+02  3544   0.311E+01
DAV:   5    -0.704357280868E+03   -0.61615E+00   -0.61418E+00  4064   0.476E+00    0.465E+01
RMM:   6    -0.732424930473E+03   -0.28068E+02   -0.53489E+02  4095   0.393E+01    0.843E+01
RMM:   7    -0.662582767105E+03    0.69842E+02   -0.57267E+01  3054   0.137E+01    0.324E+01
RMM:   8    -0.662498425343E+03    0.84342E-01   -0.22180E+01  3120   0.703E+00    0.284E+01
RMM:   9    -0.647169643480E+03    0.15329E+02   -0.19768E+01  2972   0.839E+00    0.118E+01
RMM:  10    -0.647564764736E+03   -0.39512E+00   -0.32965E+00  2994   0.317E+00    0.146E+01
RMM:  11    -0.646522531555E+03    0.10422E+01   -0.41611E-01  3143   0.105E+00    0.772E+00
RMM:  12    -0.646375675475E+03    0.14686E+00   -0.15835E-01  2944   0.921E-01    0.638E+00
RMM:  13    -0.646487785769E+03   -0.11211E+00   -0.29597E-02  2986   0.327E-01    0.721E+00
RMM:  14    -0.646296942237E+03    0.19084E+00   -0.33360E-02  2976   0.397E-01    0.697E+00
RMM:  15    -0.646316870679E+03   -0.19928E-01   -0.40246E-03  3275   0.990E-02    0.620E+00
RMM:  16    -0.646411125077E+03   -0.94254E-01   -0.24037E-02  2955   0.288E-01    0.720E+00
RMM:  17    -0.646415474535E+03   -0.43495E-02   -0.72758E-02  2999   0.427E-01    0.493E+00
RMM:  18    -0.646465516156E+03   -0.50042E-01   -0.29279E-02  3023   0.246E-01    0.467E+00
RMM:  19    -0.646433786180E+03    0.31730E-01   -0.96833E-03  3132   0.136E-01    0.401E+00
RMM:  20    -0.646419984677E+03    0.13802E-01   -0.71254E-03  2998   0.141E-01    0.337E+00
RMM:  21    -0.646427582282E+03   -0.75976E-02   -0.12036E-02  2948   0.194E-01    0.253E+00
RMM:  22    -0.646451812191E+03   -0.24230E-01   -0.93577E-03  2966   0.163E-01    0.237E+00
RMM:  23    -0.646468652065E+03   -0.16840E-01   -0.40813E-03  3011   0.831E-02    0.256E+00
RMM:  24    -0.646471282764E+03   -0.26307E-02   -0.17545E-03  2903   0.608E-02    0.256E+00
RMM:  25    -0.646484204177E+03   -0.12921E-01   -0.21220E-03  2971   0.697E-02    0.270E+00
RMM:  26    -0.646485562807E+03   -0.13586E-02   -0.76568E-04  2671   0.384E-02    0.279E+00
RMM:  27    -0.646487142257E+03   -0.15795E-02   -0.16055E-04  2228   0.238E-02    0.283E+00
RMM:  28    -0.646483283915E+03    0.38583E-02   -0.88151E-04  2692   0.446E-02    0.286E+00
RMM:  29    -0.646486443087E+03   -0.31592E-02   -0.26886E-04  2499   0.231E-02    0.287E+00
RMM:  30    -0.646483962003E+03    0.24811E-02   -0.91962E-05  2188   0.158E-02    0.288E+00
RMM:  31    -0.646477760050E+03    0.62020E-02   -0.57087E-04  2575   0.355E-02    0.291E+00
RMM:  32    -0.646479181400E+03   -0.14214E-02   -0.20716E-04  2247   0.168E-02    0.296E+00
RMM:  33    -0.646478561772E+03    0.61963E-03   -0.75902E-05  2035   0.948E-03    0.299E+00
RMM:  34    -0.646479218648E+03   -0.65688E-03   -0.99536E-06  1750   0.602E-03    0.298E+00
RMM:  35    -0.646478915350E+03    0.30330E-03   -0.92658E-06  1689   0.438E-03    0.300E+00
RMM:  36    -0.646479098483E+03   -0.18313E-03   -0.22973E-06  1243   0.321E-03    0.299E+00
RMM:  37    -0.646479533608E+03   -0.43512E-03   -0.26454E-06  1282   0.302E-03    0.298E+00
RMM:  38    -0.646481041692E+03   -0.15081E-02   -0.20339E-05  1792   0.732E-03    0.296E+00
RMM:  39    -0.646488082223E+03   -0.70405E-02   -0.72494E-04  2666   0.415E-02    0.284E+00
RMM:  40    -0.646493630866E+03   -0.55486E-02   -0.10367E-03  2686   0.393E-02    0.270E+00
RMM:  41    -0.646506724756E+03   -0.13094E-01   -0.44955E-03  2946   0.931E-02    0.237E+00
RMM:  42    -0.646510276717E+03   -0.35520E-02   -0.10836E-03  2458   0.311E-02    0.235E+00
RMM:  43    -0.646511589581E+03   -0.13129E-02   -0.22623E-04  2079   0.142E-02    0.234E+00
RMM:  44    -0.646513618171E+03   -0.20286E-02   -0.17847E-04  2042   0.161E-02    0.230E+00
RMM:  45    -0.646512899465E+03    0.71871E-03   -0.18843E-04  2124   0.173E-02    0.224E+00
RMM:  46    -0.646513457227E+03   -0.55776E-03   -0.75146E-04  2636   0.388E-02    0.208E+00
RMM:  47    -0.646520396465E+03   -0.69392E-02   -0.74528E-04  2620   0.391E-02    0.200E+00
RMM:  48    -0.646520183247E+03    0.21322E-03   -0.15941E-04  2035   0.139E-02    0.200E+00
RMM:  49    -0.646520812572E+03   -0.62932E-03   -0.56515E-05  1892   0.795E-03    0.199E+00
RMM:  50    -0.646533269315E+03   -0.12457E-01   -0.24699E-03  2931   0.811E-02
   1 F= -.65292889E+03 E0= -.65291309E+03  d E =-.652929E+03  mag=     0.3739
       N       E                     dE             d eps       ncg     rms          rms(c)
DAV:   1    -0.646544885447E+03   -0.24073E-01   -0.12506E+01  3248   0.108E+01    0.240E+00
RMM:   2    -0.646790761984E+03   -0.24588E+00   -0.81375E-01  3100   0.181E+00    0.499E+00
RMM:   3    -0.646606076288E+03    0.18469E+00   -0.18682E-01  3092   0.734E-01    0.212E+00
RMM:   4    -0.646540130632E+03    0.65946E-01   -0.49774E-02  3153   0.315E-01    0.196E+00
RMM:   5    -0.646541562219E+03   -0.14316E-02   -0.45089E-03  3474   0.102E-01    0.206E+00
RMM:   6    -0.646495907633E+03    0.45655E-01   -0.31185E-02  3026   0.279E-01    0.221E+00
RMM:   7    -0.646569753172E+03   -0.73846E-01   -0.48610E-02  3039   0.309E-01    0.220E+00
RMM:   8    -0.646673189311E+03   -0.10344E+00   -0.40503E-02  3054   0.236E-01    0.210E+00
RMM:   9    -0.646722584540E+03   -0.49395E-01   -0.16977E-02  3174   0.140E-01    0.183E+00
RMM:  10    -0.646754349284E+03   -0.31765E-01   -0.72408E-03  3112   0.976E-02    0.159E+00
RMM:  11    -0.646845853927E+03   -0.91505E-01   -0.32922E-02  3021   0.261E-01    0.696E-01
RMM:  12    -0.646860896645E+03   -0.15043E-01   -0.81627E-03  3403   0.101E-01    0.548E-01
RMM:  13    -0.646885967706E+03   -0.25071E-01   -0.10635E-02  3044   0.152E-01    0.224E-01
RMM:  14    -0.646899306241E+03   -0.13339E-01   -0.30390E-03  2988   0.733E-02    0.224E-01
RMM:  15    -0.646919637556E+03   -0.20331E-01   -0.39500E-03  2992   0.738E-02    0.571E-02
RMM:  16    -0.646923475068E+03   -0.38375E-02   -0.96615E-04  2670   0.277E-02    0.915E-02
RMM:  17    -0.646924679770E+03   -0.12047E-02   -0.17271E-04  2224   0.118E-02    0.109E-01
RMM:  18    -0.646924269608E+03    0.41016E-03   -0.29826E-05  1834   0.576E-03    0.128E-01
RMM:  19    -0.646926212828E+03   -0.19432E-02   -0.15843E-04  2214   0.159E-02    0.963E-02
RMM:  20    -0.646926650452E+03   -0.43762E-03   -0.69510E-05  2139   0.120E-02    0.535E-02
RMM:  21    -0.646926779678E+03   -0.12923E-03   -0.18392E-05  1837   0.660E-03    0.364E-02
RMM:  22    -0.646926894365E+03   -0.11469E-03   -0.14480E-05  1813   0.581E-03    0.135E-02
RMM:  23    -0.646926961101E+03   -0.66736E-04   -0.15232E-05  1832   0.541E-03    0.714E-03
RMM:  24    -0.646926983936E+03   -0.22835E-04   -0.43702E-06  1451   0.312E-03    0.955E-03
RMM:  25    -0.646926995802E+03   -0.11866E-04   -0.99747E-07  1000   0.196E-03    0.825E-03
RMM:  26    -0.646927009138E+03   -0.13336E-04   -0.10556E-06   938   0.175E-03    0.695E-03
RMM:  27    -0.646927011081E+03   -0.19435E-05   -0.40788E-07   728   0.146E-03
   2 F= -.65333194E+03 E0= -.65331505E+03  d E =-.403050E+00  mag=     1.6447
       N       E                     dE             d eps       ncg     rms          rms(c)
DAV:   1    -0.646935888877E+03   -0.88797E-02   -0.44359E-02  3440   0.641E-01    0.822E-02
RMM:   2    -0.646935910951E+03   -0.22074E-04   -0.18730E-03  3132   0.100E-01    0.574E-02
RMM:   3    -0.646935845443E+03    0.65509E-04   -0.27184E-04  2703   0.313E-02    0.727E-02
RMM:   4    -0.646935720846E+03    0.12460E-03   -0.76406E-05  2008   0.177E-02    0.215E-02
RMM:   5    -0.646935693575E+03    0.27270E-04   -0.22782E-05  1874   0.103E-02    0.101E-02
RMM:   6    -0.646935772989E+03   -0.79414E-04   -0.46308E-06  1761   0.583E-03    0.411E-03
RMM:   7    -0.646935866969E+03   -0.93980E-04   -0.29489E-06  1736   0.337E-03    0.225E-03
RMM:   8    -0.646935913152E+03   -0.46183E-04   -0.12086E-06  1100   0.203E-03    0.130E-03
RMM:   9    -0.646935958214E+03   -0.45062E-04   -0.14616E-06  1001   0.183E-03    0.672E-04
RMM:  10    -0.646935976241E+03   -0.18027E-04   -0.52713E-07   747   0.160E-03    0.348E-04
RMM:  11    -0.646935981841E+03   -0.56002E-05   -0.39526E-07   704   0.156E-03
   3 F= -.65334041E+03 E0= -.65332364E+03  d E =-.411529E+00  mag=     1.6647
       N       E                     dE             d eps       ncg     rms          rms(c)
DAV:   1    -0.646968751511E+03   -0.32775E-01   -0.20009E+00  3240   0.430E+00    0.545E-01
RMM:   2    -0.646973392703E+03   -0.46412E-02   -0.83079E-02  3127   0.670E-01    0.382E-01
RMM:   3    -0.646971899276E+03    0.14934E-02   -0.11701E-02  3134   0.207E-01    0.471E-01
RMM:   4    -0.646968534486E+03    0.33648E-02   -0.32232E-03  3132   0.107E-01    0.148E-01
RMM:   5    -0.646968155642E+03    0.37884E-03   -0.83359E-04  2989   0.572E-02    0.680E-02
RMM:   6    -0.646969584014E+03   -0.14284E-02   -0.15690E-04  2767   0.260E-02    0.251E-02
RMM:   7    -0.646971041248E+03   -0.14572E-02   -0.63531E-05  2103   0.116E-02    0.140E-02
RMM:   8    -0.646972071876E+03   -0.10306E-02   -0.43214E-05  2000   0.841E-03    0.660E-03
RMM:   9    -0.646972629918E+03   -0.55804E-03   -0.26600E-05  1922   0.551E-03    0.370E-03
RMM:  10    -0.646972894344E+03   -0.26443E-03   -0.16152E-05  1437   0.399E-03    0.203E-03
RMM:  11    -0.646972965006E+03   -0.70661E-04   -0.67130E-06  1319   0.304E-03    0.115E-03
RMM:  12    -0.646972973633E+03   -0.86274E-05   -0.21414E-06  1172   0.222E-03
   4 F= -.65337389E+03 E0= -.65335857E+03  d E =-.445005E+00  mag=     1.7863
       N       E                     dE             d eps       ncg     rms          rms(c)
DAV:   1    -0.646975787654E+03   -0.28226E-02   -0.15049E-01  3352   0.118E+00    0.149E-01
RMM:   2    -0.646976068432E+03   -0.28078E-03   -0.62725E-03  3126   0.184E-01    0.110E-01
RMM:   3    -0.646975941488E+03    0.12694E-03   -0.89297E-04  3122   0.571E-02    0.127E-01
RMM:   4    -0.646975651113E+03    0.29037E-03   -0.23137E-04  2878   0.289E-02    0.407E-02
RMM:   5    -0.646975597392E+03    0.53721E-04   -0.61520E-05  2171   0.164E-02    0.182E-02
RMM:   6    -0.646975739149E+03   -0.14176E-03   -0.11140E-05  1808   0.839E-03    0.642E-03
RMM:   7    -0.646975900971E+03   -0.16182E-03   -0.57740E-06  1773   0.470E-03    0.316E-03
RMM:   8    -0.646975997457E+03   -0.96486E-04   -0.33293E-06  1472   0.297E-03    0.185E-03
RMM:   9    -0.646976076074E+03   -0.78617E-04   -0.33693E-06  1269   0.245E-03    0.126E-03
RMM:  10    -0.646976096427E+03   -0.20353E-04   -0.89123E-07   932   0.182E-03    0.596E-04
RMM:  11    -0.646976107360E+03   -0.10932E-04   -0.75418E-07   875   0.169E-03    0.529E-04
RMM:  12    -0.646976109333E+03   -0.19739E-05   -0.30209E-07   665   0.149E-03
   5 F= -.65337600E+03 E0= -.65336121E+03  d E =-.447115E+00  mag=     1.8141
       N       E                     dE             d eps       ncg     rms          rms(c)
DAV:   1    -0.646981861906E+03   -0.57545E-02   -0.21573E+00  3256   0.448E+00    0.421E-01
RMM:   2    -0.646987693146E+03   -0.58312E-02   -0.77380E-02  2995   0.682E-01    0.349E-01
RMM:   3    -0.646986788505E+03    0.90464E-03   -0.63681E-03  3199   0.169E-01    0.307E-01
RMM:   4    -0.646985689863E+03    0.10986E-02   -0.20581E-03  3081   0.932E-02    0.130E-01
RMM:   5    -0.646985504171E+03    0.18569E-03   -0.78161E-04  2986   0.567E-02    0.459E-02
RMM:   6    -0.646985663620E+03   -0.15945E-03   -0.63196E-05  2232   0.182E-02    0.278E-02
RMM:   7    -0.646985819385E+03   -0.15577E-03   -0.29846E-05  1913   0.105E-02    0.158E-02
RMM:   8    -0.646985901031E+03   -0.81646E-04   -0.62752E-06  1776   0.613E-03    0.928E-03
RMM:   9    -0.646985969352E+03   -0.68321E-04   -0.44032E-06  1776   0.418E-03    0.216E-03
RMM:  10    -0.646985979746E+03   -0.10394E-04   -0.10333E-06  1313   0.233E-03    0.108E-03
RMM:  11    -0.646985989000E+03   -0.92542E-05   -0.52726E-07  1062   0.186E-03
   6 F= -.65338653E+03 E0= -.65337251E+03  d E =-.105257E-01  mag=     1.8438
       N       E                     dE             d eps       ncg     rms          rms(c)
DAV:   1    -0.646986969063E+03   -0.98932E-03   -0.11741E-01  3392   0.105E+00    0.973E-02
RMM:   2    -0.646987260956E+03   -0.29189E-03   -0.42345E-03  2996   0.159E-01    0.806E-02
RMM:   3    -0.646987217065E+03    0.43891E-04   -0.34165E-04  3061   0.393E-02    0.713E-02
RMM:   4    -0.646987153107E+03    0.63959E-04   -0.10962E-04  2627   0.219E-02    0.310E-02
RMM:   5    -0.646987140729E+03    0.12378E-04   -0.44417E-05  2162   0.144E-02    0.106E-02
RMM:   6    -0.646987164906E+03   -0.24178E-04   -0.45127E-06  1753   0.620E-03    0.533E-03
RMM:   7    -0.646987187673E+03   -0.22767E-04   -0.26108E-06  1713   0.369E-03    0.257E-03
RMM:   8    -0.646987196374E+03   -0.87012E-05   -0.57221E-07  1144   0.220E-03
   7 F= -.65338761E+03 E0= -.65337341E+03  d E =-.116076E-01  mag=     1.8378
       N       E                     dE             d eps       ncg     rms          rms(c)
DAV:   1    -0.646990964289E+03   -0.37766E-02   -0.58388E-01  3096   0.220E+00    0.265E-01
RMM:   2    -0.646993644397E+03   -0.26801E-02   -0.21174E-02  3007   0.338E-01    0.449E-01
RMM:   3    -0.646991540558E+03    0.21038E-02   -0.36364E-03  3193   0.115E-01    0.133E-01
RMM:   4    -0.646991308402E+03    0.23216E-03   -0.58208E-04  3119   0.467E-02    0.708E-02
RMM:   5    -0.646991239570E+03    0.68831E-04   -0.17337E-04  2944   0.285E-02    0.225E-02
RMM:   6    -0.646991254485E+03   -0.14915E-04   -0.11610E-05  1810   0.829E-03    0.971E-03
RMM:   7    -0.646991275935E+03   -0.21450E-04   -0.54136E-06  1764   0.513E-03    0.386E-03
RMM:   8    -0.646991289572E+03   -0.13636E-04   -0.16709E-06  1731   0.318E-03    0.226E-03
RMM:   9    -0.646991299440E+03   -0.98686E-05   -0.62631E-07  1093   0.201E-03
   8 F= -.65339059E+03 E0= -.65337625E+03  d E =-.298503E-02  mag=     1.8322
       N       E                     dE             d eps       ncg     rms          rms(c)
DAV:   1    -0.646991360386E+03   -0.70815E-04   -0.36535E-02  3224   0.550E-01    0.664E-02
RMM:   2    -0.646991530666E+03   -0.17028E-03   -0.13182E-03  3006   0.845E-02    0.112E-01
RMM:   3    -0.646991403313E+03    0.12735E-03   -0.22222E-04  2548   0.287E-02    0.339E-02
RMM:   4    -0.646991394067E+03    0.92463E-05   -0.33749E-05  1956   0.127E-02
   9 F= -.65339098E+03 E0= -.65337667E+03  d E =-.336901E-02  mag=     1.8329
       N       E                     dE             d eps       ncg     rms          rms(c)
DAV:   1    -0.646992687045E+03   -0.12837E-02   -0.22570E-01  3032   0.130E+00    0.114E-01
RMM:   2    -0.646993006301E+03   -0.31926E-03   -0.47016E-03  3002   0.175E-01    0.117E-01
RMM:   3    -0.646992903464E+03    0.10284E-03   -0.54451E-04  3236   0.477E-02    0.821E-02
RMM:   4    -0.646992805232E+03    0.98232E-04   -0.16927E-04  2979   0.260E-02    0.276E-02
RMM:   5    -0.646992816571E+03   -0.11339E-04   -0.33679E-05  1991   0.125E-02    0.112E-02
RMM:   6    -0.646992836866E+03   -0.20295E-04   -0.49726E-06  1746   0.606E-03    0.545E-03
RMM:   7    -0.646992853773E+03   -0.16907E-04   -0.21139E-06  1715   0.350E-03    0.197E-03
RMM:   8    -0.646992860733E+03   -0.69599E-05   -0.40025E-07   969   0.202E-03
  10 F= -.65339242E+03 E0= -.65337824E+03  d E =-.144277E-02  mag=     1.8402
       N       E                     dE             d eps       ncg     rms          rms(c)
DAV:   1    -0.646992867765E+03   -0.13993E-04   -0.14510E-04  3144   0.332E-02    0.298E-03
RMM:   2    -0.646992869998E+03   -0.22330E-05   -0.28498E-06  1648   0.466E-03
  11 F= -.65339243E+03 E0= -.65337825E+03  d E =-.145296E-02  mag=     1.8402
       N       E                     dE             d eps       ncg     rms          rms(c)
DAV:   1    -0.646993179988E+03   -0.31222E-03   -0.11164E-01  3152   0.968E-01    0.916E-02
RMM:   2    -0.646993481310E+03   -0.30132E-03   -0.31927E-03  3020   0.134E-01    0.130E-01
RMM:   3    -0.646993315417E+03    0.16589E-03   -0.40673E-04  3136   0.396E-02    0.530E-02
RMM:   4    -0.646993273856E+03    0.41560E-04   -0.61687E-05  2478   0.161E-02    0.261E-02
RMM:   5    -0.646993268327E+03    0.55293E-05   -0.28105E-05  1888   0.120E-02
  12 F= -.65339313E+03 E0= -.65337909E+03  d E =-.695091E-03  mag=     1.8445
