 vasp.5.4.4.18Apr17-6-g9f103f2a35 (build Sep 02 2021 13:24:58) complex          
  
 executed on             LinuxIFC date 2023.01.15  13:02:12
 running on   48 total cores
 distrk:  each k-point on   48 cores,    1 groups
 distr:  one band on NCORES_PER_BAND=  12 cores,    4 groups


--------------------------------------------------------------------------------------------------------


 INCAR:
 POTCAR:    PAW_PBE C 08Apr2002                   
 POTCAR:    PAW_PBE N 08Apr2002                   
 POTCAR:    PAW_PBE C 08Apr2002                   
 POTCAR:    PAW_PBE Cr_pv 02Aug2007               
 POTCAR:    PAW_PBE C 08Apr2002                   
   SHA256 =  253f7b50bb8d59471dbedb8285d89021f4a42ed1a2c5d38a03a736e69125dd95 C/
   COPYR  = (c) Copyright 08Apr2002 Georg Kresse                                
   COPYR  = This file is part of the software VASP. Any use, copying, and all ot
   COPYR  = If you do not have a valid VASP license, you may not use, copy or di
   VRHFIN =C: s2p2                                                              
   LEXCH  = PE                                                                  
   EATOM  =   147.1560 eV,   10.8157 Ry                                         
                                                                                
   TITEL  = PAW_PBE C 08Apr2002                                                 
   LULTRA =        F    use ultrasoft PP ?                                      
   IUNSCR =        1    unscreen: 0-lin 1-nonlin 2-no                           
   RPACOR =    1.200    partial core radius                                     
   POMASS =   12.011; ZVAL   =    4.000    mass and valenz                      
   RCORE  =    1.500    outmost cutoff radius                                   
   RWIGS  =    1.630; RWIGS  =    0.863    wigner-seitz radius (au A)           
   ENMAX  =  400.000; ENMIN  =  300.000 eV                                      
   ICORE  =        2    local potential                                         
   LCOR   =        T    correct aug charges                                     
   LPAW   =        T    paw PP                                                  
   EAUG   =  644.873                                                            
   DEXC   =    0.000                                                            
   RMAX   =    1.529    core radius for proj-oper                               
   RAUG   =    1.300    factor for augmentation sphere                          
   RDEP   =    1.501    radius for radial grids                                 
   RDEPT  =    1.300    core radius for aug-charge                              
                                                                                
   Atomic configuration                                                         
    4 entries                                                                   
     n  l   j            E        occ.                                          
     1  0  0.50      -273.3789   2.0000                                         
     2  0  0.50       -13.7508   2.0000                                         
     2  1  0.50        -5.2854   2.0000                                         
     3  2  1.50        -5.4423   0.0000                                         
   Description                                                                  
     l       E           TYP  RCUT    TYP  RCUT                                 
     0    -13.7508458     23  1.200                                             
     0     -8.2022199     23  1.200                                             
     1     -5.2854383     23  1.500                                             
     1     34.0145650     23  1.500                                             
     2     -5.4423304      7  1.500                                             
  local pseudopotential read in
  partial core-charges read in
  partial kinetic energy density read in
  atomic valenz-charges read in
  non local Contribution for L=           0  read in
    real space projection operators read in
  non local Contribution for L=           0  read in
    real space projection operators read in
  non local Contribution for L=           1  read in
    real space projection operators read in
  non local Contribution for L=           1  read in
    real space projection operators read in
    PAW grid and wavefunctions read in
 
   number of l-projection  operators is LMAX  =           4
   number of lm-projection operators is LMMAX =           8
 
 POTCAR:    PAW_PBE N 08Apr2002                   
   SHA256 =  e053789ff3a61a86a1b75d8a110fcc91f86041011e7b0817c7c99e4e8a6349d7 N/
   COPYR  = (c) Copyright 08Apr2002 Georg Kresse                                
   COPYR  = This file is part of the software VASP. Any use, copying, and all ot
   COPYR  = If you do not have a valid VASP license, you may not use, copy or di
   VRHFIN =N: s2p3                                                              
   LEXCH  = PE                                                                  
   EATOM  =   264.5486 eV,   19.4438 Ry                                         
                                                                                
   TITEL  = PAW_PBE N 08Apr2002                                                 
   LULTRA =        F    use ultrasoft PP ?                                      
   IUNSCR =        1    unscreen: 0-lin 1-nonlin 2-no                           
   RPACOR =    1.200    partial core radius                                     
   POMASS =   14.001; ZVAL   =    5.000    mass and valenz                      
   RCORE  =    1.500    outmost cutoff radius                                   
   RWIGS  =    1.400; RWIGS  =    0.741    wigner-seitz radius (au A)           
   ENMAX  =  400.000; ENMIN  =  300.000 eV                                      
   ICORE  =        2    local potential                                         
   LCOR   =        T    correct aug charges                                     
   LPAW   =        T    paw PP                                                  
   EAUG   =  627.112                                                            
   DEXC   =    0.000                                                            
   RMAX   =    1.529    core radius for proj-oper                               
   RAUG   =    1.300    factor for augmentation sphere                          
   RDEP   =    1.514    radius for radial grids                                 
   RDEPT  =    1.338    core radius for aug-charge                              
                                                                                
   Atomic configuration                                                         
    4 entries                                                                   
     n  l   j            E        occ.                                          
     1  0  0.50      -384.7179   2.0000                                         
     2  0  0.50       -18.5828   2.0000                                         
     2  1  0.50        -7.0898   3.0000                                         
     3  2  1.50        -6.8029   0.0000                                         
   Description                                                                  
     l       E           TYP  RCUT    TYP  RCUT                                 
     0    -18.5828119     23  1.200                                             
     0    -13.5018863     23  1.200                                             
     1     -7.0897853     23  1.500                                             
     1      9.5240782     23  1.500                                             
     2     -6.8029130      7  1.500                                             
  local pseudopotential read in
  partial core-charges read in
  partial kinetic energy density read in
  atomic valenz-charges read in
  non local Contribution for L=           0  read in
    real space projection operators read in
  non local Contribution for L=           0  read in
    real space projection operators read in
  non local Contribution for L=           1  read in
    real space projection operators read in
  non local Contribution for L=           1  read in
    real space projection operators read in
    PAW grid and wavefunctions read in
 
   number of l-projection  operators is LMAX  =           4
   number of lm-projection operators is LMMAX =           8
 
 POTCAR:    PAW_PBE C 08Apr2002                   
   SHA256 =  253f7b50bb8d59471dbedb8285d89021f4a42ed1a2c5d38a03a736e69125dd95 C/
   COPYR  = (c) Copyright 08Apr2002 Georg Kresse                                
   COPYR  = This file is part of the software VASP. Any use, copying, and all ot
   COPYR  = If you do not have a valid VASP license, you may not use, copy or di
   VRHFIN =C: s2p2                                                              
   LEXCH  = PE                                                                  
   EATOM  =   147.1560 eV,   10.8157 Ry                                         
                                                                                
   TITEL  = PAW_PBE C 08Apr2002                                                 
   LULTRA =        F    use ultrasoft PP ?                                      
   IUNSCR =        1    unscreen: 0-lin 1-nonlin 2-no                           
   RPACOR =    1.200    partial core radius                                     
   POMASS =   12.011; ZVAL   =    4.000    mass and valenz                      
   RCORE  =    1.500    outmost cutoff radius                                   
   RWIGS  =    1.630; RWIGS  =    0.863    wigner-seitz radius (au A)           
   ENMAX  =  400.000; ENMIN  =  300.000 eV                                      
   ICORE  =        2    local potential                                         
   LCOR   =        T    correct aug charges                                     
   LPAW   =        T    paw PP                                                  
   EAUG   =  644.873                                                            
   DEXC   =    0.000                                                            
   RMAX   =    1.529    core radius for proj-oper                               
   RAUG   =    1.300    factor for augmentation sphere                          
   RDEP   =    1.501    radius for radial grids                                 
   RDEPT  =    1.300    core radius for aug-charge                              
                                                                                
   Atomic configuration                                                         
    4 entries                                                                   
     n  l   j            E        occ.                                          
     1  0  0.50      -273.3789   2.0000                                         
     2  0  0.50       -13.7508   2.0000                                         
     2  1  0.50        -5.2854   2.0000                                         
     3  2  1.50        -5.4423   0.0000                                         
   Description                                                                  
     l       E           TYP  RCUT    TYP  RCUT                                 
     0    -13.7508458     23  1.200                                             
     0     -8.2022199     23  1.200                                             
     1     -5.2854383     23  1.500                                             
     1     34.0145650     23  1.500                                             
     2     -5.4423304      7  1.500                                             
  local pseudopotential read in
  partial core-charges read in
  partial kinetic energy density read in
  atomic valenz-charges read in
  non local Contribution for L=           0  read in
    real space projection operators read in
  non local Contribution for L=           0  read in
    real space projection operators read in
  non local Contribution for L=           1  read in
    real space projection operators read in
  non local Contribution for L=           1  read in
    real space projection operators read in
    PAW grid and wavefunctions read in
 
   number of l-projection  operators is LMAX  =           4
   number of lm-projection operators is LMMAX =           8
 
 POTCAR:    PAW_PBE Cr_pv 02Aug2007               
   SHA256 =  c9a7df34d3cdbacf1090e328ef39c0b420964e11c23f63548d1ac9dd218cdba0 Cr
   COPYR  = (c) Copyright 02Aug2007 Georg Kresse                                
   COPYR  = This file is part of the software VASP. Any use, copying, and all ot
   COPYR  = If you do not have a valid VASP license, you may not use, copy or di
   VRHFIN =Cr : p6d5s1                                                          
   LEXCH  = PE                                                                  
   EATOM  =  1647.9177 eV,  121.1185 Ry                                         
                                                                                
   TITEL  = PAW_PBE Cr_pv 02Aug2007                                             
   LULTRA =        F    use ultrasoft PP ?                                      
   IUNSCR =        1    unscreen: 0-lin 1-nonlin 2-no                           
   RPACOR =    2.080    partial core radius                                     
   POMASS =   51.996; ZVAL   =   12.000    mass and valenz                      
   RCORE  =    2.300    outmost cutoff radius                                   
   RWIGS  =    2.500; RWIGS  =    1.323    wigner-seitz radius (au A)           
   ENMAX  =  265.681; ENMIN  =  199.261 eV                                      
   ICORE  =        3    local potential                                         
   LCOR   =        T    correct aug charges                                     
   LPAW   =        T    paw PP                                                  
   EAUG   =  519.424                                                            
   DEXC   =    0.000                                                            
   RMAX   =    2.356    core radius for proj-oper                               
   RAUG   =    1.300    factor for augmentation sphere                          
   RDEP   =    2.447    radius for radial grids                                 
   RDEPT  =    1.882    core radius for aug-charge                              
                                                                                
   Atomic configuration                                                         
    8 entries                                                                   
     n  l   j            E        occ.                                          
     1  0  0.50     -5880.4963   2.0000                                         
     2  0  0.50      -667.0865   2.0000                                         
     2  1  1.50      -560.6250   6.0000                                         
     3  0  0.50       -73.9860   2.0000                                         
     3  1  1.50       -45.4378   6.0000                                         
     3  2  2.50        -2.9137   5.0000                                         
     4  0  0.50        -4.0071   1.0000                                         
     4  3  2.50        -1.3606   0.0000                                         
   Description                                                                  
     l       E           TYP  RCUT    TYP  RCUT                                 
     1    -45.4377911     23  2.000                                             
     1      1.3605826     23  2.000                                             
     2     -2.9136672     23  2.300                                             
     2     -4.2742498     23  2.300                                             
     0     -4.0071320     23  2.300                                             
     0      9.4498803     23  2.300                                             
     3      2.7211652     23  2.300                                             
  local pseudopotential read in
  partial core-charges read in
  partial kinetic energy density read in
  atomic valenz-charges read in
  non local Contribution for L=           1  read in
    real space projection operators read in
  non local Contribution for L=           1  read in
    real space projection operators read in
  non local Contribution for L=           2  read in
    real space projection operators read in
  non local Contribution for L=           2  read in
    real space projection operators read in
  non local Contribution for L=           0  read in
    real space projection operators read in
  non local Contribution for L=           0  read in
    real space projection operators read in
    PAW grid and wavefunctions read in
 
   number of l-projection  operators is LMAX  =           6
   number of lm-projection operators is LMMAX =          18
 
 Optimization of the real space projectors (new method)

 maximal supplied QI-value         = 25.13
 optimisation between [QCUT,QGAM] = [ 11.81, 23.88] = [ 39.08,159.64] Ry 
 Optimized for a Real-space Cutoff    1.18 Angstroem

   l    n(q)    QCUT    max X(q) W(low)/X(q) W(high)/X(q)  e(spline) 
   0      8    11.813   115.676    0.10E-03    0.16E-03    0.35E-06
   0      8    11.813    87.132    0.10E-03    0.16E-03    0.35E-06
   1      8    11.813     4.429    0.16E-03    0.13E-04    0.22E-06
   1      8    11.813     2.733    0.13E-03    0.10E-04    0.18E-06
 Optimization of the real space projectors (new method)

 maximal supplied QI-value         = 25.13
 optimisation between [QCUT,QGAM] = [ 11.81, 23.88] = [ 39.08,159.64] Ry 
 Optimized for a Real-space Cutoff    1.41 Angstroem

   l    n(q)    QCUT    max X(q) W(low)/X(q) W(high)/X(q)  e(spline) 
   0     10    11.813    79.467    0.48E-04    0.30E-04    0.67E-06
   0     10    11.813    66.151    0.47E-04    0.30E-04    0.67E-06
   1     10    11.813    20.169    0.11E-03    0.17E-03    0.11E-05
   1     10    11.813    14.454    0.11E-03    0.17E-03    0.11E-05
 Optimization of the real space projectors (new method)

 maximal supplied QI-value         = 25.13
 optimisation between [QCUT,QGAM] = [ 11.81, 23.88] = [ 39.08,159.64] Ry 
 Optimized for a Real-space Cutoff    1.18 Angstroem

   l    n(q)    QCUT    max X(q) W(low)/X(q) W(high)/X(q)  e(spline) 
   0      8    11.813   115.676    0.10E-03    0.16E-03    0.35E-06
   0      8    11.813    87.132    0.10E-03    0.16E-03    0.35E-06
   1      8    11.813     4.429    0.16E-03    0.13E-04    0.22E-06
   1      8    11.813     2.733    0.13E-03    0.10E-04    0.18E-06
 Optimization of the real space projectors (new method)

 maximal supplied QI-value         = 16.25
 optimisation between [QCUT,QGAM] = [ 11.86, 23.89] = [ 39.41,159.82] Ry 
 Optimized for a Real-space Cutoff    1.33 Angstroem

   l    n(q)    QCUT    max X(q) W(low)/X(q) W(high)/X(q)  e(spline) 
   1      9    11.864     3.262    0.48E-04    0.16E-03    0.14E-06
   1      9    11.864     5.741    0.74E-04    0.40E-03    0.35E-06
   2      9    11.864    60.438    0.17E-03    0.21E-03    0.26E-06
   2      9    11.864    55.380    0.17E-03    0.21E-03    0.27E-06
   0      9    11.864    80.273    0.40E-04    0.47E-04    0.12E-06
   0      9    11.864    36.654    0.35E-04    0.41E-04    0.11E-06
  PAW_PBE C 08Apr2002                   :
 energy of atom  1       EATOM= -147.1560
 kinetic energy error for atom=    0.0066 (will be added to EATOM!!)
  PAW_PBE N 08Apr2002                   :
 energy of atom  2       EATOM= -264.5486
 kinetic energy error for atom=    0.0116 (will be added to EATOM!!)
  PAW_PBE C 08Apr2002                   :
 energy of atom  3       EATOM= -147.1560
 kinetic energy error for atom=    0.0066 (will be added to EATOM!!)
  PAW_PBE Cr_pv 02Aug2007               :
 energy of atom  4       EATOM=-1647.9177
 kinetic energy error for atom=    0.0054 (will be added to EATOM!!)
 
 
 POSCAR: POSCAR-clean                            
  positions in cartesian coordinates
  No initial velocities read in
 exchange correlation table for  LEXCH =        8
   RHO(1)=    0.500       N(1)  =     2000
   RHO(2)=  100.500       N(2)  =     4000
 


--------------------------------------------------------------------------------------------------------


 ion  position               nearest neighbor table
   1  0.000  1.000  0.498-   2 1.42  60 1.42  70 1.43
   2  0.056  0.111  0.498-   1 1.42  13 1.42  15 1.43
   3  0.168  0.002  0.498-   4 1.42  62 1.43  60 1.43
   4  0.224  0.113  0.498-   3 1.42  15 1.42  17 1.44
   5  0.334  0.002  0.498-   6 1.42  62 1.43  64 1.43
   6  0.390  0.113  0.498-   5 1.42  19 1.42  17 1.44
   7  0.500  1.000  0.498-   8 1.42  64 1.42  66 1.43
   8  0.556  0.111  0.498-   7 1.42  21 1.42  19 1.43
   9  0.666  0.998  0.498-  10 1.42  66 1.42  68 1.44
  10  0.722  0.109  0.498-   9 1.42  23 1.43  21 1.43
  11  0.832  0.998  0.498-  12 1.42  70 1.42  68 1.44
  12  0.888  0.109  0.498-  11 1.42  23 1.43  13 1.43
  13  0.999  0.165  0.498-  14 1.42   2 1.42  12 1.43
  14  0.054  0.277  0.499-  13 1.42  25 1.42  27 1.43
  15  0.167  0.168  0.498-  16 1.42   4 1.42   2 1.43
  16  0.223  0.280  0.500-  15 1.42  27 1.43  29 1.44
  17  0.335  0.170  0.499-  18 1.42   4 1.44   6 1.44
  18  0.391  0.281  0.503-  17 1.42  31 1.44  29 1.44
  19  0.501  0.168  0.498-  20 1.42   6 1.42   8 1.43
  20  0.557  0.280  0.500-  19 1.42  33 1.43  31 1.44
  21  0.667  0.165  0.498-  22 1.42   8 1.42  10 1.43
  22  0.723  0.277  0.498-  21 1.42  35 1.42  33 1.43
  23  0.833  0.165  0.498-  24 1.42  10 1.43  12 1.43
  24  0.888  0.276  0.498-  23 1.42  25 1.42  35 1.43
  25  0.999  0.332  0.498-  14 1.42  26 1.42  24 1.42
  26  0.054  0.444  0.499-  39 1.42  37 1.42  25 1.42
  27  0.165  0.333  0.500-  28 1.42  16 1.43  14 1.43
  28  0.219  0.444  0.502-  41 1.41  27 1.42  39 1.42
  29  0.335  0.338  0.503-  30 1.41  18 1.44  16 1.44
  30  0.387  0.448  0.510-  41 1.41  29 1.41  71 2.00
  31  0.503  0.338  0.504-  32 1.41  18 1.44  20 1.44
  32  0.562  0.448  0.510-  43 1.41  31 1.41  71 2.00
  33  0.668  0.333  0.500-  34 1.42  20 1.43  22 1.43
  34  0.725  0.444  0.501-  43 1.41  33 1.42  45 1.42
  35  0.833  0.332  0.498-  22 1.42  36 1.42  24 1.43
  36  0.890  0.444  0.498-  45 1.42  37 1.42  35 1.42
  37  0.000  0.500  0.498-  36 1.42  26 1.42  38 1.42
  38  0.056  0.611  0.498-  47 1.42  49 1.42  37 1.42
  39  0.165  0.500  0.500-  26 1.42  28 1.42  40 1.42
  40  0.220  0.611  0.500-  49 1.42  51 1.42  39 1.42
  41  0.329  0.499  0.505-  30 1.41  28 1.41  42 1.44
  42  0.385  0.612  0.505-  53 1.41  51 1.41  41 1.44
  43  0.671  0.499  0.505-  32 1.41  34 1.41  44 1.44
  44  0.727  0.612  0.505-  55 1.41  57 1.41  43 1.44
  45  0.836  0.500  0.499-  36 1.42  34 1.42  46 1.42
  46  0.891  0.611  0.499-  47 1.42  57 1.42  45 1.42
  47  0.001  0.667  0.498-  46 1.42  38 1.42  48 1.42
  48  0.057  0.779  0.498-  59 1.42  47 1.42  61 1.43
  49  0.166  0.667  0.499-  40 1.42  38 1.42  50 1.42
  50  0.222  0.779  0.498-  63 1.42  49 1.42  61 1.42
  51  0.331  0.667  0.502-  42 1.41  52 1.42  40 1.42
  52  0.388  0.778  0.500-  51 1.42  65 1.43  63 1.43
  53  0.494  0.663  0.510-  42 1.41  54 1.41  71 2.00
  54  0.553  0.773  0.503-  53 1.41  67 1.44  65 1.44
  55  0.669  0.663  0.510-  44 1.41  56 1.41  71 2.00
  56  0.721  0.773  0.504-  55 1.41  67 1.44  69 1.44
  57  0.837  0.667  0.501-  44 1.41  58 1.42  46 1.42
  58  0.891  0.778  0.500-  57 1.42  69 1.42  59 1.43
  59  0.002  0.835  0.498-  60 1.42  48 1.42  58 1.43
  60  0.057  0.946  0.498-  59 1.42   1 1.42   3 1.43
  61  0.168  0.835  0.498-  62 1.42  50 1.42  48 1.43
  62  0.223  0.946  0.498-  61 1.42   3 1.43   5 1.43
  63  0.333  0.835  0.499-  64 1.42  50 1.42  52 1.43
  64  0.389  0.946  0.498-  63 1.42   7 1.42   5 1.43
  65  0.499  0.832  0.500-  66 1.42  52 1.43  54 1.44
  66  0.555  0.943  0.498-  65 1.42   9 1.42   7 1.43
  67  0.665  0.830  0.503-  68 1.42  56 1.44  54 1.44
  68  0.721  0.941  0.499-  67 1.42   9 1.44  11 1.44
  69  0.833  0.832  0.500-  70 1.42  58 1.42  56 1.44
  70  0.889  0.943  0.498-  69 1.42  11 1.42   1 1.43
  71  0.528  0.556  0.554-  55 2.00  32 2.00  53 2.00  30 2.00
 

IMPORTANT INFORMATION: All symmetrisations will be switched off!
NOSYMM: (Re-)initialisation of all symmetry stuff for point group C_1.

 
 
 KPOINTS: K-Points                                

Automatic generation of k-mesh.
Space group operators:
 irot       det(A)        alpha          n_x          n_y          n_z        tau_x        tau_y        tau_z
    1     1.000000     0.000000     1.000000     0.000000     0.000000     0.000000     0.000000     0.000000
 
 Subroutine IBZKPT returns following result:
 ===========================================
 
 Found      4 irreducible k-points:
 
 Following reciprocal coordinates:
            Coordinates               Weight
  0.000000  0.000000  0.000000      1.000000
  0.500000  0.000000  0.000000      1.000000
 -0.000000  0.500000  0.000000      1.000000
  0.500000  0.500000  0.000000      1.000000
 
 Following cartesian coordinates:
            Coordinates               Weight
  0.000000  0.000000  0.000000      1.000000
  0.033606  0.019589  0.000000      1.000000
 -0.000000  0.039178  0.000000      1.000000
  0.033606  0.058767  0.000000      1.000000
 


--------------------------------------------------------------------------------------------------------




 Dimension of arrays:
   k-points           NKPTS =      4   k-points in BZ     NKDIM =      4   number of bands    NBANDS=    184
   number of dos      NEDOS =    301   number of ions     NIONS =     71
   non local maximal  LDIM  =      6   non local SUM 2l+1 LMDIM =     18
   total plane-waves  NPLWV = ******
   max r-space proj   IRMAX =   7110   max aug-charges    IRDMAX=  21308
   dimension x,y,z NGX =   120 NGY =  120 NGZ =  120
   dimension x,y,z NGXF=   240 NGYF=  240 NGZF=  240
   support grid    NGXF=   240 NGYF=  240 NGZF=  240
   ions per type =               9   1  60   1
   NGX,Y,Z   is equivalent  to a cutoff of  13.41, 13.50, 13.30 a.u.
   NGXF,Y,Z  is equivalent  to a cutoff of  26.82, 27.01, 26.60 a.u.

 SYSTEM =  unknown system                          
 POSCAR =  POSCAR-clean                            

 Startparameter for this run:
   NWRITE =      2    write-flag & timer
   PREC   = accura    normal or accurate (medium, high low for compatibility)
   ISTART =      0    job   : 0-new  1-cont  2-samecut
   ICHARG =      2    charge: 1-file 2-atom 10-const
   ISPIN  =      2    spin polarized calculation?
   LNONCOLLINEAR =      F non collinear calculations
   LSORBIT =      F    spin-orbit coupling
   INIWAV =      1    electr: 0-lowe 1-rand  2-diag
   LASPH  =      F    aspherical Exc in radial PAW
   METAGGA=      F    non-selfconsistent MetaGGA calc.

 Electronic Relaxation 1
   ENCUT  =  550.0 eV  40.42 Ry    6.36 a.u.  28.45 28.25 28.68*2*pi/ulx,y,z
   ENINI  =  550.0     initial cutoff
   ENAUG  =  644.9 eV  augmentation charge cutoff
   NELM   =     50;   NELMIN=  2; NELMDL= -5     # of ELM steps 
   EDIFF  = 0.1E-04   stopping-criterion for ELM
   LREAL  =      T    real-space projection
   NLSPLINE    = F    spline interpolate recip. space projectors
   LCOMPAT=      F    compatible to vasp.4.4
   GGA_COMPAT  = T    GGA compatible to vasp.4.4-vasp.4.6
   LMAXPAW     = -100 max onsite density
   LMAXMIX     =    2 max onsite mixed and CHGCAR
   VOSKOWN=      0    Vosko Wilk Nusair interpolation
   ROPT   =   -0.00025  -0.00025  -0.00025  -0.00025
 Ionic relaxation
   EDIFFG = -.5E-01   stopping-criterion for IOM
   NSW    =    400    number of steps for IOM
   NBLOCK =      1;   KBLOCK =    400    inner block; outer block 
   IBRION =      2    ionic relax: 0-MD 1-quasi-New 2-CG
   NFREE  =      1    steps in history (QN), initial steepest desc. (CG)
   ISIF   =      3    stress and relaxation
   IWAVPR =     11    prediction:  0-non 1-charg 2-wave 3-comb
   ISYM   =      0    0-nonsym 1-usesym 2-fastsym
   LCORR  =      T    Harris-Foulkes like correction to forces

   POTIM  = 0.3000    time-step for ionic-motion
   TEIN   =    0.0    initial temperature
   TEBEG  =    0.0;   TEEND  =   0.0 temperature during run
   SMASS  =  -3.00    Nose mass-parameter (am)
   estimated Nose-frequenzy (Omega)   =  0.10E-29 period in steps =****** mass=  -0.506E-26a.u.
   SCALEE = 1.0000    scale energy and forces
   NPACO  =    256;   APACO  = 16.0  distance and # of slots for P.C.
   PSTRESS=    0.0 pullay stress

  Mass of Ions in am
   POMASS =  12.01 14.00 12.01 52.00
  Ionic Valenz
   ZVAL   =   4.00  5.00  4.00 12.00
  Atomic Wigner-Seitz radii
   RWIGS  =  -1.00 -1.00 -1.00 -1.00
  virtual crystal weights 
   VCA    =   1.00  1.00  1.00  1.00
   NELECT =     293.0000    total number of electrons
   NUPDOWN=      -1.0000    fix difference up-down

 DOS related values:
   EMIN   =  10.00;   EMAX   =-10.00  energy-range for DOS
   EFERMI =   0.00
   ISMEAR =     0;   SIGMA  =   0.10  broadening in eV -4-tet -1-fermi 0-gaus

 Electronic relaxation 2 (details)
   IALGO  =     68    algorithm
   LDIAG  =      T    sub-space diagonalisation (order eigenvalues)
   LSUBROT=      F    optimize rotation matrix (better conditioning)
   TURBO    =      0    0=normal 1=particle mesh
   IRESTART =      0    0=no restart 2=restart with 2 vectors
   NREBOOT  =      0    no. of reboots
   NMIN     =      0    reboot dimension
   EREF     =   0.00    reference energy to select bands
   IMIX   =      4    mixing-type and parameters
     AMIX     =   0.40;   BMIX     =  1.00
     AMIX_MAG =   1.60;   BMIX_MAG =  1.00
     AMIN     =   0.10
     WC   =   100.;   INIMIX=   1;  MIXPRE=   1;  MAXMIX= -45

 Intra band minimization:
   WEIMIN = 0.0010     energy-eigenvalue tresh-hold
   EBREAK =  0.14E-07  absolut break condition
   DEPER  =   0.30     relativ break condition  

   TIME   =   0.40     timestep for ELM

  volume/ion in A,a.u.               =      40.12       270.71
  Fermi-wavevector in a.u.,A,eV,Ry     =   0.767079  1.449569  8.005805  0.588410
  Thomas-Fermi vector in A             =   1.867557
 
 Write flags
   LWAVE        =      F    write WAVECAR
   LDOWNSAMPLE  =      F    k-point downsampling of WAVECAR
   LCHARG       =      F    write CHGCAR
   LVTOT        =      F    write LOCPOT, total local potential
   LVHAR        =      F    write LOCPOT, Hartree potential only
   LELF         =      F    write electronic localiz. function (ELF)
   LORBIT       =      0    0 simple, 1 ext, 2 COOP (PROOUT), +10 PAW based schemes


 Dipole corrections
   LMONO  =      F    monopole corrections only (constant potential shift)
   LDIPOL =      F    correct potential (dipole corrections)
   IDIPOL =      0    1-x, 2-y, 3-z, 4-all directions 
   EPSILON=  1.0000000 bulk dielectric constant

 Exchange correlation treatment:
   GGA     =    --    GGA type
   LEXCH   =     8    internal setting for exchange type
   VOSKOWN=      0    Vosko Wilk Nusair interpolation
   LHFCALC =     F    Hartree Fock is set to
   LHFONE  =     F    Hartree Fock one center treatment
   AEXX    =    0.0000 exact exchange contribution

 Linear response parameters
   LEPSILON=     F    determine dielectric tensor
   LRPA    =     F    only Hartree local field effects (RPA)
   LNABLA  =     F    use nabla operator in PAW spheres
   LVEL    =     F    velocity operator in full k-point grid
   LINTERFAST=   F  fast interpolation
   KINTER  =     0    interpolate to denser k-point grid
   CSHIFT  =0.1000    complex shift for real part using Kramers Kronig
   OMEGAMAX=  -1.0    maximum frequency
   DEG_THRESHOLD= 0.2000000E-02 threshold for treating states as degnerate
   RTIME   =   -0.100 relaxation time in fs
  (WPLASMAI=    0.000 imaginary part of plasma frequency in eV, 0.658/RTIME)
   DFIELD  = 0.0000000 0.0000000 0.0000000 field for delta impulse in time
 
 Orbital magnetization related:
   ORBITALMAG=     F  switch on orbital magnetization
   LCHIMAG   =     F  perturbation theory with respect to B field
   DQ        =  0.001000  dq finite difference perturbation B field
   LLRAUG    =     F  two centre corrections for induced B field



--------------------------------------------------------------------------------------------------------


 conjugate gradient relaxation of ions
 charge density and potential will be updated during run
 spin polarized calculation
 RMM-DIIS sequential band-by-band and
  variant of blocked Davidson during initial phase
 perform sub-space diagonalisation
    before iterative eigenvector-optimisation
 modified Broyden-mixing scheme, WC =      100.0
 initial mixing is a Kerker type mixing with AMIX =  0.4000 and BMIX =      1.0000
 Hartree-type preconditioning will be used
 using additional bands           37
 real space projection scheme for non local part
 use partial core corrections
 calculate Harris-corrections to forces 
   (improved forces if not selfconsistent)
 use gradient corrections 
 use of overlap-Matrix (Vanderbilt PP)
 Gauss-broadening in eV      SIGMA  =   0.10


--------------------------------------------------------------------------------------------------------


  energy-cutoff  :      550.00
  volume of cell :     2848.21
      direct lattice vectors                 reciprocal lattice vectors
    14.878307727  0.000105424  0.000000000     0.067211667  0.039178051  0.000000000
    -7.439153864 12.762195204  0.000000000    -0.000000555  0.078356102  0.000000000
     0.000000000  0.000000000 15.000000000     0.000000000  0.000000000  0.066666667

  length of vectors
    14.878307728 14.772089786 15.000000000     0.077796709  0.078356102  0.066666667


 
 k-points in units of 2pi/SCALE and weight: K-Points                                
   0.00000000  0.00000000  0.00000000       0.250
   0.03360583  0.01958903  0.00000000       0.250
  -0.00000028  0.03917805  0.00000000       0.250
   0.03360556  0.05876708  0.00000000       0.250
 
 k-points in reciprocal lattice and weights: K-Points                                
   0.00000000  0.00000000  0.00000000       0.250
   0.50000000  0.00000000  0.00000000       0.250
  -0.00000000  0.50000000  0.00000000       0.250
   0.50000000  0.50000000  0.00000000       0.250
 
 position of ions in fractional coordinates (direct lattice) 
   0.00014703  0.99993181  0.49766807
   0.05571316  0.11129367  0.49774774
   0.16803225  0.00210520  0.49753985
   0.22355821  0.11343998  0.49825115
   0.33432830  0.00207694  0.49777234
   0.39014706  0.11341551  0.49841838
   0.50002407  0.99989044  0.49775648
   0.55582710  0.11125266  0.49767590
   0.66571506  0.99774295  0.49825147
   0.72152612  0.10907882  0.49753824
   0.83231512  0.99776674  0.49841003
   0.88783929  0.10910686  0.49776801
   0.99908442  0.16549374  0.49784405
   0.05430809  0.27667161  0.49853746
   0.16734775  0.16806595  0.49834347
   0.22284185  0.27957445  0.49997583
   0.33528932  0.17029644  0.49941211
   0.39084341  0.28141813  0.50254970
   0.50097822  0.16802960  0.49842000
   0.55697129  0.27954076  0.49998817
   0.66664919  0.16545038  0.49752014
   0.72257294  0.27663324  0.49802908
   0.83255361  0.16485921  0.49764969
   0.88821716  0.27620991  0.49780056
   0.99906908  0.33222521  0.49838447
   0.05442247  0.44382388  0.49884723
   0.16531768  0.33288444  0.50001215
   0.21898612  0.44382270  0.50165224
   0.33514858  0.33773328  0.50339031
   0.38694525  0.44827387  0.50958670
   0.50284791  0.33770682  0.50360105
   0.56160602  0.44823797  0.50998391
   0.66778145  0.33285443  0.49963749
   0.72504010  0.44380782  0.50114295
   0.83335701  0.33221195  0.49791518
   0.88957865  0.44380677  0.49825237
   0.00003314  0.49990030  0.49835048
   0.05573614  0.61130743  0.49834565
   0.16452790  0.49985599  0.50032235
   0.22027264  0.61134265  0.50031499
   0.32877881  0.49923631  0.50514604
   0.38513300  0.61194665  0.50514739
   0.67071104  0.49923365  0.50517220
   0.72707059  0.61195035  0.50517224
   0.83551700  0.49986026  0.49948453
   0.89125350  0.61133457  0.49948422
   0.00136430  0.66739252  0.49824937
   0.05673614  0.77898562  0.49790902
   0.16620335  0.66738054  0.49883406
   0.22244721  0.77897560  0.49837060
   0.33076298  0.66736579  0.50164604
   0.38803591  0.77830247  0.50000539
   0.49425975  0.66291375  0.50958718
   0.55300964  0.77344715  0.50338828
   0.66896610  0.66295341  0.50998288
   0.72073432  0.77348097  0.50359479
   0.83682433  0.66738081  0.50114212
   0.89051054  0.77833045  0.49963539
   0.00151950  0.83455528  0.49802741
   0.05677874  0.94573836  0.49751926
   0.16759972  0.83498348  0.49779087
   0.22328727  0.94632847  0.49764984
   0.33324173  0.83452222  0.49853136
   0.38919606  0.94569806  0.49784785
   0.49886656  0.83160652  0.49997424
   0.55488261  0.94311446  0.49834783
   0.66501623  0.82976534  0.50254304
   0.72058356  0.94088512  0.49940688
   0.83301728  0.83164625  0.49998031
   0.88852543  0.94315192  0.49840894
   0.52788678  0.55561308  0.55407295
 
 position of ions in cartesian coordinates  (Angst):
  -7.43645893 12.76132490  7.46502101
   0.00098677  1.42035737  7.46621609
   2.48437460  0.02688469  7.46309769
   2.48227038  1.44776676  7.47376727
   4.95878870  0.02654158  7.46658504
   4.96101252  1.44747206  7.47627575
   0.00117320 12.76084966  7.46634727
   7.44214093  1.41988678  7.46513856
   2.48235028 12.73346045  7.47377203
   9.92363354  1.39216125  7.46307356
   4.96090025 12.73378160  7.47615045
  12.39788345  1.39253665  7.46652020
  13.63355202  2.11216869  7.46766080
  -1.25019027  3.53094287  7.47806186
   1.23958287  2.14490807  7.47515208
   1.23571236  3.56800714  7.49963746
   3.72167632  2.17339173  7.49118168
   3.72157576  3.59155433  7.53824552
   6.20371007  2.14447940  7.47630003
   6.20724356  3.56761241  7.49982262
   8.68780104  2.11158030  7.46280215
   8.69274532  3.53052356  7.47043619
  11.16057575  2.10405319  7.46474541
  11.16040021  3.52513843  7.46700843
  12.39298273  4.24002833  7.47576708
  -2.49195986  5.66417272  7.48270852
  -0.01673121  4.24835367  7.50018218
  -0.04352248  5.66417505  7.52478359
   2.47399392  4.31025334  7.55085470
   2.42231217  5.72099937  7.64380057
   4.96927299  4.30993342  7.55401582
   5.02123589  5.72055973  7.64975858
   7.45930259  4.24802358  7.49456242
   7.48581505  5.66403852  7.51714419
   9.92756627  4.23984160  7.46872767
   9.93387816  5.66404236  7.47378561
  -3.71834223  6.37982525  7.47525727
  -3.71835051  7.80163060  7.47518475
  -1.27060894  6.37927707  7.50483528
  -1.27058799  7.80209747  7.50472492
   1.17777658  6.37138591  7.57719062
   1.17776199  7.80982318  7.57721079
   6.26516932  6.37138797  7.57758296
   6.26518706  7.80990654  7.57758361
   8.71254167  6.37940228  7.49226792
   8.71253189  7.80206507  7.49226324
  -4.94453714  8.51739379  7.47374059
  -4.95085604  9.94157246  7.46863529
  -2.49192199  8.51725823  7.48251084
  -2.48528121  9.94146208  7.47555906
  -0.04344336  8.51708741  7.52469062
  -0.01659412  9.93288892  7.50008080
   2.42223119  8.46028680  7.64380763
   2.47405524  9.87094181  7.55082413
   5.02127100  8.46081135  7.64974323
   4.96926315  9.87139105  7.55392179
   7.48578134  8.51733237  7.51713176
   7.45916989  9.93329897  7.49453080
  -6.18577746 10.65075751  7.47041111
  -6.19072161 12.06970350  7.46278894
  -3.71797037 10.65623981  7.46686302
  -3.71774635 12.07725221  7.46474766
  -1.25006613 10.65037063  7.47797042
  -1.24461459 12.06922431  7.46771775
   1.23584141 10.61317732  7.49961357
   1.23974067 12.03626939  7.47521740
   3.72156413 10.58969736  7.53814562
   3.72167477 12.00783549  7.49110317
   6.20714301 10.61371955  7.49970466
   6.20350242 12.03678263  7.47613410
   3.72077071  7.09089829  8.31109430
 


--------------------------------------------------------------------------------------------------------


 k-point  1 :   0.0000 0.0000 0.0000  plane waves:   83445
 k-point  2 :   0.5000 0.0000 0.0000  plane waves:   83448
 k-point  3 :  -0.0000 0.5000 0.0000  plane waves:   83436
 k-point  4 :   0.5000 0.5000 0.0000  plane waves:   83444

 maximum and minimum number of plane-waves per node :      6984     6935

 maximum number of plane-waves:     83448
 maximum index in each direction: 
   IXMAX=   28   IYMAX=   28   IZMAX=   28
   IXMIN=  -28   IYMIN=  -28   IZMIN=  -28


 real space projection operators:
  total allocation   :      18579.61 KBytes
  max/ min on nodes  :       1558.11       1534.59


 parallel 3D FFT for wavefunctions:
    minimum data exchange during FFTs selected (reduces bandwidth)
 parallel 3D FFT for charge:
    minimum data exchange during FFTs selected (reduces bandwidth)


 total amount of memory used by VASP MPI-rank0   135466. kBytes
=======================================================================

   base      :      30000. kBytes
   nonlr-proj:      10477. kBytes
   fftplans  :      14072. kBytes
   grid      :      39398. kBytes
   one-center:        186. kBytes
   wavefun   :      41333. kBytes
 
     INWAV:  cpu time    0.0000: real time    0.0000
 Broyden mixing: mesh for mixing (old mesh)
   NGX = 57   NGY = 57   NGZ = 57
  (NGX  =240   NGY  =240   NGZ  =240)
  gives a total of 185193 points

 initial charge density was supplied:
 charge density of overlapping atoms calculated
 number of electron     293.0000000 magnetization       1.0000000
 keeping initial charge density in first step


--------------------------------------------------------------------------------------------------------


 Maximum index for non-local projection operator          565
 Maximum index for augmentation-charges          402 (set IRDMAX)


--------------------------------------------------------------------------------------------------------


 First call to EWALD:  gamma=   0.125
 Maximum number of real-space cells 3x 3x 3
 Maximum number of reciprocal cells 3x 3x 3

    FEWALD:  cpu time    0.0034: real time    0.0036


--------------------------------------- Iteration      1(   1)  ---------------------------------------


    POTLOK:  cpu time    0.5325: real time    0.5693
    SETDIJ:  cpu time    0.0172: real time    0.0225
     EDDAV:  cpu time   16.8397: real time   17.0031
       DOS:  cpu time    0.0013: real time    0.0013
    --------------------------------------------
      LOOP:  cpu time   17.3908: real time   17.5961

 eigenvalue-minimisations  :  3256
 total energy-change (2. order) : 0.2735322E+04  (-0.1174031E+05)
 number of electron     293.0000000 magnetization       1.0000000
 augmentation part      293.0000000 magnetization       1.0000000

 Free energy of the ion-electron system (eV)
  ---------------------------------------------------
  alpha Z        PSCENC =       156.95040625
  Ewald energy   TEWEN  =     30374.27352349
  -Hartree energ DENC   =    -39540.30371245
  -exchange      EXHF   =         0.00000000
  -V(xc)+E(xc)   XCENC  =       982.53820293
  PAW double counting   =      9000.30529238    -9089.18527416
  entropy T*S    EENTRO =        -0.11398134
  eigenvalues    EBANDS =     -1214.89989062
  atomic energy  EATOM  =     12065.75791449
  Solvation  Ediel_sol  =         0.00000000
  ---------------------------------------------------
  free energy    TOTEN  =      2735.32248097 eV

  energy without entropy =     2735.43646230  energy(sigma->0) =     2735.37947164


--------------------------------------------------------------------------------------------------------




--------------------------------------- Iteration      1(   2)  ---------------------------------------


     EDDAV:  cpu time   21.7299: real time   21.9723
       DOS:  cpu time    0.0009: real time    0.0009
    --------------------------------------------
      LOOP:  cpu time   21.7308: real time   21.9733

 eigenvalue-minimisations  :  4320
 total energy-change (2. order) :-0.2908981E+04  (-0.2780732E+04)
 number of electron     293.0000000 magnetization       1.0000000
 augmentation part      293.0000000 magnetization       1.0000000

 Free energy of the ion-electron system (eV)
  ---------------------------------------------------
  alpha Z        PSCENC =       156.95040625
  Ewald energy   TEWEN  =     30374.27352349
  -Hartree energ DENC   =    -39540.30371245
  -exchange      EXHF   =         0.00000000
  -V(xc)+E(xc)   XCENC  =       982.53820293
  PAW double counting   =      9000.30529238    -9089.18527416
  entropy T*S    EENTRO =        -0.03186572
  eigenvalues    EBANDS =     -4123.96286761
  atomic energy  EATOM  =     12065.75791449
  Solvation  Ediel_sol  =         0.00000000
  ---------------------------------------------------
  free energy    TOTEN  =      -173.65838041 eV

  energy without entropy =     -173.62651469  energy(sigma->0) =     -173.64244755


--------------------------------------------------------------------------------------------------------




--------------------------------------- Iteration      1(   3)  ---------------------------------------


     EDDAV:  cpu time   18.6026: real time   18.8046
       DOS:  cpu time    0.0010: real time    0.0009
    --------------------------------------------
      LOOP:  cpu time   18.6035: real time   18.8056

 eigenvalue-minimisations  :  3544
 total energy-change (2. order) :-0.5106721E+03  (-0.5077293E+03)
 number of electron     293.0000000 magnetization       1.0000000
 augmentation part      293.0000000 magnetization       1.0000000

 Free energy of the ion-electron system (eV)
  ---------------------------------------------------
  alpha Z        PSCENC =       156.95040625
  Ewald energy   TEWEN  =     30374.27352349
  -Hartree energ DENC   =    -39540.30371245
  -exchange      EXHF   =         0.00000000
  -V(xc)+E(xc)   XCENC  =       982.53820293
  PAW double counting   =      9000.30529238    -9089.18527416
  entropy T*S    EENTRO =        -0.03809895
  eigenvalues    EBANDS =     -4634.62871772
  atomic energy  EATOM  =     12065.75791449
  Solvation  Ediel_sol  =         0.00000000
  ---------------------------------------------------
  free energy    TOTEN  =      -684.33046374 eV

  energy without entropy =     -684.29236479  energy(sigma->0) =     -684.31141427


--------------------------------------------------------------------------------------------------------




--------------------------------------- Iteration      1(   4)  ---------------------------------------


     EDDAV:  cpu time   18.5959: real time   18.7623
       DOS:  cpu time    0.0009: real time    0.0009
    --------------------------------------------
      LOOP:  cpu time   18.5968: real time   18.7633

 eigenvalue-minimisations  :  3544
 total energy-change (2. order) :-0.1941066E+02  (-0.1926069E+02)
 number of electron     293.0000000 magnetization       1.0000000
 augmentation part      293.0000000 magnetization       1.0000000

 Free energy of the ion-electron system (eV)
  ---------------------------------------------------
  alpha Z        PSCENC =       156.95040625
  Ewald energy   TEWEN  =     30374.27352349
  -Hartree energ DENC   =    -39540.30371245
  -exchange      EXHF   =         0.00000000
  -V(xc)+E(xc)   XCENC  =       982.53820293
  PAW double counting   =      9000.30529238    -9089.18527416
  entropy T*S    EENTRO =        -0.03998425
  eigenvalues    EBANDS =     -4654.03749562
  atomic energy  EATOM  =     12065.75791449
  Solvation  Ediel_sol  =         0.00000000
  ---------------------------------------------------
  free energy    TOTEN  =      -703.74112694 eV

  energy without entropy =     -703.70114269  energy(sigma->0) =     -703.72113481


--------------------------------------------------------------------------------------------------------




--------------------------------------- Iteration      1(   5)  ---------------------------------------


     EDDAV:  cpu time   20.5201: real time   20.7933
       DOS:  cpu time    0.0010: real time    0.0010
    CHARGE:  cpu time    0.9720: real time    0.9866
    MIXING:  cpu time    0.0093: real time    0.0119
    --------------------------------------------
      LOOP:  cpu time   21.5024: real time   21.7929

 eigenvalue-minimisations  :  4064
 total energy-change (2. order) :-0.6161539E+00  (-0.6141764E+00)
 number of electron     292.9999998 magnetization       0.7752939
 augmentation part       11.6653399 magnetization       0.7578988

 Broyden mixing:
  rms(total) = 0.46547E+01    rms(broyden)= 0.46543E+01
  rms(prec ) = 0.54198E+01
  weight for this iteration     100.00

 Free energy of the ion-electron system (eV)
  ---------------------------------------------------
  alpha Z        PSCENC =       156.95040625
  Ewald energy   TEWEN  =     30374.27352349
  -Hartree energ DENC   =    -39540.30371245
  -exchange      EXHF   =         0.00000000
  -V(xc)+E(xc)   XCENC  =       982.53820293
  PAW double counting   =      9000.30529238    -9089.18527416
  entropy T*S    EENTRO =        -0.04034217
  eigenvalues    EBANDS =     -4654.65329163
  atomic energy  EATOM  =     12065.75791449
  Solvation  Ediel_sol  =         0.00000000
  ---------------------------------------------------
  free energy    TOTEN  =      -704.35728087 eV

  energy without entropy =     -704.31693870  energy(sigma->0) =     -704.33710978


--------------------------------------------------------------------------------------------------------




--------------------------------------- Iteration      1(   6)  ---------------------------------------


    POTLOK:  cpu time    0.5280: real time    0.5455
    SETDIJ:  cpu time    0.0148: real time    0.0158
    EDDIAG:  cpu time    3.2831: real time    3.3154
  RMM-DIIS:  cpu time   17.7117: real time   17.8647
    ORTHCH:  cpu time    0.3305: real time    0.3320
       DOS:  cpu time    0.0010: real time    0.0010
    CHARGE:  cpu time    1.0235: real time    1.0407
    MIXING:  cpu time    0.0104: real time    0.0116
    --------------------------------------------
      LOOP:  cpu time   22.9031: real time   23.1267

 eigenvalue-minimisations  :  4095
 total energy-change (2. order) :-0.2806765E+02  (-0.5348893E+02)
 number of electron     293.0000007 magnetization       0.7208309
 augmentation part       17.3510451 magnetization       0.9391245

 Broyden mixing:
  rms(total) = 0.84325E+01    rms(broyden)= 0.84324E+01
  rms(prec ) = 0.93129E+01
  weight for this iteration     100.00

 eigenvalues of (default mixing * dielectric matrix)
  average eigenvalue GAMMA=   0.2141
  0.2141

 Free energy of the ion-electron system (eV)
  ---------------------------------------------------
  alpha Z        PSCENC =       156.95040625
  Ewald energy   TEWEN  =     30374.27352349
  -Hartree energ DENC   =    -39832.55081537
  -exchange      EXHF   =         0.00000000
  -V(xc)+E(xc)   XCENC  =       996.31523646
  PAW double counting   =     15150.71598874   -15239.42798302
  entropy T*S    EENTRO =        -0.04744752
  eigenvalues    EBANDS =     -4404.41175399
  atomic energy  EATOM  =     12065.75791449
  Solvation  Ediel_sol  =         0.00000000
  ---------------------------------------------------
  free energy    TOTEN  =      -732.42493047 eV

  energy without entropy =     -732.37748295  energy(sigma->0) =     -732.40120671


--------------------------------------------------------------------------------------------------------




--------------------------------------- Iteration      1(   7)  ---------------------------------------


    POTLOK:  cpu time    0.5289: real time    0.5386
    SETDIJ:  cpu time    0.0131: real time    0.0154
    EDDIAG:  cpu time    3.2402: real time    3.2738
  RMM-DIIS:  cpu time   13.3260: real time   13.4380
    ORTHCH:  cpu time    0.2737: real time    0.2886
       DOS:  cpu time    0.0009: real time    0.0009
    CHARGE:  cpu time    0.9817: real time    0.9956
    MIXING:  cpu time    0.0098: real time    0.0102
    --------------------------------------------
      LOOP:  cpu time   18.3743: real time   18.5611

 eigenvalue-minimisations  :  3054
 total energy-change (2. order) : 0.6984216E+02  (-0.5726651E+01)
 number of electron     293.0000005 magnetization       0.6191966
 augmentation part       15.3084947 magnetization       0.6223014

 Broyden mixing:
  rms(total) = 0.32421E+01    rms(broyden)= 0.32420E+01
  rms(prec ) = 0.39033E+01
  weight for this iteration     100.00

 eigenvalues of (default mixing * dielectric matrix)
  average eigenvalue GAMMA=   0.4610
  0.4610  0.4610

 Free energy of the ion-electron system (eV)
  ---------------------------------------------------
  alpha Z        PSCENC =       156.95040625
  Ewald energy   TEWEN  =     30374.27352349
  -Hartree energ DENC   =    -39953.70416008
  -exchange      EXHF   =         0.00000000
  -V(xc)+E(xc)   XCENC  =      1000.83349890
  PAW double counting   =     16732.19856822   -16827.69476940
  entropy T*S    EENTRO =        -0.00010787
  eigenvalues    EBANDS =     -4211.19764111
  atomic energy  EATOM  =     12065.75791449
  Solvation  Ediel_sol  =         0.00000000
  ---------------------------------------------------
  free energy    TOTEN  =      -662.58276711 eV

  energy without entropy =     -662.58265924  energy(sigma->0) =     -662.58271317


--------------------------------------------------------------------------------------------------------




--------------------------------------- Iteration      1(   8)  ---------------------------------------


    POTLOK:  cpu time    0.5336: real time    0.5394
    SETDIJ:  cpu time    0.0149: real time    0.0151
    EDDIAG:  cpu time    3.2229: real time    3.2509
  RMM-DIIS:  cpu time   13.6237: real time   13.7217
    ORTHCH:  cpu time    0.4696: real time    0.5000
       DOS:  cpu time    0.0011: real time    0.0010
    CHARGE:  cpu time    1.0222: real time    1.0343
    MIXING:  cpu time    0.0114: real time    0.0116
    --------------------------------------------
      LOOP:  cpu time   18.8993: real time   19.0740

 eigenvalue-minimisations  :  3120
 total energy-change (2. order) : 0.8434176E-01  (-0.2218006E+01)
 number of electron     292.9999999 magnetization       0.3487400
 augmentation part       11.2286524 magnetization       0.3143787

 Broyden mixing:
  rms(total) = 0.28434E+01    rms(broyden)= 0.28432E+01
  rms(prec ) = 0.34883E+01
  weight for this iteration     100.00

 eigenvalues of (default mixing * dielectric matrix)
  average eigenvalue GAMMA=   0.8435
  1.8547  0.3379  0.3379

 Free energy of the ion-electron system (eV)
  ---------------------------------------------------
  alpha Z        PSCENC =       156.95040625
  Ewald energy   TEWEN  =     30374.27352349
  -Hartree energ DENC   =    -40132.86870616
  -exchange      EXHF   =         0.00000000
  -V(xc)+E(xc)   XCENC  =      1007.48773675
  PAW double counting   =     19598.83541090   -19698.34877365
  entropy T*S    EENTRO =        -0.03222485
  eigenvalues    EBANDS =     -4034.55371256
  atomic energy  EATOM  =     12065.75791449
  Solvation  Ediel_sol  =         0.00000000
  ---------------------------------------------------
  free energy    TOTEN  =      -662.49842534 eV

  energy without entropy =     -662.46620049  energy(sigma->0) =     -662.48231292


--------------------------------------------------------------------------------------------------------




--------------------------------------- Iteration      1(   9)  ---------------------------------------


    POTLOK:  cpu time    0.5373: real time    0.5413
    SETDIJ:  cpu time    0.0151: real time    0.0153
    EDDIAG:  cpu time    3.2327: real time    3.2588
  RMM-DIIS:  cpu time   12.9664: real time   13.0684
    ORTHCH:  cpu time    0.2929: real time    0.2946
       DOS:  cpu time    0.0010: real time    0.0010
    CHARGE:  cpu time    1.0203: real time    1.0297
    MIXING:  cpu time    0.0104: real time    0.0105
    --------------------------------------------
      LOOP:  cpu time   18.0762: real time   18.2196

 eigenvalue-minimisations  :  2972
 total energy-change (2. order) : 0.1532878E+02  (-0.1976790E+01)
 number of electron     293.0000002 magnetization       0.2590978
 augmentation part       12.1522632 magnetization       0.2772488

 Broyden mixing:
  rms(total) = 0.11841E+01    rms(broyden)= 0.11839E+01
  rms(prec ) = 0.13430E+01
  weight for this iteration     100.00

 eigenvalues of (default mixing * dielectric matrix)
  average eigenvalue GAMMA=   0.9103
  2.2181  0.7229  0.3501  0.3501

 Free energy of the ion-electron system (eV)
  ---------------------------------------------------
  alpha Z        PSCENC =       156.95040625
  Ewald energy   TEWEN  =     30374.27352349
  -Hartree energ DENC   =    -40437.85478916
  -exchange      EXHF   =         0.00000000
  -V(xc)+E(xc)   XCENC  =      1020.32991741
  PAW double counting   =     27768.92695947   -27871.22539817
  entropy T*S    EENTRO =        -0.00320093
  eigenvalues    EBANDS =     -3724.32497632
  atomic energy  EATOM  =     12065.75791449
  Solvation  Ediel_sol  =         0.00000000
  ---------------------------------------------------
  free energy    TOTEN  =      -647.16964348 eV

  energy without entropy =     -647.16644255  energy(sigma->0) =     -647.16804301


--------------------------------------------------------------------------------------------------------




--------------------------------------- Iteration      1(  10)  ---------------------------------------


    POTLOK:  cpu time    0.5307: real time    0.5354
    SETDIJ:  cpu time    0.0151: real time    0.0153
    EDDIAG:  cpu time    3.2281: real time    3.2536
  RMM-DIIS:  cpu time   13.1222: real time   13.2439
    ORTHCH:  cpu time    0.4801: real time    0.4914
       DOS:  cpu time    0.0009: real time    0.0009
    CHARGE:  cpu time    0.9820: real time    0.9941
    MIXING:  cpu time    0.0121: real time    0.0122
    --------------------------------------------
      LOOP:  cpu time   18.3711: real time   18.5468

 eigenvalue-minimisations  :  2994
 total energy-change (2. order) :-0.3951213E+00  (-0.3296487E+00)
 number of electron     293.0000005 magnetization       0.2051143
 augmentation part       13.7825558 magnetization       0.2302641

 Broyden mixing:
  rms(total) = 0.14625E+01    rms(broyden)= 0.14621E+01
  rms(prec ) = 0.18239E+01
  weight for this iteration     100.00

 eigenvalues of (default mixing * dielectric matrix)
  average eigenvalue GAMMA=   0.9174
  2.3348  1.0841  0.3460  0.3460  0.4764

 Free energy of the ion-electron system (eV)
  ---------------------------------------------------
  alpha Z        PSCENC =       156.95040625
  Ewald energy   TEWEN  =     30374.27352349
  -Hartree energ DENC   =    -40483.43659267
  -exchange      EXHF   =         0.00000000
  -V(xc)+E(xc)   XCENC  =      1021.36922515
  PAW double counting   =     29339.22598924   -29440.41451235
  entropy T*S    EENTRO =        -0.00225207
  eigenvalues    EBANDS =     -3681.28846627
  atomic energy  EATOM  =     12065.75791449
  Solvation  Ediel_sol  =         0.00000000
  ---------------------------------------------------
  free energy    TOTEN  =      -647.56476474 eV

  energy without entropy =     -647.56251266  energy(sigma->0) =     -647.56363870


--------------------------------------------------------------------------------------------------------




--------------------------------------- Iteration      1(  11)  ---------------------------------------


    POTLOK:  cpu time    0.5450: real time    0.5547
    SETDIJ:  cpu time    0.0151: real time    0.0153
    EDDIAG:  cpu time    3.2044: real time    3.2383
  RMM-DIIS:  cpu time   13.6633: real time   13.7716
    ORTHCH:  cpu time    0.3684: real time    0.3692
       DOS:  cpu time    0.0010: real time    0.0010
    CHARGE:  cpu time    1.0120: real time    1.0216
    MIXING:  cpu time    0.0112: real time    0.0112
    --------------------------------------------
      LOOP:  cpu time   18.8204: real time   18.9828

 eigenvalue-minimisations  :  3143
 total energy-change (2. order) : 0.1042233E+01  (-0.4161078E-01)
 number of electron     293.0000002 magnetization       0.1405638
 augmentation part       12.5431502 magnetization       0.1209846

 Broyden mixing:
  rms(total) = 0.77228E+00    rms(broyden)= 0.77171E+00
  rms(prec ) = 0.82037E+00
  weight for this iteration     100.00

 eigenvalues of (default mixing * dielectric matrix)
  average eigenvalue GAMMA=   0.9618
  2.0451  2.0451  0.6333  0.3442  0.3442  0.3589

 Free energy of the ion-electron system (eV)
  ---------------------------------------------------
  alpha Z        PSCENC =       156.95040625
  Ewald energy   TEWEN  =     30374.27352349
  -Hartree energ DENC   =    -40516.09415206
  -exchange      EXHF   =         0.00000000
  -V(xc)+E(xc)   XCENC  =      1021.78415752
  PAW double counting   =     29983.60080969   -30084.12036692
  entropy T*S    EENTRO =        -0.02959090
  eigenvalues    EBANDS =     -3648.64523310
  atomic energy  EATOM  =     12065.75791449
  Solvation  Ediel_sol  =         0.00000000
  ---------------------------------------------------
  free energy    TOTEN  =      -646.52253155 eV

  energy without entropy =     -646.49294065  energy(sigma->0) =     -646.50773610


--------------------------------------------------------------------------------------------------------




--------------------------------------- Iteration      1(  12)  ---------------------------------------


    POTLOK:  cpu time    0.5730: real time    0.5784
    SETDIJ:  cpu time    0.0211: real time    0.0212
    EDDIAG:  cpu time    3.2222: real time    3.2461
  RMM-DIIS:  cpu time   12.8081: real time   12.9145
    ORTHCH:  cpu time    0.4063: real time    0.4071
       DOS:  cpu time    0.0009: real time    0.0009
    CHARGE:  cpu time    1.0540: real time    1.0631
    MIXING:  cpu time    0.0124: real time    0.0127
    --------------------------------------------
      LOOP:  cpu time   18.0980: real time   18.2441

 eigenvalue-minimisations  :  2944
 total energy-change (2. order) : 0.1468561E+00  (-0.1583492E-01)
 number of electron     293.0000003 magnetization       0.1625807
 augmentation part       12.8548445 magnetization      -0.2034373

 Broyden mixing:
  rms(total) = 0.63809E+00    rms(broyden)= 0.63784E+00
  rms(prec ) = 0.65329E+00
  weight for this iteration     100.00

 eigenvalues of (default mixing * dielectric matrix)
  average eigenvalue GAMMA=   0.8544
  2.1030  2.1030  0.5482  0.3455  0.3455  0.3652  0.1705

 Free energy of the ion-electron system (eV)
  ---------------------------------------------------
  alpha Z        PSCENC =       156.95040625
  Ewald energy   TEWEN  =     30374.27352349
  -Hartree energ DENC   =    -40541.96974266
  -exchange      EXHF   =         0.00000000
  -V(xc)+E(xc)   XCENC  =      1021.37800518
  PAW double counting   =     30423.01114242   -30522.01685793
  entropy T*S    EENTRO =        -0.05213934
  eigenvalues    EBANDS =     -3623.70792738
  atomic energy  EATOM  =     12065.75791449
  Solvation  Ediel_sol  =         0.00000000
  ---------------------------------------------------
  free energy    TOTEN  =      -646.37567548 eV

  energy without entropy =     -646.32353614  energy(sigma->0) =     -646.34960581


--------------------------------------------------------------------------------------------------------




--------------------------------------- Iteration      1(  13)  ---------------------------------------


    POTLOK:  cpu time    0.5289: real time    0.5326
    SETDIJ:  cpu time    0.0152: real time    0.0153
    EDDIAG:  cpu time    3.2570: real time    3.2893
  RMM-DIIS:  cpu time   13.0228: real time   13.1154
    ORTHCH:  cpu time    0.2553: real time    0.2655
       DOS:  cpu time    0.0009: real time    0.0009
    CHARGE:  cpu time    0.9796: real time    0.9884
    MIXING:  cpu time    0.0127: real time    0.0127
    --------------------------------------------
      LOOP:  cpu time   18.0724: real time   18.2201

 eigenvalue-minimisations  :  2986
 total energy-change (2. order) :-0.1121103E+00  (-0.2959728E-02)
 number of electron     293.0000003 magnetization       0.0545342
 augmentation part       12.9430341 magnetization      -0.4207896

 Broyden mixing:
  rms(total) = 0.72090E+00    rms(broyden)= 0.72084E+00
  rms(prec ) = 0.74884E+00
  weight for this iteration     100.00

 eigenvalues of (default mixing * dielectric matrix)
  average eigenvalue GAMMA=   0.8642
  2.1557  2.1557  0.3446  0.3446  0.6402  0.5318  0.3417  0.3992

 Free energy of the ion-electron system (eV)
  ---------------------------------------------------
  alpha Z        PSCENC =       156.95040625
  Ewald energy   TEWEN  =     30374.27352349
  -Hartree energ DENC   =    -40544.61340493
  -exchange      EXHF   =         0.00000000
  -V(xc)+E(xc)   XCENC  =      1021.39924615
  PAW double counting   =     30432.90538038   -30531.80298251
  entropy T*S    EENTRO =        -0.02833777
  eigenvalues    EBANDS =     -3621.32953131
  atomic energy  EATOM  =     12065.75791449
  Solvation  Ediel_sol  =         0.00000000
  ---------------------------------------------------
  free energy    TOTEN  =      -646.48778577 eV

  energy without entropy =     -646.45944800  energy(sigma->0) =     -646.47361688


--------------------------------------------------------------------------------------------------------




--------------------------------------- Iteration      1(  14)  ---------------------------------------


    POTLOK:  cpu time    0.5287: real time    0.5331
    SETDIJ:  cpu time    0.0148: real time    0.0149
    EDDIAG:  cpu time    3.2299: real time    3.2548
  RMM-DIIS:  cpu time   12.9962: real time   13.0974
    ORTHCH:  cpu time    0.2769: real time    0.2781
       DOS:  cpu time    0.0010: real time    0.0010
    CHARGE:  cpu time    0.9776: real time    0.9869
    MIXING:  cpu time    0.0129: real time    0.0134
    --------------------------------------------
      LOOP:  cpu time   18.0380: real time   18.1796

 eigenvalue-minimisations  :  2976
 total energy-change (2. order) : 0.1908435E+00  (-0.3336022E-02)
 number of electron     293.0000003 magnetization       0.0552560
 augmentation part       13.0073139 magnetization      -0.2772742

 Broyden mixing:
  rms(total) = 0.69654E+00    rms(broyden)= 0.69652E+00
  rms(prec ) = 0.74265E+00
  weight for this iteration     100.00

 eigenvalues of (default mixing * dielectric matrix)
  average eigenvalue GAMMA=   0.8421
  2.2093  2.2093  0.4692  0.4692  0.6765  0.3442  0.3442  0.5111  0.3460

 Free energy of the ion-electron system (eV)
  ---------------------------------------------------
  alpha Z        PSCENC =       156.95040625
  Ewald energy   TEWEN  =     30374.27352349
  -Hartree energ DENC   =    -40547.01376908
  -exchange      EXHF   =         0.00000000
  -V(xc)+E(xc)   XCENC  =      1021.40431972
  PAW double counting   =     30519.43273251   -30618.22095323
  entropy T*S    EENTRO =        -0.05839378
  eigenvalues    EBANDS =     -3618.82272261
  atomic energy  EATOM  =     12065.75791449
  Solvation  Ediel_sol  =         0.00000000
  ---------------------------------------------------
  free energy    TOTEN  =      -646.29694224 eV

  energy without entropy =     -646.23854846  energy(sigma->0) =     -646.26774535


--------------------------------------------------------------------------------------------------------




--------------------------------------- Iteration      1(  15)  ---------------------------------------


    POTLOK:  cpu time    0.5317: real time    0.5361
    SETDIJ:  cpu time    0.0151: real time    0.0155
    EDDIAG:  cpu time    3.2442: real time    3.2698
  RMM-DIIS:  cpu time   14.3079: real time   14.4169
    ORTHCH:  cpu time    0.2875: real time    0.2906
       DOS:  cpu time    0.0010: real time    0.0010
    CHARGE:  cpu time    0.9832: real time    0.9924
    MIXING:  cpu time    0.0133: real time    0.0134
    --------------------------------------------
      LOOP:  cpu time   19.3838: real time   19.5357

 eigenvalue-minimisations  :  3275
 total energy-change (2. order) :-0.1992844E-01  (-0.4024611E-03)
 number of electron     293.0000003 magnetization       0.1210635
 augmentation part       13.0083111 magnetization      -0.1084452

 Broyden mixing:
  rms(total) = 0.61981E+00    rms(broyden)= 0.61978E+00
  rms(prec ) = 0.67152E+00
  weight for this iteration     100.00

 eigenvalues of (default mixing * dielectric matrix)
  average eigenvalue GAMMA=   0.7292
  2.2126  2.2126  0.6401  0.6401  0.3435  0.3435  0.3234  0.3234  0.1265  0.1265

 Free energy of the ion-electron system (eV)
  ---------------------------------------------------
  alpha Z        PSCENC =       156.95040625
  Ewald energy   TEWEN  =     30374.27352349
  -Hartree energ DENC   =    -40546.99460090
  -exchange      EXHF   =         0.00000000
  -V(xc)+E(xc)   XCENC  =      1021.39784553
  PAW double counting   =     30519.49136342   -30618.29874612
  entropy T*S    EENTRO =        -0.06989250
  eigenvalues    EBANDS =     -3618.82468434
  atomic energy  EATOM  =     12065.75791449
  Solvation  Ediel_sol  =         0.00000000
  ---------------------------------------------------
  free energy    TOTEN  =      -646.31687068 eV

  energy without entropy =     -646.24697818  energy(sigma->0) =     -646.28192443


--------------------------------------------------------------------------------------------------------




--------------------------------------- Iteration      1(  16)  ---------------------------------------


    POTLOK:  cpu time    0.5322: real time    0.5363
    SETDIJ:  cpu time    0.0150: real time    0.0151
    EDDIAG:  cpu time    3.2140: real time    3.2435
  RMM-DIIS:  cpu time   12.7466: real time   12.8465
    ORTHCH:  cpu time    0.3316: real time    0.3323
       DOS:  cpu time    0.0010: real time    0.0010
    CHARGE:  cpu time    0.9937: real time    1.0047
    MIXING:  cpu time    0.0109: real time    0.0131
    --------------------------------------------
      LOOP:  cpu time   17.8450: real time   17.9926

 eigenvalue-minimisations  :  2955
 total energy-change (2. order) :-0.9425440E-01  (-0.2403675E-02)
 number of electron     293.0000003 magnetization       0.1762093
 augmentation part       13.0013778 magnetization      -0.2431104

 Broyden mixing:
  rms(total) = 0.72000E+00    rms(broyden)= 0.71996E+00
  rms(prec ) = 0.76385E+00
  weight for this iteration     100.00

 eigenvalues of (default mixing * dielectric matrix)
  average eigenvalue GAMMA=   0.7280
  2.2051  2.2051  0.6404  0.6404  0.6073  0.3439  0.3439  0.4670  0.3490  0.1031
  0.1031

 Free energy of the ion-electron system (eV)
  ---------------------------------------------------
  alpha Z        PSCENC =       156.95040625
  Ewald energy   TEWEN  =     30374.27352349
  -Hartree energ DENC   =    -40562.69043492
  -exchange      EXHF   =         0.00000000
  -V(xc)+E(xc)   XCENC  =      1021.66311065
  PAW double counting   =     30496.79690375   -30595.63039881
  entropy T*S    EENTRO =        -0.03411835
  eigenvalues    EBANDS =     -3603.49803163
  atomic energy  EATOM  =     12065.75791449
  Solvation  Ediel_sol  =         0.00000000
  ---------------------------------------------------
  free energy    TOTEN  =      -646.41112508 eV

  energy without entropy =     -646.37700673  energy(sigma->0) =     -646.39406590


--------------------------------------------------------------------------------------------------------




--------------------------------------- Iteration      1(  17)  ---------------------------------------


    POTLOK:  cpu time    0.5612: real time    0.5659
    SETDIJ:  cpu time    0.0152: real time    0.0152
    EDDIAG:  cpu time    3.3656: real time    3.3981
  RMM-DIIS:  cpu time   12.9516: real time   13.0522
    ORTHCH:  cpu time    0.3043: real time    0.3058
       DOS:  cpu time    0.0010: real time    0.0010
    CHARGE:  cpu time    0.9845: real time    0.9929
    MIXING:  cpu time    0.0141: real time    0.0143
    --------------------------------------------
      LOOP:  cpu time   18.1974: real time   18.3453

 eigenvalue-minimisations  :  2999
 total energy-change (2. order) :-0.4349458E-02  (-0.7275763E-02)
 number of electron     293.0000003 magnetization       0.2159882
 augmentation part       12.7861531 magnetization      -0.1659462

 Broyden mixing:
  rms(total) = 0.49334E+00    rms(broyden)= 0.49332E+00
  rms(prec ) = 0.49934E+00
  weight for this iteration     100.00

 eigenvalues of (default mixing * dielectric matrix)
  average eigenvalue GAMMA=   0.8008
  2.1941  2.1941  1.1641  1.1641  0.6138  0.6138  0.3438  0.3438  0.3845  0.3845
  0.1045  0.1045

 Free energy of the ion-electron system (eV)
  ---------------------------------------------------
  alpha Z        PSCENC =       156.95040625
  Ewald energy   TEWEN  =     30374.27352349
  -Hartree energ DENC   =    -40594.36603394
  -exchange      EXHF   =         0.00000000
  -V(xc)+E(xc)   XCENC  =      1022.08360250
  PAW double counting   =     30416.22102937   -30514.96610032
  entropy T*S    EENTRO =        -0.03373049
  eigenvalues    EBANDS =     -3572.33608588
  atomic energy  EATOM  =     12065.75791449
  Solvation  Ediel_sol  =         0.00000000
  ---------------------------------------------------
  free energy    TOTEN  =      -646.41547454 eV

  energy without entropy =     -646.38174404  energy(sigma->0) =     -646.39860929


--------------------------------------------------------------------------------------------------------




--------------------------------------- Iteration      1(  18)  ---------------------------------------


    POTLOK:  cpu time    0.5318: real time    0.5356
    SETDIJ:  cpu time    0.0217: real time    0.0218
    EDDIAG:  cpu time    3.1953: real time    3.2184
  RMM-DIIS:  cpu time   13.0759: real time   13.1769
    ORTHCH:  cpu time    0.2821: real time    0.2829
       DOS:  cpu time    0.0010: real time    0.0010
    CHARGE:  cpu time    1.0211: real time    1.0327
    MIXING:  cpu time    0.0147: real time    0.0147
    --------------------------------------------
      LOOP:  cpu time   18.1437: real time   18.2840

 eigenvalue-minimisations  :  3023
 total energy-change (2. order) :-0.5004162E-01  (-0.2927896E-02)
 number of electron     293.0000003 magnetization       0.2009177
 augmentation part       12.8686788 magnetization      -0.1812081

 Broyden mixing:
  rms(total) = 0.46709E+00    rms(broyden)= 0.46708E+00
  rms(prec ) = 0.48562E+00
  weight for this iteration     100.00

 eigenvalues of (default mixing * dielectric matrix)
  average eigenvalue GAMMA=   0.8264
  2.3358  2.3358  1.5585  0.8302  0.8302  0.7118  0.3437  0.3437  0.4418  0.4418
  0.3598  0.1048  0.1048

 Free energy of the ion-electron system (eV)
  ---------------------------------------------------
  alpha Z        PSCENC =       156.95040625
  Ewald energy   TEWEN  =     30374.27352349
  -Hartree energ DENC   =    -40616.06897247
  -exchange      EXHF   =         0.00000000
  -V(xc)+E(xc)   XCENC  =      1022.32644933
  PAW double counting   =     30368.19308657   -30466.82562273
  entropy T*S    EENTRO =        -0.03233814
  eigenvalues    EBANDS =     -3551.03996294
  atomic energy  EATOM  =     12065.75791449
  Solvation  Ediel_sol  =         0.00000000
  ---------------------------------------------------
  free energy    TOTEN  =      -646.46551616 eV

  energy without entropy =     -646.43317802  energy(sigma->0) =     -646.44934709


--------------------------------------------------------------------------------------------------------




--------------------------------------- Iteration      1(  19)  ---------------------------------------


    POTLOK:  cpu time    0.5357: real time    0.5397
    SETDIJ:  cpu time    0.0151: real time    0.0152
    EDDIAG:  cpu time    3.2470: real time    3.2737
  RMM-DIIS:  cpu time   13.5816: real time   13.6835
    ORTHCH:  cpu time    0.2417: real time    0.2429
       DOS:  cpu time    0.0010: real time    0.0010
    CHARGE:  cpu time    0.9822: real time    0.9927
    MIXING:  cpu time    0.0134: real time    0.0196
    --------------------------------------------
      LOOP:  cpu time   18.6176: real time   18.7683

 eigenvalue-minimisations  :  3132
 total energy-change (2. order) : 0.3172998E-01  (-0.9683330E-03)
 number of electron     293.0000003 magnetization       0.1967751
 augmentation part       12.7729157 magnetization      -0.1618030

 Broyden mixing:
  rms(total) = 0.40131E+00    rms(broyden)= 0.40130E+00
  rms(prec ) = 0.40453E+00
  weight for this iteration     100.00

 eigenvalues of (default mixing * dielectric matrix)
  average eigenvalue GAMMA=   0.7973
  2.3620  2.3620  1.5073  0.8966  0.8966  0.7420  0.3437  0.3437  0.4458  0.4458
  0.3609  0.2469  0.1048  0.1048

 Free energy of the ion-electron system (eV)
  ---------------------------------------------------
  alpha Z        PSCENC =       156.95040625
  Ewald energy   TEWEN  =     30374.27352349
  -Hartree energ DENC   =    -40627.75830350
  -exchange      EXHF   =         0.00000000
  -V(xc)+E(xc)   XCENC  =      1022.39404581
  PAW double counting   =     30368.65105775   -30467.17290353
  entropy T*S    EENTRO =        -0.03759783
  eigenvalues    EBANDS =     -3539.49192911
  atomic energy  EATOM  =     12065.75791449
  Solvation  Ediel_sol  =         0.00000000
  ---------------------------------------------------
  free energy    TOTEN  =      -646.43378618 eV

  energy without entropy =     -646.39618835  energy(sigma->0) =     -646.41498727


--------------------------------------------------------------------------------------------------------




--------------------------------------- Iteration      1(  20)  ---------------------------------------


    POTLOK:  cpu time    0.5071: real time    0.5113
    SETDIJ:  cpu time    0.0150: real time    0.0151
    EDDIAG:  cpu time    3.2355: real time    3.2614
  RMM-DIIS:  cpu time   12.9562: real time   13.0493
    ORTHCH:  cpu time    0.3780: real time    0.3800
       DOS:  cpu time    0.0010: real time    0.0010
    CHARGE:  cpu time    1.0136: real time    1.0221
    MIXING:  cpu time    0.0133: real time    0.0135
    --------------------------------------------
      LOOP:  cpu time   18.1197: real time   18.2538

 eigenvalue-minimisations  :  2998
 total energy-change (2. order) : 0.1380150E-01  (-0.7125424E-03)
 number of electron     293.0000003 magnetization       0.2148836
 augmentation part       12.7393666 magnetization      -0.1062087

 Broyden mixing:
  rms(total) = 0.33670E+00    rms(broyden)= 0.33668E+00
  rms(prec ) = 0.33848E+00
  weight for this iteration     100.00

 eigenvalues of (default mixing * dielectric matrix)
  average eigenvalue GAMMA=   0.9152
  2.4486  2.4486  1.5615  1.5615  1.0438  1.0438  0.8783  0.6373  0.3437  0.3437
  0.4240  0.4240  0.3601  0.1048  0.1048

 Free energy of the ion-electron system (eV)
  ---------------------------------------------------
  alpha Z        PSCENC =       156.95040625
  Ewald energy   TEWEN  =     30374.27352349
  -Hartree energ DENC   =    -40644.12250993
  -exchange      EXHF   =         0.00000000
  -V(xc)+E(xc)   XCENC  =      1022.50185860
  PAW double counting   =     30343.11774136   -30441.53014088
  entropy T*S    EENTRO =        -0.04280412
  eigenvalues    EBANDS =     -3523.32597392
  atomic energy  EATOM  =     12065.75791449
  Solvation  Ediel_sol  =         0.00000000
  ---------------------------------------------------
  free energy    TOTEN  =      -646.41998468 eV

  energy without entropy =     -646.37718055  energy(sigma->0) =     -646.39858262


[...]
  E(xc)   -1111.06818 -1110.73720 -1150.18019    -0.00044    -0.00044    -0.00162
  Local  -83753.43272-83744.25979 86092.93090     3.07273     4.98432    -0.74867
  n-local  -289.64586  -286.85792  -269.86068     0.03733     0.02229     0.03024
  augment    66.64441    64.93975    65.45053     0.00773     0.01089     0.02989
  Kinetic  4383.61406  4370.86628  4985.53233    -0.07688     0.16806    -0.00384
  Fock        0.00000     0.00000     0.00000     0.00000     0.00000     0.00000
  vdW        -1.50975    -1.66375    -0.04130    -0.00077    -0.00000     0.00212
  -------------------------------------------------------------------------------------
  Total       0.15213     0.22757    -0.70156    -0.03252     0.00665     0.00092
  in kB       0.08574     0.12825    -0.39538    -0.01833     0.00375     0.00052
  external pressure =       -0.06 kB  Pullay stress =        0.00 kB


 VOLUME and BASIS-vectors are now :
 -----------------------------------------------------------------------------
  energy-cutoff  :      550.00
  volume of cell :     2842.89
      direct lattice vectors                 reciprocal lattice vectors
    14.857880698 -0.000173602  0.000000000     0.067304808  0.039197510  0.000000000
    -7.428940349 12.755999190  0.000000000     0.000000916  0.078395019  0.000000000
     0.000000000  0.000000000 15.000000000     0.000000000  0.000000000  0.066666667

  length of vectors
    14.857880699 14.761594428 15.000000000     0.077886982  0.078395019  0.066666667


 FORCES acting on ions
    electron-ion (+dipol)            ewald-force                    non-local-force                 convergence-correction
 -----------------------------------------------------------------------------------------------
   -.207E+00 0.888E+00 0.794E+01   0.315E+00 -.925E+00 -.797E+01   -.123E+00 0.409E-01 0.246E-01   -.577E-02 0.676E-03 -.292E-03
   -.366E+01 -.981E+00 0.762E+01   0.397E+01 0.994E+00 -.765E+01   -.296E+00 -.362E-01 0.234E-01   -.425E-02 0.152E-02 -.290E-03
   0.199E+00 0.622E+00 0.734E+01   -.210E+00 -.478E+00 -.737E+01   0.132E-02 -.135E+00 0.251E-01   -.772E-04 0.196E-02 -.311E-03
   -.210E+01 -.352E-01 0.760E+01   0.214E+01 0.124E+00 -.761E+01   -.411E-01 -.921E-01 0.101E-01   0.516E-03 0.213E-02 -.279E-03
   0.215E+01 0.131E+01 0.655E+01   -.234E+01 -.120E+01 -.657E+01   0.199E+00 -.116E+00 0.168E-01   0.532E-02 0.278E-02 -.499E-03
   0.397E+01 -.567E+00 0.696E+01   -.424E+01 0.645E+00 -.697E+01   0.268E+00 -.894E-01 0.291E-02   0.471E-02 0.275E-02 -.426E-03
   0.525E+01 0.425E+01 0.783E+01   -.590E+01 -.471E+01 -.785E+01   0.656E+00 0.470E+00 0.212E-01   0.318E-02 0.433E-03 -.176E-03
   0.121E+02 -.170E+01 0.790E+01   -.135E+02 0.135E+01 -.794E+01   0.147E+01 0.353E+00 0.381E-01   0.112E-02 0.167E-03 -.813E-04
   -.227E+01 0.260E+02 0.706E+01   0.227E+01 -.324E+02 -.698E+01   0.860E-03 0.635E+01 -.779E-01   0.746E-03 -.565E-03 0.103E-03
   0.214E+00 0.163E+00 0.911E+01   -.300E+00 -.241E+00 -.924E+01   0.774E-01 0.750E-01 0.131E+00   0.126E-03 -.160E-02 0.139E-03
   -.536E+01 0.337E+01 0.710E+01   0.603E+01 -.389E+01 -.709E+01   -.672E+00 0.529E+00 -.350E-02   -.331E-02 -.125E-02 -.254E-03
   -.111E+02 -.162E+01 0.670E+01   0.125E+02 0.109E+01 -.673E+01   -.138E+01 0.537E+00 0.248E-01   -.222E-02 -.199E-02 -.287E-03
   -.198E+01 0.468E+01 0.678E+01   0.255E+01 -.443E+01 -.679E+01   -.552E+00 -.252E+00 0.130E-02   -.301E-02 -.309E-03 -.377E-03
   -.248E+01 0.930E+00 0.636E+01   0.281E+01 -.816E+00 -.637E+01   -.324E+00 -.109E+00 0.163E-01   -.212E-02 -.135E-02 -.389E-03
   0.129E+01 0.515E+01 0.876E+01   -.113E+01 -.498E+01 -.878E+01   -.166E+00 -.186E+00 0.229E-01   -.278E-02 0.705E-03 -.274E-03
   -.278E+01 0.673E+01 0.101E+02   0.336E+01 -.647E+01 -.102E+02   -.578E+00 -.262E+00 0.917E-01   -.386E-02 -.107E-02 -.378E-03
   0.658E+00 0.675E+01 0.738E+01   -.775E+00 -.632E+01 -.741E+01   0.104E+00 -.452E+00 0.279E-01   0.333E-02 0.846E-03 -.460E-03
   0.622E+00 0.641E+01 0.574E+01   -.682E+00 -.571E+01 -.534E+01   0.686E-01 -.701E+00 -.397E+00   0.388E-02 -.240E-02 -.842E-03
   0.178E+01 0.496E+01 0.848E+01   -.243E+01 -.452E+01 -.849E+01   0.632E+00 -.465E+00 0.134E-01   0.372E-02 0.697E-03 -.298E-03
   0.582E+01 0.504E+01 0.971E+01   -.661E+01 -.463E+01 -.978E+01   0.789E+00 -.417E+00 0.686E-01   0.378E-02 -.182E-02 -.381E-03
   0.218E+02 -.916E+01 0.748E+01   -.271E+02 0.123E+02 -.747E+01   0.534E+01 -.312E+01 -.177E-01   0.108E-02 -.101E-02 0.113E-03
   0.534E+01 -.586E+01 0.772E+01   -.573E+01 0.721E+01 -.773E+01   0.381E+00 -.135E+01 0.146E-01   -.489E-04 -.918E-03 0.105E-03
   -.234E+02 -.114E+02 0.598E+01   0.288E+02 0.144E+02 -.596E+01   -.541E+01 -.303E+01 -.181E-01   -.229E-02 -.216E-02 -.145E-03
   -.689E+01 -.620E+01 0.597E+01   0.722E+01 0.755E+01 -.599E+01   -.327E+00 -.136E+01 0.174E-01   -.170E-02 -.140E-02 -.289E-03
   0.451E+00 -.543E+00 0.511E+01   0.181E+00 0.876E+00 -.509E+01   -.616E+00 -.306E+00 -.301E-01   -.137E-02 -.279E-02 -.497E-03
   0.181E+01 0.327E+01 0.546E+01   -.167E+01 -.306E+01 -.550E+01   -.152E+00 -.192E+00 0.249E-01   -.385E-03 -.442E-02 -.592E-03
   0.349E+01 0.959E+01 0.702E+01   -.310E+01 -.953E+01 -.699E+01   -.405E+00 -.558E-01 -.326E-01   -.319E-02 -.196E-02 -.322E-03
   0.107E+02 0.569E+01 0.587E+01   -.104E+02 -.553E+01 -.598E+01   -.289E+00 -.154E+00 0.115E+00   -.291E-02 -.313E-02 -.408E-03
   -.137E+01 0.180E+02 0.122E+02   0.163E+01 -.170E+02 -.124E+02   -.279E+00 -.999E+00 0.227E+00   -.374E-03 -.503E-03 -.797E-03
   -.843E+01 0.346E+02 0.258E+02   0.146E+02 -.310E+02 -.249E+02   -.622E+01 -.355E+01 -.836E+00   -.273E-02 -.319E-02 -.280E-02
   0.223E+01 0.175E+02 0.109E+02   -.265E+01 -.164E+02 -.111E+02   0.439E+00 -.110E+01 0.207E+00   0.488E-02 -.280E-02 -.985E-03
   0.872E+01 0.334E+02 0.229E+02   -.150E+02 -.297E+02 -.219E+02   0.632E+01 -.367E+01 -.923E+00   0.591E-02 -.543E-02 -.304E-02
   -.314E+01 0.642E+01 0.788E+01   0.236E+01 -.608E+01 -.783E+01   0.792E+00 -.310E+00 -.539E-01   0.957E-03 -.282E-02 -.117E-03
   -.982E+01 0.533E+01 0.756E+01   0.946E+01 -.502E+01 -.770E+01   0.363E+00 -.308E+00 0.133E+00   0.130E-02 -.465E-02 -.331E-03
   -.145E+01 -.563E+01 0.664E+01   0.139E+01 0.645E+01 -.662E+01   0.517E-01 -.810E+00 -.180E-01   -.103E-02 -.210E-02 -.957E-04
   -.329E+01 0.435E+00 0.743E+01   0.324E+01 0.728E-01 -.746E+01   0.476E-01 -.502E+00 0.358E-01   -.166E-02 -.548E-02 -.230E-03
   -.460E+00 -.189E+01 0.630E+01   0.561E+00 0.207E+01 -.632E+01   -.973E-01 -.174E+00 0.104E-01   -.159E-02 -.531E-02 -.527E-03
   -.153E+00 -.128E+01 0.627E+01   0.176E+00 0.137E+01 -.629E+01   -.248E-01 -.102E+00 0.146E-01   -.261E-03 -.260E-02 -.563E-03
   0.493E+01 -.778E+00 0.400E+01   -.476E+01 0.848E+00 -.397E+01   -.152E+00 -.530E-01 -.365E-01   -.807E-03 -.261E-02 -.543E-03
   0.431E+01 0.146E+00 0.398E+01   -.425E+01 -.145E+00 -.395E+01   -.606E-01 -.102E-01 -.362E-01   0.124E-02 0.199E-03 -.605E-03
   0.255E+02 0.819E+01 0.136E+02   -.246E+02 -.867E+01 -.142E+02   -.889E+00 0.491E+00 0.552E+00   -.116E-02 -.168E-02 -.913E-03
   0.256E+02 -.732E+01 0.140E+02   -.247E+02 0.772E+01 -.146E+02   -.862E+00 -.406E+00 0.550E+00   -.111E-02 0.515E-02 -.990E-03
   -.245E+02 0.725E+01 0.134E+02   0.235E+02 -.761E+01 -.139E+02   0.961E+00 0.388E+00 0.496E+00   0.305E-02 -.426E-02 -.123E-02
   -.239E+02 -.780E+01 0.135E+02   0.230E+02 0.825E+01 -.140E+02   0.866E+00 -.467E+00 0.520E+00   0.104E-02 0.961E-03 -.126E-02
   -.454E+01 -.161E+01 0.663E+01   0.437E+01 0.178E+01 -.659E+01   0.182E+00 -.166E+00 -.302E-01   -.799E-04 -.494E-02 -.177E-03
   -.480E+01 -.151E+01 0.662E+01   0.469E+01 0.161E+01 -.659E+01   0.118E+00 -.113E+00 -.260E-01   -.135E-02 -.306E-02 -.214E-03
   -.335E+01 -.521E+01 0.738E+01   0.330E+01 0.525E+01 -.742E+01   0.522E-01 -.390E-01 0.375E-01   -.160E-02 -.240E-02 -.316E-03
   -.161E+01 -.283E+01 0.658E+01   0.154E+01 0.286E+01 -.657E+01   0.586E-01 -.377E-01 -.168E-01   -.779E-03 -.386E-03 -.328E-03
   0.401E+01 -.457E+01 0.545E+01   -.393E+01 0.456E+01 -.548E+01   -.700E-01 0.582E-02 0.270E-01   0.268E-02 -.515E-03 -.665E-03
   0.268E+01 -.265E+01 0.516E+01   -.268E+01 0.261E+01 -.515E+01   0.162E-01 0.442E-01 -.220E-01   0.349E-02 0.764E-03 -.635E-03
   0.122E+02 -.589E+01 0.624E+01   -.120E+02 0.567E+01 -.637E+01   -.224E+00 0.203E+00 0.124E+00   0.109E-02 0.354E-02 -.515E-03
   0.416E+01 -.792E+01 0.700E+01   -.408E+01 0.779E+01 -.697E+01   -.997E-01 0.127E+00 -.333E-01   0.409E-02 0.356E-02 -.410E-03
   -.795E+01 -.338E+02 0.256E+02   0.142E+02 0.300E+02 -.247E+02   -.627E+01 0.375E+01 -.885E+00   -.374E-02 0.904E-02 -.295E-02
   -.128E+01 -.133E+02 0.121E+02   0.154E+01 0.120E+02 -.124E+02   -.275E+00 0.131E+01 0.220E+00   -.103E-02 0.674E-02 -.811E-03
   0.679E+01 -.336E+02 0.227E+02   -.130E+02 0.300E+02 -.217E+02   0.621E+01 0.368E+01 -.969E+00   0.253E-02 0.608E-02 -.301E-02
   0.144E+01 -.160E+02 0.111E+02   -.155E+01 0.149E+02 -.114E+02   0.124E+00 0.117E+01 0.234E+00   -.181E-02 0.526E-02 -.103E-02
   -.121E+02 -.673E+01 0.772E+01   0.118E+02 0.662E+01 -.785E+01   0.290E+00 0.107E+00 0.132E+00   -.107E-02 -.420E-03 -.419E-03
   -.505E+01 -.948E+01 0.793E+01   0.489E+01 0.945E+01 -.789E+01   0.167E+00 0.310E-01 -.383E-01   -.407E-02 0.100E-02 -.348E-03
   -.206E+01 -.280E+01 0.792E+01   0.202E+01 0.282E+01 -.794E+01   0.321E-01 -.300E-01 0.290E-01   -.322E-02 0.241E-03 -.238E-03
   -.234E+01 -.355E+01 0.771E+01   0.246E+01 0.358E+01 -.772E+01   -.128E+00 -.332E-01 0.658E-02   -.324E-02 0.128E-02 -.265E-03
   0.356E+00 -.191E+01 0.606E+01   -.390E+00 0.194E+01 -.609E+01   0.365E-01 -.319E-01 0.238E-01   0.163E-02 0.640E-03 -.520E-03
   0.496E+00 -.183E+01 0.597E+01   -.602E+00 0.188E+01 -.595E+01   0.119E+00 -.489E-01 -.160E-01   0.212E-02 0.197E-02 -.464E-03
   0.336E+01 -.210E+01 0.643E+01   -.339E+01 0.196E+01 -.645E+01   0.461E-01 0.133E+00 0.186E-01   0.544E-02 0.258E-02 -.524E-03
   0.530E+01 -.165E+01 0.680E+01   -.577E+01 0.145E+01 -.681E+01   0.461E+00 0.190E+00 0.470E-02   0.651E-02 0.292E-02 -.481E-03
   0.966E+00 -.415E+01 0.101E+02   -.472E+00 0.322E+01 -.101E+02   -.513E+00 0.912E+00 0.707E-01   0.271E-02 0.403E-02 -.203E-03
   0.668E+01 0.551E+01 0.867E+01   -.765E+01 -.662E+01 -.868E+01   0.955E+00 0.113E+01 0.189E-01   0.173E-02 0.399E-03 -.965E-05
   -.287E+01 -.382E+01 0.594E+01   0.290E+01 0.248E+01 -.551E+01   -.129E-01 0.133E+01 -.427E+00   -.230E-02 0.607E-02 -.742E-03
   -.402E+01 0.371E+01 0.686E+01   0.506E+01 -.508E+01 -.685E+01   -.105E+01 0.139E+01 -.384E-02   -.860E-03 0.591E-03 -.159E-03
   0.304E-01 -.590E+01 0.985E+01   -.448E+00 0.548E+01 -.992E+01   0.415E+00 0.425E+00 0.721E-01   -.405E-02 0.346E-02 -.536E-03
   -.563E+01 -.258E+01 0.844E+01   0.600E+01 0.219E+01 -.846E+01   -.357E+00 0.406E+00 0.172E-01   -.619E-02 0.118E-02 -.390E-03
   -.111E+01 0.221E+01 -.626E+03   0.127E+01 -.212E+01 0.608E+03   -.173E+00 -.864E-01 0.180E+02   0.150E-02 0.328E-02 -.559E-02
 -----------------------------------------------------------------------------------------------
   -.279E-01 0.350E+00 -.175E+02   0.382E-13 0.781E-12 -.114E-12   0.246E-01 -.346E+00 0.175E+02   0.667E-06 0.306E-03 -.451E-01
 
 
 POSITION                                       TOTAL-FORCE (eV/Angst)
 -----------------------------------------------------------------------------------
      0.00088      0.00004      7.46449        -0.020467      0.005750     -0.001904
     -0.00491      1.42113      7.46588         0.006064     -0.022292     -0.001537
      2.48079      0.02665      7.46312        -0.008751      0.011786     -0.000954
      2.47905      1.44717      7.47370         0.002028      0.000088      0.001182
      4.95289      0.02772      7.46615         0.014530     -0.000996     -0.005085
      4.95959      1.44682      7.47569        -0.003765     -0.007850     -0.002656
     -0.00049     12.75288      7.46559         0.008577      0.014838     -0.002659
      7.44361      1.41628      7.46471         0.008664     -0.003870     -0.000697
      2.47854     12.74120      7.47470         0.004002      0.012414      0.005510
      9.91003      1.39338      7.46356        -0.007831     -0.005985      0.003411
      4.95444     12.72636      7.47551        -0.004206      0.005802     -0.000674
     12.36691      1.38926      7.46589        -0.005725      0.000770     -0.004310
     13.60499      2.11241      7.46735         0.016670     -0.001706     -0.004773
     -1.25102      3.52833      7.47744         0.000906      0.000597     -0.001832
      1.23573      2.14451      7.47541        -0.000777     -0.014214      0.001568
      1.23512      3.56767      7.50098        -0.001760     -0.009164     -0.000163
      3.71911      2.17188      7.49103        -0.010570     -0.020027     -0.002341
      3.71719      3.59006      7.53823         0.012981      0.003847     -0.004678
      6.20443      2.14485      7.47590        -0.016307     -0.019752     -0.001839
      6.19989      3.56628      7.50080         0.000473     -0.004744     -0.002065
      8.68813      2.10494      7.46378         0.004644      0.001756      0.002488
      8.69005      3.52028      7.47095        -0.011050     -0.003547      0.005538
     11.13291      2.09618      7.46443        -0.004908      0.003864     -0.002108
     11.13540      3.51591      7.46651         0.001843     -0.012550     -0.004360
     12.37300      4.22869      7.47496         0.014004      0.024786     -0.005730
     -2.48936      5.65649      7.48170        -0.007778      0.010553     -0.005623
     -0.01632      4.24590      7.49999        -0.021757     -0.009221      0.003089
     -0.04166      5.66150      7.52575         0.005585     -0.000331      0.002521
      2.47296      4.30977      7.55105        -0.003791     -0.016376      0.005351
      2.42510      5.72222      7.64090         0.011212     -0.008920      0.005681
      4.96192      4.30973      7.55406         0.011624     -0.013528      0.005760
      5.00821      5.72171      7.64646         0.012173     -0.018774      0.009606
      7.45120      4.23726      7.49461         0.011542      0.019568      0.005220
      7.47557      5.65675      7.51777        -0.000851      0.002822     -0.000133
      9.91426      4.23969      7.46873        -0.006206      0.004756      0.000423
      9.92023      5.65979      7.47380        -0.000316     -0.001076      0.000521
     -3.71157      6.37466      7.47416         0.001861     -0.001351     -0.006066
     -3.71216      7.79668      7.47420        -0.001381     -0.016926     -0.005353
     -1.26925      6.37313      7.50460         0.014522      0.012802     -0.001221
     -1.26728      7.79836      7.50451         0.000465     -0.008019     -0.003907
      1.17922      6.36901      7.57898        -0.007400      0.007494      0.006438
      1.18020      7.80634      7.57831         0.006788      0.007076      0.006861
      6.25600      6.36631      7.57745        -0.018918      0.012592      0.002085
      6.25399      7.80462      7.57743        -0.012365     -0.005529      0.001223
      8.69936      6.37444      7.49326         0.006732     -0.001010      0.003952
      8.69964      7.79614      7.49322         0.007916     -0.018035      0.003771
     -4.93809      8.51108      7.47385         0.000844     -0.002690      0.000886
     -4.94415      9.93659      7.46863        -0.008453     -0.007915     -0.000951
     -2.48595      8.51197      7.48171         0.013787     -0.008508     -0.006069
     -2.47931      9.93642      7.47478         0.015140      0.006081     -0.006398
     -0.03906      8.51436      7.52492         0.016148     -0.007729     -0.001112
     -0.01188      9.93265      7.49982        -0.013976      0.004561      0.000199
      2.42650      8.45329      7.64182         0.017474      0.025172      0.013715
      2.47249      9.86812      7.55092        -0.003005      0.019870      0.009090
      5.00482      8.45393      7.64768        -0.006659     -0.008749      0.003381
      4.95726      9.86768      7.55358        -0.001077      0.003642      0.004102
      7.47161      8.51086      7.51764        -0.023414     -0.002831      0.000754
      7.44616      9.92765      7.49449         0.002699      0.009558      0.002095
     -6.17884     10.64490      7.47045        -0.015810     -0.007448      0.002297
     -6.18368     12.06454      7.46295        -0.011828     -0.001927     -0.000722
     -3.71215     10.65018      7.46620         0.004505     -0.003980     -0.004445
     -3.71246     12.07225      7.46427         0.014424      0.004184     -0.003193
     -1.24546     10.64349      7.47726         0.016146      0.005005     -0.003540
     -1.24073     12.06465      7.46727        -0.002304     -0.003676     -0.006164
      1.24317     10.61423      7.50110        -0.015690     -0.007835     -0.000332
      1.24257     12.04269      7.47558         0.000787      0.023950      0.002771
      3.70953     10.59184      7.53765         0.017254     -0.013532     -0.001596
      3.71308     12.01515      7.49173        -0.016000      0.025228      0.000983
      6.19405     10.60560      7.50059        -0.009414      0.007544     -0.004773
      6.19157     12.03088      7.47585         0.003427      0.017243     -0.003113
      3.71302      7.08855      8.32146        -0.003931      0.006614     -0.007395
 -----------------------------------------------------------------------------------
    total drift:                               -0.003345      0.003824     -0.022659


--------------------------------------------------------------------------------------------------------



  FREE ENERGIE OF THE ION-ELECTRON SYSTEM (eV)
  ---------------------------------------------------
  free  energy   TOTEN  =      -653.39312556 eV

  energy  without entropy=     -653.36504748  energy(sigma->0) =     -653.37908652
 
 d Force = 0.7155628E-03[ 0.189E-03, 0.124E-02]  d Energy = 0.6950908E-03 0.205E-04
 d Force =-0.3847871E+00[-0.389E+00,-0.381E+00]  d Ewald  =-0.9367634E+01 0.898E+01


--------------------------------------------------------------------------------------------------------


    POTLOK:  cpu time    0.5675: real time    0.5700


--------------------------------------------------------------------------------------------------------


 Conjugate gradient step on ions:
 trial-energy change:   -0.000695  1 .order   -0.000748   -0.001351   -0.000144
  (g-gl).g = 0.165E-02      g.g   = 0.168E-02  gl.gl    = 0.373E-02
 g(Force)  = 0.151E-02   g(Stress)= 0.175E-03 ortho     = 0.232E-04
 gamma     =   0.44293
 trial     =   0.79842
 opt step  =   0.93604  (harmonic =   0.89396) maximal distance =0.00201370
 next E    =  -653.393138   (d E  =  -0.00071)


--------------------------------------------------------------------------------------------------------


  
 reached required accuracy - stopping structural energy minimisation
     LOOP+:  cpu time  106.4894: real time  107.3258
    4ORBIT:  cpu time    0.0000: real time    0.0000

 total amount of memory used by VASP MPI-rank0   135466. kBytes
=======================================================================

   base      :      30000. kBytes
   nonlr-proj:      10477. kBytes
   fftplans  :      14072. kBytes
   grid      :      39398. kBytes
   one-center:        186. kBytes
   wavefun   :      41333. kBytes
 
  
  
 General timing and accounting informations for this job:
 ========================================================
  
                  Total CPU time used (sec):     2845.448
                            User time (sec):     2818.879
                          System time (sec):       26.570
                         Elapsed time (sec):     2875.346
  
                   Maximum memory used (kb):      615208.
                   Average memory used (kb):           0.
  
                          Minor page faults:      5293495
                          Major page faults:           27
                 Voluntary context switches:        25301
