       N       E                     dE             d eps       ncg     rms          rms(c)
DAV:   1     0.249272807349E+04    0.24927E+04   -0.11219E+05  4416   0.107E+03
DAV:   2    -0.245959992054E+03   -0.27387E+04   -0.26180E+04  5464   0.278E+02
DAV:   3    -0.701761166565E+03   -0.45580E+03   -0.45199E+03  4616   0.119E+02
DAV:   4    -0.718234996751E+03   -0.16474E+02   -0.16330E+02  4672   0.278E+01
DAV:   5    -0.718772904796E+03   -0.53791E+00   -0.53628E+00  5232   0.424E+00    0.478E+01
DAV:   6    -0.717735573603E+03    0.10373E+01   -0.82232E+01  4912   0.290E+01    0.748E+01
DAV:   7    -0.673788729393E+03    0.43947E+02   -0.70003E+01  5104   0.551E+01    0.266E+01
DAV:   8    -0.670062834597E+03    0.37259E+01   -0.35868E+01  4992   0.143E+01    0.261E+01
DAV:   9    -0.663888567623E+03    0.61743E+01   -0.24136E+01  4608   0.137E+01    0.191E+01
DAV:  10    -0.662284777671E+03    0.16038E+01   -0.18122E+01  5296   0.128E+01    0.110E+01
DAV:  11    -0.661697582745E+03    0.58719E+00   -0.11705E+00  5320   0.326E+00    0.678E+00
DAV:  12    -0.661968340009E+03   -0.27076E+00   -0.43543E-01  4704   0.181E+00    0.609E+00
DAV:  13    -0.662018124120E+03   -0.49784E-01   -0.28859E-01  5080   0.159E+00    0.397E+00
DAV:  14    -0.662035159872E+03   -0.17036E-01   -0.75873E-02  4488   0.723E-01    0.344E+00
DAV:  15    -0.662036307130E+03   -0.11473E-02   -0.45657E-02  4792   0.484E-01    0.266E+00
DAV:  16    -0.662021270743E+03    0.15036E-01   -0.24842E-02  4920   0.375E-01    0.179E+00
DAV:  17    -0.662014456586E+03    0.68142E-02   -0.45324E-03  5072   0.196E-01    0.153E+00
DAV:  18    -0.662006723602E+03    0.77330E-02   -0.52097E-03  5168   0.206E-01    0.114E+00
DAV:  19    -0.662000580423E+03    0.61432E-02   -0.42752E-03  5056   0.201E-01    0.659E-01
DAV:  20    -0.661998437593E+03    0.21428E-02   -0.18868E-03  4520   0.134E-01    0.339E-01
DAV:  21    -0.661997978492E+03    0.45910E-03   -0.65185E-04  3832   0.688E-02    0.205E-01
DAV:  22    -0.661997863896E+03    0.11460E-03   -0.14259E-04  2912   0.369E-02    0.138E-01
DAV:  23    -0.661997825967E+03    0.37929E-04   -0.71796E-05  2840   0.231E-02
   1 F= -.66840942E+03 E0= -.66840942E+03  d E =0.000000E+00  mag=    -0.9997
