       N       E                     dE             d eps       ncg     rms          rms(c)
DAV:   1     0.260416681261E+04    0.26042E+04   -0.10264E+05  3872   0.116E+03
DAV:   2     0.353581133108E+01   -0.26006E+04   -0.24912E+04  4680   0.301E+02
DAV:   3    -0.493877489958E+03   -0.49741E+03   -0.49292E+03  3984   0.148E+02
DAV:   4    -0.513102757493E+03   -0.19225E+02   -0.18747E+02  4208   0.405E+01
DAV:   5    -0.513880092422E+03   -0.77733E+00   -0.76986E+00  4832   0.651E+00    0.426E+01
DAV:   6    -0.485081320932E+03    0.28799E+02   -0.51164E+01  4376   0.249E+01    0.271E+01
DAV:   7    -0.478528122780E+03    0.65532E+01   -0.43158E+01  4016   0.198E+01    0.169E+01
DAV:   8    -0.476535334730E+03    0.19928E+01   -0.11170E+01  4064   0.128E+01    0.118E+01
DAV:   9    -0.476791494880E+03   -0.25616E+00   -0.12465E+01  4920   0.107E+01    0.651E+00
DAV:  10    -0.476042941074E+03    0.74855E+00   -0.59902E+00  4616   0.870E+00    0.321E+00
DAV:  11    -0.475993344847E+03    0.49596E-01   -0.17364E+00  4592   0.471E+00    0.213E+00
DAV:  12    -0.475925960629E+03    0.67384E-01   -0.12103E+00  4696   0.298E+00    0.136E+00
DAV:  13    -0.475885786454E+03    0.40174E-01   -0.23482E-01  4016   0.154E+00    0.541E-01
DAV:  14    -0.475886055033E+03   -0.26858E-03   -0.42789E-02  3808   0.621E-01    0.296E-01
DAV:  15    -0.475885540298E+03    0.51474E-03   -0.53004E-03  4384   0.278E-01    0.226E-01
DAV:  16    -0.475885509822E+03    0.30476E-04   -0.21747E-03  4568   0.151E-01    0.142E-01
DAV:  17    -0.475885565140E+03   -0.55318E-04   -0.11722E-03  3088   0.839E-02    0.761E-02
DAV:  18    -0.475885576396E+03   -0.11257E-04   -0.14534E-03  2392   0.820E-02    0.514E-02
DAV:  19    -0.475885529876E+03    0.46521E-04   -0.43105E-04  2120   0.432E-02
   1 F= -.47997362E+03 E0= -.47997362E+03  d E =0.000000E+00  mag=     0.0000
