       N       E                     dE             d eps       ncg     rms          ort
DAV:   1     0.261097287414E+04    0.26110E+04   -0.10652E+05   688   0.119E+03
DAV:   2     0.318195943522E+02   -0.25792E+04   -0.24829E+04   688   0.292E+02
DAV:   3    -0.498171532856E+03   -0.52999E+03   -0.52599E+03   688   0.147E+02
DAV:   4    -0.520445375219E+03   -0.22274E+02   -0.21728E+02   688   0.415E+01
DAV:   5    -0.521357784934E+03   -0.91241E+00   -0.90256E+00   688   0.683E+00
SDA:   6    -0.447174219731E+03    0.74184E+02   -0.90256E+00   688   0.206E+03 0.000E+00
CGA:   7    -0.483403185025E+03   -0.36229E+02   -0.36317E+02   688   0.295E+02 0.184E+01
CGA:   8    -0.487712671974E+03   -0.43095E+01   -0.44150E+01   688   0.118E+02-0.466E+00
CGA:   9    -0.489671085299E+03   -0.19584E+01   -0.19615E+01   688   0.293E+01-0.377E-03
CGA:  10    -0.490397925355E+03   -0.72684E+00   -0.72696E+00   688   0.979E+00-0.101E-02
CGA:  11    -0.490682213628E+03   -0.28429E+00   -0.28587E+00   688   0.371E+00-0.147E-01
CGA:  12    -0.490769129587E+03   -0.86916E-01   -0.87306E-01   688   0.229E+00-0.695E-02
CGA:  13    -0.490810502416E+03   -0.41373E-01   -0.41364E-01   688   0.856E-01-0.165E-03
CGA:  14    -0.490833425267E+03   -0.22923E-01   -0.22874E-01   688   0.436E-01 0.543E-03
CGA:  15    -0.490843367389E+03   -0.99421E-02   -0.99276E-02   688   0.212E-01 0.423E-03
CGA:  16    -0.490849687506E+03   -0.63201E-02   -0.63191E-02   688   0.875E-02-0.916E-05
CGA:  17    -0.490852828799E+03   -0.31413E-02   -0.31264E-02   688   0.522E-02 0.864E-04
CGA:  18    -0.490854225292E+03   -0.13965E-02   -0.13917E-02   688   0.389E-02 0.649E-04
CGA:  19    -0.490855212502E+03   -0.98721E-03   -0.98686E-03   688   0.235E-02 0.550E-05
CGA:  20    -0.490855927294E+03   -0.71479E-03   -0.71278E-03   688   0.174E-02 0.202E-04
CGA:  21    -0.490856575523E+03   -0.64823E-03   -0.64590E-03   688   0.148E-02 0.138E-04
CGA:  22    -0.490857306213E+03   -0.73069E-03   -0.73984E-03   688   0.180E-02-0.361E-04
CGA:  23    -0.490858173422E+03   -0.86721E-03   -0.89920E-03   688   0.254E-02-0.122E-03
CGA:  24    -0.490858903316E+03   -0.72989E-03   -0.72258E-03   688   0.191E-02 0.109E-03
CGA:  25    -0.490859644540E+03   -0.74122E-03   -0.75467E-03   688   0.133E-02-0.927E-04
CGA:  26    -0.490860085506E+03   -0.44097E-03   -0.45872E-03   688   0.108E-02-0.127E-03
CGA:  27    -0.490860372518E+03   -0.28701E-03   -0.28727E-03   688   0.689E-03 0.662E-05
CGA:  28    -0.490860589994E+03   -0.21748E-03   -0.21572E-03   688   0.460E-03 0.351E-04
CGA:  29    -0.490860755873E+03   -0.16588E-03   -0.16594E-03   688   0.387E-03-0.980E-07
CGA:  30    -0.490860885753E+03   -0.12988E-03   -0.13015E-03   688   0.297E-03-0.501E-05
CGA:  31    -0.490860989181E+03   -0.10343E-03   -0.10516E-03   688   0.237E-03-0.195E-04
CGA:  32    -0.490861067853E+03   -0.78673E-04   -0.81361E-04   688   0.208E-03-0.313E-04
   1 F= -.49495027E+03 E0= -.49492806E+03  d E =-.494950E+03  mag=     0.5289
       N       E                     dE             d eps       ncg     rms          ort
SDA:   1    -0.479267269151E+03    0.11594E+02    0.00000E+00   688   0.298E+02 0.000E+00
CGA:   2    -0.487810072485E+03   -0.85428E+01   -0.85471E+01   688   0.101E+02 0.343E+00
CGA:   3    -0.490229933826E+03   -0.24199E+01   -0.24186E+01   688   0.268E+01 0.140E-02
CGA:   4    -0.490747291292E+03   -0.51736E+00   -0.51869E+00   688   0.576E+00 0.202E-02
CGA:   5    -0.490871314017E+03   -0.12402E+00   -0.12410E+00   688   0.123E+00 0.205E-03
CGA:   6    -0.490901175514E+03   -0.29861E-01   -0.29853E-01   688   0.338E-01-0.640E-04
CGA:   7    -0.490911311999E+03   -0.10136E-01   -0.10136E-01   688   0.128E-01 0.325E-04
CGA:   8    -0.490915587693E+03   -0.42757E-02   -0.42757E-02   688   0.559E-02-0.369E-05
CGA:   9    -0.490917440889E+03   -0.18532E-02   -0.18531E-02   688   0.215E-02 0.241E-05
CGA:  10    -0.490918113085E+03   -0.67220E-03   -0.67206E-03   688   0.812E-03 0.527E-05
CGA:  11    -0.490918351295E+03   -0.23821E-03   -0.23819E-03   688   0.357E-03 0.275E-05
CGA:  12    -0.490918457787E+03   -0.10649E-03   -0.10648E-03   688   0.175E-03 0.109E-05
CGA:  13    -0.490918522858E+03   -0.65070E-04   -0.65168E-04   688   0.103E-03-0.115E-05
   2 F= -.49500669E+03 E0= -.49498503E+03  d E =-.564281E-01  mag=     0.5254
       N       E                     dE             d eps       ncg     rms          ort
SDA:   1    -0.488813014739E+03    0.21054E+01    0.00000E+00   688   0.614E+01 0.000E+00
CGA:   2    -0.490530876727E+03   -0.17179E+01   -0.17164E+01   688   0.214E+01-0.294E-01
CGA:   3    -0.491031707117E+03   -0.50083E+00   -0.50197E+00   688   0.523E+00 0.459E-02
CGA:   4    -0.491134471977E+03   -0.10276E+00   -0.10279E+00   688   0.117E+00 0.453E-04
CGA:   5    -0.491158901521E+03   -0.24430E-01   -0.24420E-01   688   0.257E-01 0.558E-04
CGA:   6    -0.491164919445E+03   -0.60179E-02   -0.60180E-02   688   0.668E-02-0.850E-05
CGA:   7    -0.491166910197E+03   -0.19908E-02   -0.19908E-02   688   0.263E-02-0.290E-05
CGA:   8    -0.491167763437E+03   -0.85324E-03   -0.85308E-03   688   0.120E-02 0.511E-05
CGA:   9    -0.491168169871E+03   -0.40643E-03   -0.40630E-03   688   0.470E-03 0.278E-05
CGA:  10    -0.491168327476E+03   -0.15760E-03   -0.15761E-03   688   0.174E-03-0.188E-08
CGA:  11    -0.491168390603E+03   -0.63128E-04   -0.63311E-04   688   0.834E-04-0.258E-05
   3 F= -.49525722E+03 E0= -.49523599E+03  d E =-.306953E+00  mag=     0.4527
       N       E                     dE             d eps       ncg     rms          ort
SDA:   1    -0.484840161821E+03    0.63282E+01    0.00000E+00   688   0.180E+02 0.000E+00
CGA:   2    -0.489690600019E+03   -0.48504E+01   -0.48629E+01   688   0.565E+01 0.150E+00
CGA:   3    -0.491118845592E+03   -0.14282E+01   -0.14078E+01   688   0.129E+01-0.953E-01
CGA:   4    -0.491394474520E+03   -0.27563E+00   -0.27549E+00   688   0.259E+00-0.630E-04
CGA:   5    -0.491453290120E+03   -0.58816E-01   -0.58831E-01   688   0.544E-01 0.656E-04
CGA:   6    -0.491466704020E+03   -0.13414E-01   -0.13414E-01   688   0.182E-01 0.156E-04
CGA:   7    -0.491471901250E+03   -0.51972E-02   -0.51972E-02   688   0.755E-02 0.115E-04
CGA:   8    -0.491474352800E+03   -0.24516E-02   -0.24522E-02   688   0.361E-02-0.157E-04
CGA:   9    -0.491475435893E+03   -0.10831E-02   -0.10831E-02   688   0.140E-02 0.445E-05
CGA:  10    -0.491475855159E+03   -0.41927E-03   -0.41930E-03   688   0.482E-03-0.296E-05
CGA:  11    -0.491476009165E+03   -0.15401E-03   -0.15392E-03   688   0.196E-03 0.304E-05
CGA:  12    -0.491476078617E+03   -0.69453E-04   -0.69586E-04   688   0.120E-03-0.229E-05
   4 F= -.49556200E+03 E0= -.49554161E+03  d E =-.304782E+00  mag=     0.3896
       N       E                     dE             d eps       ncg     rms          ort
SDA:   1    -0.491258895340E+03    0.21711E+00    0.00000E+00   688   0.611E+00 0.000E+00
CGA:   2    -0.491420963188E+03   -0.16207E+00   -0.16217E+00   688   0.214E+00 0.104E-02
CGA:   3    -0.491469887143E+03   -0.48924E-01   -0.48593E-01   688   0.523E-01-0.885E-03
CGA:   4    -0.491480553362E+03   -0.10666E-01   -0.10670E-01   688   0.111E-01 0.127E-04
CGA:   5    -0.491482923861E+03   -0.23705E-02   -0.23698E-02   688   0.272E-02-0.134E-04
CGA:   6    -0.491483502772E+03   -0.57891E-03   -0.57939E-03   688   0.749E-03 0.728E-05
CGA:   7    -0.491483728356E+03   -0.22558E-03   -0.22554E-03   688   0.306E-03 0.239E-05
CGA:   8    -0.491483836927E+03   -0.10857E-03   -0.10873E-03   688   0.184E-03-0.230E-05
CGA:   9    -0.491483895765E+03   -0.58839E-04   -0.58813E-04   688   0.102E-03 0.781E-06
   5 F= -.49556915E+03 E0= -.49554929E+03  d E =-.311933E+00  mag=     0.3507
       N       E                     dE             d eps       ncg     rms          ort
SDA:   1    -0.490425339798E+03    0.10585E+01    0.00000E+00   688   0.303E+01 0.000E+00
CGA:   2    -0.491260982490E+03   -0.83564E+00   -0.83605E+00   688   0.105E+01 0.118E-01
CGA:   3    -0.491522884623E+03   -0.26190E+00   -0.26097E+00   688   0.246E+00-0.704E-02
CGA:   4    -0.491574077501E+03   -0.51193E-01   -0.51232E-01   688   0.483E-01 0.392E-04
CGA:   5    -0.491585873557E+03   -0.11796E-01   -0.11796E-01   688   0.139E-01 0.227E-05
CGA:   6    -0.491589381678E+03   -0.35081E-02   -0.35080E-02   688   0.595E-02-0.592E-05
CGA:   7    -0.491591038106E+03   -0.16564E-02   -0.16564E-02   688   0.279E-02 0.293E-05
CGA:   8    -0.491591906594E+03   -0.86849E-03   -0.86892E-03   688   0.117E-02-0.139E-04
CGA:   9    -0.491592255462E+03   -0.34887E-03   -0.34893E-03   688   0.424E-03-0.364E-05
CGA:  10    -0.491592385781E+03   -0.13032E-03   -0.13040E-03   688   0.155E-03-0.316E-05
CGA:  11    -0.491592436952E+03   -0.51171E-04   -0.51158E-04   688   0.749E-04 0.287E-06
   6 F= -.49567602E+03 E0= -.49565677E+03  d E =-.106866E+00  mag=     0.3108
       N       E                     dE             d eps       ncg     rms          ort
SDA:   1    -0.490561872035E+03    0.10305E+01    0.00000E+00   688   0.276E+01 0.000E+00
CGA:   2    -0.491326483313E+03   -0.76461E+00   -0.76486E+00   688   0.948E+00 0.937E-02
CGA:   3    -0.491565137681E+03   -0.23865E+00   -0.23804E+00   688   0.220E+00-0.541E-02
CGA:   4    -0.491611055590E+03   -0.45918E-01   -0.45940E-01   688   0.437E-01 0.145E-04
CGA:   5    -0.491621620957E+03   -0.10565E-01   -0.10565E-01   688   0.127E-01 0.384E-05
CGA:   6    -0.491624780701E+03   -0.31597E-02   -0.31594E-02   688   0.540E-02-0.892E-05
CGA:   7    -0.491626294967E+03   -0.15143E-02   -0.15143E-02   688   0.249E-02 0.296E-05
CGA:   8    -0.491627087726E+03   -0.79276E-03   -0.79327E-03   688   0.101E-02-0.132E-04
CGA:   9    -0.491627400044E+03   -0.31232E-03   -0.31244E-03   688   0.360E-03-0.422E-05
CGA:  10    -0.491627511040E+03   -0.11100E-03   -0.11106E-03   688   0.133E-03-0.255E-05
CGA:  11    -0.491627551406E+03   -0.40366E-04   -0.40370E-04   688   0.659E-04-0.150E-06
   7 F= -.49570884E+03 E0= -.49569001E+03  d E =-.139692E+00  mag=     0.2839
       N       E                     dE             d eps       ncg     rms          ort
SDA:   1    -0.490819923108E+03    0.80759E+00    0.00000E+00   688   0.213E+01 0.000E+00
CGA:   2    -0.491480783862E+03   -0.66086E+00   -0.66078E+00   688   0.686E+00 0.158E-02
CGA:   3    -0.491633573189E+03   -0.15279E+00   -0.15272E+00   688   0.195E+00-0.289E-03
CGA:   4    -0.491667843329E+03   -0.34270E-01   -0.34316E-01   688   0.390E-01-0.970E-04
CGA:   5    -0.491676531960E+03   -0.86886E-02   -0.86891E-02   688   0.103E-01 0.189E-04
CGA:   6    -0.491679096397E+03   -0.25644E-02   -0.25640E-02   688   0.338E-02-0.113E-04
CGA:   7    -0.491680127896E+03   -0.10315E-02   -0.10316E-02   688   0.150E-02-0.290E-05
CGA:   8    -0.491680624612E+03   -0.49672E-03   -0.49674E-03   688   0.638E-03-0.393E-06
CGA:   9    -0.491680835501E+03   -0.21089E-03   -0.21101E-03   688   0.261E-03-0.231E-05
CGA:  10    -0.491680914572E+03   -0.79071E-04   -0.79101E-04   688   0.122E-03-0.125E-05
   8 F= -.49576199E+03 E0= -.49574392E+03  d E =-.531468E-01  mag=     0.2599
       N       E                     dE             d eps       ncg     rms          ort
SDA:   1    -0.491232904285E+03    0.44793E+00    0.00000E+00   688   0.114E+01 0.000E+00
CGA:   2    -0.491587405298E+03   -0.35450E+00   -0.35447E+00   688   0.356E+00 0.502E-03
CGA:   3    -0.491669152669E+03   -0.81747E-01   -0.81731E-01   688   0.951E-01-0.917E-04
CGA:   4    -0.491686088857E+03   -0.16936E-01   -0.16948E-01   688   0.201E-01-0.393E-04
CGA:   5    -0.491690482247E+03   -0.43934E-02   -0.43938E-02   688   0.530E-02 0.152E-04
CGA:   6    -0.491691811775E+03   -0.13295E-02   -0.13293E-02   688   0.177E-02-0.780E-05
CGA:   7    -0.491692360159E+03   -0.54838E-03   -0.54846E-03   688   0.818E-03-0.168E-05
CGA:   8    -0.491692635090E+03   -0.27493E-03   -0.27497E-03   688   0.364E-03-0.616E-06
CGA:   9    -0.491692762234E+03   -0.12714E-03   -0.12729E-03   688   0.152E-03-0.197E-05
CGA:  10    -0.491692818080E+03   -0.55846E-04   -0.55955E-04   688   0.702E-04-0.122E-05
   9 F= -.49577358E+03 E0= -.49575660E+03  d E =-.647395E-01  mag=     0.2269
       N       E                     dE             d eps       ncg     rms          ort
SDA:   1    -0.491507268953E+03    0.18549E+00    0.00000E+00   688   0.544E+00 0.000E+00
CGA:   2    -0.491675229745E+03   -0.16796E+00   -0.16795E+00   688   0.163E+00 0.198E-03
CGA:   3    -0.491712379630E+03   -0.37150E-01   -0.37150E-01   688   0.450E-01 0.227E-04
CGA:   4    -0.491720366185E+03   -0.79866E-02   -0.79871E-02   688   0.918E-02-0.329E-04
CGA:   5    -0.491722366132E+03   -0.19999E-02   -0.20001E-02   688   0.228E-02 0.453E-05
CGA:   6    -0.491722939771E+03   -0.57364E-03   -0.57356E-03   688   0.734E-03-0.286E-05
CGA:   7    -0.491723160922E+03   -0.22115E-03   -0.22118E-03   688   0.353E-03-0.156E-05
CGA:   8    -0.491723269478E+03   -0.10856E-03   -0.10850E-03   688   0.172E-03 0.195E-05
CGA:   9    -0.491723326485E+03   -0.57007E-04   -0.57077E-04   688   0.823E-04-0.153E-05
  10 F= -.49580447E+03 E0= -.49578825E+03  d E =-.308833E-01  mag=     0.2056
       N       E                     dE             d eps       ncg     rms          ort
SDA:   1    -0.489835020250E+03    0.18882E+01    0.00000E+00   688   0.494E+01 0.000E+00
CGA:   2    -0.491317720152E+03   -0.14827E+01   -0.14825E+01   688   0.169E+01 0.895E-02
CGA:   3    -0.491655778651E+03   -0.33806E+00   -0.33746E+00   688   0.529E+00-0.470E-03
CGA:   4    -0.491751380314E+03   -0.95602E-01   -0.95783E-01   688   0.876E-01-0.207E-03
CGA:   5    -0.491771848086E+03   -0.20468E-01   -0.20467E-01   688   0.215E-01-0.364E-05
CGA:   6    -0.491777221520E+03   -0.53734E-02   -0.53734E-02   688   0.691E-02-0.101E-05
CGA:   7    -0.491779218110E+03   -0.19966E-02   -0.19966E-02   688   0.306E-02-0.432E-05
CGA:   8    -0.491780176461E+03   -0.95835E-03   -0.95810E-03   688   0.133E-02 0.642E-05
CGA:   9    -0.491780611073E+03   -0.43461E-03   -0.43467E-03   688   0.545E-03-0.147E-05
CGA:  10    -0.491780785036E+03   -0.17396E-03   -0.17397E-03   688   0.224E-03-0.271E-06
CGA:  11    -0.491780857933E+03   -0.72897E-04   -0.72859E-04   688   0.118E-03 0.745E-06
  11 F= -.49586281E+03 E0= -.49584812E+03  d E =-.892250E-01  mag=     0.1759
       N       E                     dE             d eps       ncg     rms          ort
SDA:   1    -0.483924925741E+03    0.78559E+01    0.00000E+00   688   0.205E+02 0.000E+00
CGA:   2    -0.489562816582E+03   -0.56379E+01   -0.56412E+01   688   0.855E+01 0.114E+00
CGA:   3    -0.491181212724E+03   -0.16184E+01   -0.16041E+01   688   0.218E+01 0.690E-02
CGA:   4    -0.491631609558E+03   -0.45040E+00   -0.45119E+00   688   0.340E+00 0.150E-02
CGA:   5    -0.491713412006E+03   -0.81802E-01   -0.81806E-01   688   0.895E-01 0.202E-04
CGA:   6    -0.491734793809E+03   -0.21382E-01   -0.21380E-01   688   0.271E-01-0.169E-04
CGA:   7    -0.491742894148E+03   -0.81003E-02   -0.80999E-02   688   0.111E-01 0.711E-05
CGA:   8    -0.491746583150E+03   -0.36890E-02   -0.36884E-02   688   0.469E-02 0.964E-05
CGA:   9    -0.491748157425E+03   -0.15743E-02   -0.15741E-02   688   0.184E-02 0.173E-05
CGA:  10    -0.491748763083E+03   -0.60566E-03   -0.60563E-03   688   0.683E-03 0.339E-06
CGA:  11    -0.491748995477E+03   -0.23239E-03   -0.23232E-03   688   0.339E-03 0.915E-06
CGA:  12    -0.491749109889E+03   -0.11441E-03   -0.11436E-03   688   0.197E-03 0.726E-06
CGA:  13    -0.491749188107E+03   -0.78218E-04   -0.78126E-04   688   0.119E-03 0.711E-06
  12 F= -.49583187E+03 E0= -.49582045E+03  d E =-.582852E-01  mag=     0.1184
       N       E                     dE             d eps       ncg     rms          ort
SDA:   1    -0.488467016538E+03    0.32821E+01    0.00000E+00   688   0.850E+01 0.000E+00
CGA:   2    -0.490986156685E+03   -0.25191E+01   -0.25192E+01   688   0.290E+01 0.804E-02
CGA:   3    -0.491585241355E+03   -0.59908E+00   -0.59709E+00   688   0.866E+00-0.722E-03
CGA:   4    -0.491740988003E+03   -0.15575E+00   -0.15623E+00   688   0.155E+00-0.631E-03
CGA:   5    -0.491775567679E+03   -0.34580E-01   -0.34578E-01   688   0.391E-01 0.395E-04
CGA:   6    -0.491785354756E+03   -0.97871E-02   -0.97862E-02   688   0.117E-01-0.686E-05
CGA:   7    -0.491789054875E+03   -0.37001E-02   -0.37002E-02   688   0.491E-02-0.257E-05
CGA:   8    -0.491790681130E+03   -0.16263E-02   -0.16260E-02   688   0.212E-02 0.598E-05
CGA:   9    -0.491791328874E+03   -0.64774E-03   -0.64778E-03   688   0.839E-03-0.171E-05
CGA:  10    -0.491791573541E+03   -0.24467E-03   -0.24466E-03   688   0.288E-03 0.319E-05
CGA:  11    -0.491791665974E+03   -0.92432E-04   -0.92469E-04   688   0.109E-03-0.126E-05
  13 F= -.49587397E+03 E0= -.49586190E+03  d E =-.100386E+00  mag=     0.1193
       N       E                     dE             d eps       ncg     rms          ort
SDA:   1    -0.491504478518E+03    0.28710E+00    0.00000E+00   688   0.818E+00 0.000E+00
CGA:   2    -0.491752518157E+03   -0.24804E+00   -0.24803E+00   688   0.241E+00 0.299E-03
CGA:   3    -0.491809104610E+03   -0.56586E-01   -0.56579E-01   688   0.669E-01-0.850E-05
CGA:   4    -0.491820760368E+03   -0.11656E-01   -0.11662E-01   688   0.139E-01-0.391E-04
CGA:   5    -0.491823795890E+03   -0.30355E-02   -0.30358E-02   688   0.331E-02 0.887E-05
CGA:   6    -0.491824634334E+03   -0.83844E-03   -0.83840E-03   688   0.106E-02-0.149E-05
CGA:   7    -0.491824942856E+03   -0.30852E-03   -0.30853E-03   688   0.463E-03-0.912E-06
CGA:   8    -0.491825084744E+03   -0.14189E-03   -0.14182E-03   688   0.189E-03 0.299E-05
CGA:   9    -0.491825146810E+03   -0.62066E-04   -0.62113E-04   688   0.688E-04-0.112E-05
  14 F= -.49590823E+03 E0= -.49589597E+03  d E =-.342649E-01  mag=     0.1230
       N       E                     dE             d eps       ncg     rms          ort
SDA:   1    -0.489003265828E+03    0.28218E+01    0.00000E+00   688   0.748E+01 0.000E+00
CGA:   2    -0.491194325377E+03   -0.21911E+01   -0.21909E+01   688   0.253E+01 0.151E-01
CGA:   3    -0.491711485418E+03   -0.51716E+00   -0.51566E+00   688   0.807E+00-0.187E-02
CGA:   4    -0.491855572199E+03   -0.14409E+00   -0.14445E+00   688   0.131E+00-0.364E-03
CGA:   5    -0.491886805812E+03   -0.31234E-01   -0.31230E-01   688   0.310E-01-0.185E-04
CGA:   6    -0.491894568090E+03   -0.77623E-02   -0.77621E-02   688   0.100E-01-0.144E-05
CGA:   7    -0.491897450745E+03   -0.28827E-02   -0.28827E-02   688   0.417E-02-0.310E-05
CGA:   8    -0.491898799581E+03   -0.13488E-02   -0.13484E-02   688   0.173E-02 0.871E-05
CGA:   9    -0.491899374255E+03   -0.57467E-03   -0.57473E-03   688   0.649E-03-0.101E-05
CGA:  10    -0.491899583120E+03   -0.20886E-03   -0.20886E-03   688   0.213E-03 0.995E-07
CGA:  11    -0.491899654835E+03   -0.71715E-04   -0.71729E-04   688   0.800E-04-0.274E-06
  15 F= -.49598491E+03 E0= -.49597266E+03  d E =-.110939E+00  mag=     0.1240
       N       E                     dE             d eps       ncg     rms          ort
SDA:   1    -0.480195971700E+03    0.11704E+02    0.00000E+00   688   0.316E+02 0.000E+00
CGA:   2    -0.488513854345E+03   -0.83179E+01   -0.83302E+01   688   0.129E+02 0.206E+00
CGA:   3    -0.491065391135E+03   -0.25515E+01   -0.25226E+01   688   0.329E+01-0.509E-02
CGA:   4    -0.491745592507E+03   -0.68020E+00   -0.68139E+00   688   0.510E+00 0.234E-02
CGA:   5    -0.491869275376E+03   -0.12368E+00   -0.12367E+00   688   0.132E+00-0.192E-03
CGA:   6    -0.491900718842E+03   -0.31443E-01   -0.31440E-01   688   0.395E-01-0.446E-04
CGA:   7    -0.491912520532E+03   -0.11802E-01   -0.11802E-01   688   0.157E-01-0.710E-05
CGA:   8    -0.491917772600E+03   -0.52521E-02   -0.52518E-02   688   0.648E-02 0.759E-05
CGA:   9    -0.491919929203E+03   -0.21566E-02   -0.21565E-02   688   0.241E-02 0.266E-05
CGA:  10    -0.491920707520E+03   -0.77832E-03   -0.77826E-03   688   0.773E-03 0.161E-05
CGA:  11    -0.491920963773E+03   -0.25625E-03   -0.25632E-03   688   0.298E-03-0.140E-05
CGA:  12    -0.491921057268E+03   -0.93496E-04   -0.93491E-04   688   0.139E-03 0.125E-06
  16 F= -.49601002E+03 E0= -.49599803E+03  d E =-.136050E+00  mag=     0.1185
       N       E                     dE             d eps       ncg     rms          ort
SDA:   1    -0.490369268597E+03    0.15517E+01    0.00000E+00   688   0.401E+01 0.000E+00
CGA:   2    -0.491574074556E+03   -0.12048E+01   -0.12048E+01   688   0.122E+01 0.977E-03
CGA:   3    -0.491851375064E+03   -0.27730E+00   -0.27712E+00   688   0.352E+00-0.719E-03
CGA:   4    -0.491912168968E+03   -0.60794E-01   -0.60930E-01   688   0.689E-01-0.244E-03
CGA:   5    -0.491927340828E+03   -0.15172E-01   -0.15171E-01   688   0.161E-01 0.192E-04
CGA:   6    -0.491931386510E+03   -0.40457E-02   -0.40457E-02   688   0.498E-02-0.827E-06
CGA:   7    -0.491932889736E+03   -0.15032E-02   -0.15033E-02   688   0.207E-02-0.303E-05
CGA:   8    -0.491933562232E+03   -0.67250E-03   -0.67237E-03   688   0.897E-03 0.257E-05
CGA:   9    -0.491933842083E+03   -0.27985E-03   -0.27989E-03   688   0.351E-03-0.138E-05
CGA:  10    -0.491933945809E+03   -0.10373E-03   -0.10370E-03   688   0.113E-03 0.188E-05
CGA:  11    -0.491933982761E+03   -0.36953E-04   -0.36975E-04   688   0.398E-04-0.528E-06
  17 F= -.49602167E+03 E0= -.49600980E+03  d E =-.147699E+00  mag=     0.1165
       N       E                     dE             d eps       ncg     rms          ort
SDA:   1    -0.491291699217E+03    0.64225E+00    0.00000E+00   688   0.171E+01 0.000E+00
CGA:   2    -0.491815294220E+03   -0.52360E+00   -0.52355E+00   688   0.494E+00 0.108E-02
CGA:   3    -0.491933786615E+03   -0.11849E+00   -0.11847E+00   688   0.126E+00-0.134E-03
CGA:   4    -0.491957114155E+03   -0.23328E-01   -0.23340E-01   688   0.277E-01-0.522E-04
CGA:   5    -0.491962972102E+03   -0.58579E-02   -0.58575E-02   688   0.694E-02 0.782E-05
CGA:   6    -0.491964720896E+03   -0.17488E-02   -0.17487E-02   688   0.222E-02-0.387E-05
CGA:   7    -0.491965413030E+03   -0.69213E-03   -0.69212E-03   688   0.103E-02 0.435E-06
CGA:   8    -0.491965741185E+03   -0.32815E-03   -0.32803E-03   688   0.458E-03 0.307E-05
CGA:   9    -0.491965882611E+03   -0.14143E-03   -0.14148E-03   688   0.166E-03-0.191E-05
CGA:  10    -0.491965932752E+03   -0.50141E-04   -0.50125E-04   688   0.511E-04 0.766E-06
  18 F= -.49605517E+03 E0= -.49604307E+03  d E =-.334987E-01  mag=     0.1202
       N       E                     dE             d eps       ncg     rms          ort
SDA:   1    -0.490773711021E+03    0.11922E+01    0.00000E+00   688   0.306E+01 0.000E+00
CGA:   2    -0.491709203709E+03   -0.93549E+00   -0.93537E+00   688   0.897E+00 0.287E-02
CGA:   3    -0.491920103259E+03   -0.21090E+00   -0.21082E+00   688   0.244E+00-0.434E-03
CGA:   4    -0.491963755932E+03   -0.43653E-01   -0.43704E-01   688   0.522E-01-0.105E-03
CGA:   5    -0.491974998573E+03   -0.11243E-01   -0.11241E-01   688   0.124E-01 0.544E-05
CGA:   6    -0.491978214514E+03   -0.32159E-02   -0.32159E-02   688   0.402E-02-0.317E-05
CGA:   7    -0.491979470026E+03   -0.12555E-02   -0.12555E-02   688   0.190E-02-0.536E-06
CGA:   8    -0.491980077335E+03   -0.60731E-03   -0.60712E-03   688   0.857E-03 0.464E-05
CGA:   9    -0.491980345156E+03   -0.26782E-03   -0.26790E-03   688   0.314E-03-0.233E-05
CGA:  10    -0.491980441704E+03   -0.96548E-04   -0.96529E-04   688   0.100E-03 0.728E-06
  19 F= -.49607167E+03 E0= -.49605922E+03  d E =-.500007E-01  mag=     0.1264
       N       E                     dE             d eps       ncg     rms          ort
SDA:   1    -0.491608694030E+03    0.37165E+00    0.00000E+00   688   0.999E+00 0.000E+00
CGA:   2    -0.491910035141E+03   -0.30134E+00   -0.30132E+00   688   0.292E+00 0.447E-03
CGA:   3    -0.491982044532E+03   -0.72009E-01   -0.71992E-01   688   0.641E-01-0.174E-03
CGA:   4    -0.491995345529E+03   -0.13301E-01   -0.13299E-01   688   0.128E-01-0.734E-05
CGA:   5    -0.491998281078E+03   -0.29355E-02   -0.29356E-02   688   0.323E-02 0.198E-05
CGA:   6    -0.491999118468E+03   -0.83739E-03   -0.83739E-03   688   0.113E-02 0.468E-06
CGA:   7    -0.491999466137E+03   -0.34767E-03   -0.34762E-03   688   0.531E-03 0.155E-05
CGA:   8    -0.491999642074E+03   -0.17594E-03   -0.17600E-03   688   0.233E-03-0.109E-05
CGA:   9    -0.491999716949E+03   -0.74875E-04   -0.74882E-04   688   0.856E-04-0.151E-06
  20 F= -.49609216E+03 E0= -.49607934E+03  d E =-.204917E-01  mag=     0.1330
       N       E                     dE             d eps       ncg     rms          ort
SDA:   1    -0.491289836181E+03    0.70981E+00    0.00000E+00   688   0.183E+01 0.000E+00
CGA:   2    -0.491843139650E+03   -0.55330E+00   -0.55326E+00   688   0.537E+00 0.109E-02
CGA:   3    -0.491975259621E+03   -0.13212E+00   -0.13208E+00   688   0.120E+00-0.374E-03
CGA:   4    -0.491999901730E+03   -0.24642E-01   -0.24639E-01   688   0.241E-01-0.149E-04
CGA:   5    -0.492005345893E+03   -0.54442E-02   -0.54443E-02   688   0.626E-02 0.684E-05
CGA:   6    -0.492006917367E+03   -0.15715E-02   -0.15714E-02   688   0.217E-02-0.351E-05
CGA:   7    -0.492007573525E+03   -0.65616E-03   -0.65605E-03   688   0.997E-03 0.409E-05
CGA:   8    -0.492007907570E+03   -0.33405E-03   -0.33417E-03   688   0.438E-03-0.212E-05
CGA:   9    -0.492008047793E+03   -0.14022E-03   -0.14024E-03   688   0.168E-03-0.317E-06
CGA:  10    -0.492008096324E+03   -0.48532E-04   -0.48532E-04   688   0.636E-04 0.290E-07
  21 F= -.49610215E+03 E0= -.49608874E+03  d E =-.304854E-01  mag=     0.1434
       N       E                     dE             d eps       ncg     rms          ort
SDA:   1    -0.491658754727E+03    0.34929E+00    0.00000E+00   688   0.943E+00 0.000E+00
CGA:   2    -0.491944295952E+03   -0.28554E+00   -0.28553E+00   688   0.270E+00 0.317E-03
CGA:   3    -0.492010952441E+03   -0.66656E-01   -0.66647E-01   688   0.579E-01-0.105E-03
CGA:   4    -0.492023242107E+03   -0.12290E-01   -0.12289E-01   688   0.111E-01-0.143E-04
CGA:   5    -0.492025827950E+03   -0.25858E-02   -0.25858E-02   688   0.291E-02-0.130E-06
CGA:   6    -0.492026569282E+03   -0.74133E-03   -0.74132E-03   688   0.100E-02-0.536E-06
CGA:   7    -0.492026883017E+03   -0.31374E-03   -0.31373E-03   688   0.464E-03 0.287E-06
CGA:   8    -0.492027039135E+03   -0.15612E-03   -0.15619E-03   688   0.198E-03-0.125E-05
CGA:   9    -0.492027102905E+03   -0.63770E-04   -0.63784E-04   688   0.737E-04-0.313E-06
  22 F= -.49612187E+03 E0= -.49610790E+03  d E =-.197144E-01  mag=     0.1542
       N       E                     dE             d eps       ncg     rms          ort
SDA:   1    -0.488734641854E+03    0.32924E+01    0.00000E+00   688   0.852E+01 0.000E+00
CGA:   2    -0.491293828954E+03   -0.25592E+01   -0.25588E+01   688   0.251E+01 0.107E-01
CGA:   3    -0.491889275447E+03   -0.59545E+00   -0.59515E+00   688   0.644E+00-0.204E-02
CGA:   4    -0.492009184059E+03   -0.11991E+00   -0.12011E+00   688   0.142E+00-0.695E-04
CGA:   5    -0.492038642669E+03   -0.29459E-01   -0.29448E-01   688   0.345E-01 0.771E-07
CGA:   6    -0.492047355474E+03   -0.87128E-02   -0.87121E-02   688   0.104E-01-0.204E-04
CGA:   7    -0.492050556716E+03   -0.32012E-02   -0.32013E-02   688   0.489E-02-0.215E-05
CGA:   8    -0.492052081163E+03   -0.15244E-02   -0.15245E-02   688   0.228E-02 0.744E-06
CGA:   9    -0.492052743387E+03   -0.66222E-03   -0.66230E-03   688   0.877E-03-0.448E-05
CGA:  10    -0.492052998979E+03   -0.25559E-03   -0.25559E-03   688   0.273E-03 0.328E-06
CGA:  11    -0.492053089631E+03   -0.90652E-04   -0.90661E-04   688   0.975E-04-0.161E-06
  23 F= -.49614988E+03 E0= -.49613469E+03  d E =-.477300E-01  mag=     0.1808
       N       E                     dE             d eps       ncg     rms          ort
SDA:   1    -0.491443682301E+03    0.60932E+00    0.00000E+00   688   0.160E+01 0.000E+00
CGA:   2    -0.491934023077E+03   -0.49034E+00   -0.49034E+00   688   0.467E+00-0.216E-04
CGA:   3    -0.492048307589E+03   -0.11428E+00   -0.11428E+00   688   0.108E+00-0.277E-04
CGA:   4    -0.492070191470E+03   -0.21884E-01   -0.21883E-01   688   0.225E-01-0.138E-04
CGA:   5    -0.492075140720E+03   -0.49493E-02   -0.49495E-02   688   0.628E-02 0.141E-04
CGA:   6    -0.492076689863E+03   -0.15491E-02   -0.15490E-02   688   0.218E-02-0.601E-05
CGA:   7    -0.492077345077E+03   -0.65521E-03   -0.65515E-03   688   0.103E-02 0.284E-05
CGA:   8    -0.492077678890E+03   -0.33381E-03   -0.33387E-03   688   0.467E-03-0.123E-05
CGA:   9    -0.492077818772E+03   -0.13988E-03   -0.13991E-03   688   0.190E-03-0.152E-05
CGA:  10    -0.492077870229E+03   -0.51458E-04   -0.51458E-04   688   0.665E-04 0.930E-07
  24 F= -.49617456E+03 E0= -.49615872E+03  d E =-.246765E-01  mag=     0.1929
       N       E                     dE             d eps       ncg     rms          ort
SDA:   1    -0.491527312185E+03    0.55051E+00    0.00000E+00   688   0.141E+01 0.000E+00
CGA:   2    -0.491959008377E+03   -0.43170E+00   -0.43170E+00   688   0.411E+00-0.656E-04
CGA:   3    -0.492059624250E+03   -0.10062E+00   -0.10061E+00   688   0.943E-01-0.230E-04
CGA:   4    -0.492078811723E+03   -0.19187E-01   -0.19186E-01   688   0.195E-01-0.123E-04
CGA:   5    -0.492083112561E+03   -0.43008E-02   -0.43011E-02   688   0.543E-02 0.130E-04
CGA:   6    -0.492084472695E+03   -0.13601E-02   -0.13600E-02   688   0.186E-02-0.594E-05
CGA:   7    -0.492085046921E+03   -0.57423E-03   -0.57411E-03   688   0.882E-03 0.346E-05
CGA:   8    -0.492085335889E+03   -0.28897E-03   -0.28908E-03   688   0.395E-03-0.212E-05
CGA:   9    -0.492085455028E+03   -0.11914E-03   -0.11916E-03   688   0.161E-03-0.642E-06
CGA:  10    -0.492085497701E+03   -0.42672E-04   -0.42670E-04   688   0.577E-04-0.220E-06
  25 F= -.49618202E+03 E0= -.49616565E+03  d E =-.321368E-01  mag=     0.2024
       N       E                     dE             d eps       ncg     rms          ort
SDA:   1    -0.491294056310E+03    0.79140E+00    0.00000E+00   688   0.205E+01 0.000E+00
CGA:   2    -0.491919140923E+03   -0.62508E+00   -0.62508E+00   688   0.604E+00 0.771E-04
CGA:   3    -0.492062907257E+03   -0.14377E+00   -0.14374E+00   688   0.155E+00-0.201E-03
CGA:   4    -0.492092288297E+03   -0.29381E-01   -0.29392E-01   688   0.330E-01-0.368E-04
CGA:   5    -0.492099220536E+03   -0.69322E-02   -0.69318E-02   688   0.863E-02 0.131E-04
CGA:   6    -0.492101416047E+03   -0.21955E-02   -0.21954E-02   688   0.272E-02-0.628E-05
CGA:   7    -0.492102258671E+03   -0.84262E-03   -0.84260E-03   688   0.132E-02 0.730E-06
CGA:   8    -0.492102663527E+03   -0.40486E-03   -0.40483E-03   688   0.620E-03 0.986E-06
CGA:   9    -0.492102845217E+03   -0.18169E-03   -0.18172E-03   688   0.240E-03-0.166E-05
CGA:  10    -0.492102914903E+03   -0.69686E-04   -0.69688E-04   688   0.798E-04-0.135E-06
  26 F= -.49619887E+03 E0= -.49618208E+03  d E =-.168520E-01  mag=     0.2112
       N       E                     dE             d eps       ncg     rms          ort
SDA:   1    -0.492046674101E+03    0.56171E-01    0.00000E+00   688   0.145E+00 0.000E+00
CGA:   2    -0.492091002625E+03   -0.44329E-01   -0.44329E-01   688   0.417E-01-0.104E-04
CGA:   3    -0.492101250125E+03   -0.10247E-01   -0.10247E-01   688   0.953E-02 0.157E-05
CGA:   4    -0.492103208932E+03   -0.19588E-02   -0.19585E-02   688   0.191E-02-0.545E-05
CGA:   5    -0.492103632462E+03   -0.42353E-03   -0.42361E-03   688   0.544E-03 0.164E-05
CGA:   6    -0.492103769089E+03   -0.13663E-03   -0.13660E-03   688   0.189E-03-0.149E-05
CGA:   7    -0.492103827818E+03   -0.58729E-04   -0.58716E-04   688   0.944E-04 0.292E-06
  27 F= -.49619963E+03 E0= -.49618271E+03  d E =-.176050E-01  mag=     0.2140
       N       E                     dE             d eps       ncg     rms          ort
SDA:   1    -0.491520868439E+03    0.58290E+00    0.00000E+00   688   0.152E+01 0.000E+00
CGA:   2    -0.491985041652E+03   -0.46417E+00   -0.46417E+00   688   0.438E+00 0.387E-04
CGA:   3    -0.492091277967E+03   -0.10624E+00   -0.10623E+00   688   0.110E+00-0.587E-04
CGA:   4    -0.492112110399E+03   -0.20832E-01   -0.20839E-01   688   0.246E-01-0.181E-04
CGA:   5    -0.492117261760E+03   -0.51514E-02   -0.51515E-02   688   0.657E-02 0.177E-04
CGA:   6    -0.492118948977E+03   -0.16872E-02   -0.16872E-02   688   0.219E-02-0.459E-05
CGA:   7    -0.492119613886E+03   -0.66491E-03   -0.66484E-03   688   0.107E-02 0.213E-05
CGA:   8    -0.492119937787E+03   -0.32390E-03   -0.32383E-03   688   0.485E-03 0.223E-05
CGA:   9    -0.492120081803E+03   -0.14402E-03   -0.14406E-03   688   0.183E-03-0.147E-05
CGA:  10    -0.492120134861E+03   -0.53058E-04   -0.53057E-04   688   0.631E-04 0.617E-07
  28 F= -.49621615E+03 E0= -.49619888E+03  d E =-.165260E-01  mag=     0.2236
       N       E                     dE             d eps       ncg     rms          ort
SDA:   1    -0.491809830155E+03    0.31025E+00    0.00000E+00   688   0.795E+00 0.000E+00
CGA:   2    -0.492053175802E+03   -0.24335E+00   -0.24335E+00   688   0.227E+00-0.120E-04
CGA:   3    -0.492109031472E+03   -0.55856E-01   -0.55855E-01   688   0.534E-01-0.346E-05
CGA:   4    -0.492119613269E+03   -0.10582E-01   -0.10582E-01   688   0.117E-01-0.953E-05
CGA:   5    -0.492122072318E+03   -0.24590E-02   -0.24595E-02   688   0.327E-02 0.130E-04
CGA:   6    -0.492122899709E+03   -0.82739E-03   -0.82733E-03   688   0.108E-02-0.477E-05
CGA:   7    -0.492123239978E+03   -0.34027E-03   -0.34012E-03   688   0.515E-03 0.308E-05
CGA:   8    -0.492123402717E+03   -0.16274E-03   -0.16272E-03   688   0.242E-03 0.461E-06
CGA:   9    -0.492123472636E+03   -0.69920E-04   -0.69933E-04   688   0.975E-04-0.739E-06
  29 F= -.49621962E+03 E0= -.49620198E+03  d E =-.199985E-01  mag=     0.2340
       N       E                     dE             d eps       ncg     rms          ort
SDA:   1    -0.491637098709E+03    0.48630E+00    0.00000E+00   688   0.127E+01 0.000E+00
CGA:   2    -0.492021629536E+03   -0.38453E+00   -0.38451E+00   688   0.369E+00 0.328E-03
CGA:   3    -0.492112015645E+03   -0.90386E-01   -0.90379E-01   688   0.888E-01-0.775E-04
CGA:   4    -0.492129361344E+03   -0.17346E-01   -0.17348E-01   688   0.202E-01-0.156E-04
CGA:   5    -0.492133550520E+03   -0.41892E-02   -0.41892E-02   688   0.554E-02 0.138E-04
CGA:   6    -0.492134973482E+03   -0.14230E-02   -0.14229E-02   688   0.191E-02-0.574E-05
CGA:   7    -0.492135565082E+03   -0.59160E-03   -0.59143E-03   688   0.922E-03 0.397E-05
CGA:   8    -0.492135847928E+03   -0.28285E-03   -0.28278E-03   688   0.445E-03 0.193E-05
CGA:   9    -0.492135974091E+03   -0.12616E-03   -0.12617E-03   688   0.182E-03-0.609E-06
CGA:  10    -0.492136027465E+03   -0.53374E-04   -0.53365E-04   688   0.688E-04 0.442E-06
  30 F= -.49623359E+03 E0= -.49621505E+03  d E =-.139642E-01  mag=     0.2593
       N       E                     dE             d eps       ncg     rms          ort
SDA:   1    -0.491680938662E+03    0.45504E+00    0.00000E+00   688   0.116E+01 0.000E+00
CGA:   2    -0.492034212547E+03   -0.35327E+00   -0.35326E+00   688   0.337E+00 0.290E-03
CGA:   3    -0.492117325459E+03   -0.83113E-01   -0.83106E-01   688   0.794E-01-0.680E-04
CGA:   4    -0.492133021422E+03   -0.15696E-01   -0.15698E-01   688   0.181E-01-0.151E-04
CGA:   5    -0.492136789954E+03   -0.37685E-02   -0.37687E-02   688   0.494E-02 0.136E-04
CGA:   6    -0.492138070902E+03   -0.12809E-02   -0.12809E-02   688   0.170E-02-0.602E-05
CGA:   7    -0.492138611882E+03   -0.54098E-03   -0.54075E-03   688   0.821E-03 0.478E-05
CGA:   8    -0.492138873093E+03   -0.26121E-03   -0.26117E-03   688   0.406E-03 0.108E-05
CGA:   9    -0.492138988481E+03   -0.11539E-03   -0.11539E-03   688   0.182E-03-0.172E-06
CGA:  10    -0.492139041351E+03   -0.52870E-04   -0.52867E-04   688   0.784E-04 0.266E-06
  31 F= -.49623794E+03 E0= -.49621841E+03  d E =-.183185E-01  mag=     0.2944
       N       E                     dE             d eps       ncg     rms          ort
SDA:   1    -0.491580658452E+03    0.55833E+00    0.00000E+00   688   0.145E+01 0.000E+00
CGA:   2    -0.492012036928E+03   -0.43138E+00   -0.43137E+00   688   0.425E+00 0.201E-03
CGA:   3    -0.492116266778E+03   -0.10423E+00   -0.10422E+00   688   0.102E+00-0.530E-04
CGA:   4    -0.492136799073E+03   -0.20532E-01   -0.20530E-01   688   0.210E-01-0.788E-06
CGA:   5    -0.492141452228E+03   -0.46532E-02   -0.46533E-02   688   0.558E-02 0.138E-04
CGA:   6    -0.492142849271E+03   -0.13970E-02   -0.13969E-02   688   0.196E-02-0.640E-05
CGA:   7    -0.492143431090E+03   -0.58182E-03   -0.58163E-03   688   0.876E-03 0.722E-05
CGA:   8    -0.492143725201E+03   -0.29411E-03   -0.29418E-03   688   0.397E-03-0.107E-05
CGA:   9    -0.492143851603E+03   -0.12640E-03   -0.12635E-03   688   0.176E-03 0.124E-05
CGA:  10    -0.492143900641E+03   -0.49038E-04   -0.49037E-04   688   0.852E-04-0.262E-06
  32 F= -.49624504E+03 E0= -.49622486E+03  d E =-.709275E-02  mag=     0.3246
       N       E                     dE             d eps       ncg     rms          ort
SDA:   1    -0.492134558046E+03    0.92936E-02    0.00000E+00   688   0.253E-01 0.000E+00
CGA:   2    -0.492142094305E+03   -0.75363E-02   -0.75363E-02   688   0.757E-02-0.329E-05
CGA:   3    -0.492143915692E+03   -0.18214E-02   -0.18214E-02   688   0.196E-02 0.182E-05
CGA:   4    -0.492144302489E+03   -0.38680E-03   -0.38659E-03   688   0.403E-03-0.259E-05
CGA:   5    -0.492144397029E+03   -0.94540E-04   -0.94517E-04   688   0.127E-03-0.595E-06
  33 F= -.49624524E+03 E0= -.49622489E+03  d E =-.729610E-02  mag=     0.3342
       N       E                     dE             d eps       ncg     rms          ort
SDA:   1    -0.491692871397E+03    0.45143E+00    0.00000E+00   688   0.117E+01 0.000E+00
CGA:   2    -0.492042924738E+03   -0.35005E+00   -0.35004E+00   688   0.342E+00 0.232E-03
CGA:   3    -0.492126946644E+03   -0.84022E-01   -0.84017E-01   688   0.811E-01-0.589E-04
CGA:   4    -0.492143271412E+03   -0.16325E-01   -0.16325E-01   688   0.170E-01-0.722E-05
CGA:   5    -0.492146994246E+03   -0.37228E-02   -0.37226E-02   688   0.470E-02 0.385E-05
CGA:   6    -0.492148145652E+03   -0.11514E-02   -0.11513E-02   688   0.164E-02-0.433E-05
CGA:   7    -0.492148630438E+03   -0.48479E-03   -0.48472E-03   688   0.755E-03 0.223E-05
CGA:   8    -0.492148874155E+03   -0.24372E-03   -0.24373E-03   688   0.355E-03-0.181E-06
CGA:   9    -0.492148978143E+03   -0.10399E-03   -0.10399E-03   688   0.159E-03-0.276E-06
CGA:  10    -0.492149018930E+03   -0.40787E-04   -0.40790E-04   688   0.622E-04 0.297E-06
  34 F= -.49625154E+03 E0= -.49623092E+03  d E =-.629870E-02  mag=     0.3592
       N       E                     dE             d eps       ncg     rms          ort
SDA:   1    -0.492146389853E+03    0.25883E-02    0.00000E+00   688   0.727E-02 0.000E+00
CGA:   2    -0.492148556160E+03   -0.21663E-02   -0.21663E-02   688   0.222E-02 0.984E-06
CGA:   3    -0.492149075782E+03   -0.51962E-03   -0.51963E-03   688   0.631E-03 0.271E-06
CGA:   4    -0.492149193722E+03   -0.11794E-03   -0.11792E-03   688   0.139E-03-0.224E-06
CGA:   5    -0.492149224522E+03   -0.30800E-04   -0.30812E-04   688   0.460E-04 0.261E-06
  35 F= -.49625161E+03 E0= -.49623090E+03  d E =-.637395E-02  mag=     0.3663
       N       E                     dE             d eps       ncg     rms          ort
SDA:   1    -0.492002154915E+03    0.14704E+00    0.00000E+00   688   0.390E+00 0.000E+00
CGA:   2    -0.492118456033E+03   -0.11630E+00   -0.11630E+00   688   0.115E+00 0.236E-04
CGA:   3    -0.492146567634E+03   -0.28112E-01   -0.28112E-01   688   0.274E-01-0.354E-05
CGA:   4    -0.492152075882E+03   -0.55082E-02   -0.55083E-02   688   0.563E-02 0.312E-05
CGA:   5    -0.492153367747E+03   -0.12919E-02   -0.12919E-02   688   0.153E-02 0.195E-05
CGA:   6    -0.492153764858E+03   -0.39711E-03   -0.39711E-03   688   0.553E-03-0.211E-06
CGA:   7    -0.492153933608E+03   -0.16875E-03   -0.16874E-03   688   0.277E-03 0.292E-06
CGA:   8    -0.492154024154E+03   -0.90546E-04   -0.90605E-04   688   0.125E-03-0.925E-06
  36 F= -.49625634E+03 E0= -.49623540E+03  d E =-.473165E-02  mag=     0.3839
       N       E                     dE             d eps       ncg     rms          ort
SDA:   1    -0.492060240586E+03    0.93693E-01    0.00000E+00   688   0.244E+00 0.000E+00
CGA:   2    -0.492133003922E+03   -0.72763E-01   -0.72763E-01   688   0.716E-01 0.707E-05
CGA:   3    -0.492150462145E+03   -0.17458E-01   -0.17458E-01   688   0.175E-01-0.527E-05
CGA:   4    -0.492153951060E+03   -0.34889E-02   -0.34890E-02   688   0.360E-02 0.243E-05
CGA:   5    -0.492154771251E+03   -0.82019E-03   -0.82023E-03   688   0.106E-02 0.151E-05
CGA:   6    -0.492155036467E+03   -0.26522E-03   -0.26521E-03   688   0.404E-03-0.124E-06
CGA:   7    -0.492155159351E+03   -0.12288E-03   -0.12289E-03   688   0.200E-03-0.311E-07
CGA:   8    -0.492155226509E+03   -0.67158E-04   -0.67213E-04   688   0.988E-04-0.763E-06
  37 F= -.49625748E+03 E0= -.49623633E+03  d E =-.586606E-02  mag=     0.4009
       N       E                     dE             d eps       ncg     rms          ort
SDA:   1    -0.492023259143E+03    0.13190E+00    0.00000E+00   688   0.358E+00 0.000E+00
CGA:   2    -0.492127356161E+03   -0.10410E+00   -0.10409E+00   688   0.105E+00 0.453E-04
CGA:   3    -0.492152839627E+03   -0.25483E-01   -0.25483E-01   688   0.263E-01-0.116E-04
CGA:   4    -0.492158074606E+03   -0.52350E-02   -0.52349E-02   688   0.526E-02-0.212E-05
CGA:   5    -0.492159320935E+03   -0.12463E-02   -0.12463E-02   688   0.140E-02 0.585E-06
CGA:   6    -0.492159703317E+03   -0.38238E-03   -0.38239E-03   688   0.502E-03-0.724E-06
CGA:   7    -0.492159864547E+03   -0.16123E-03   -0.16120E-03   688   0.260E-03 0.525E-06
CGA:   8    -0.492159947884E+03   -0.83337E-04   -0.83388E-04   688   0.123E-03-0.960E-06
  38 F= -.49626179E+03 E0= -.49624038E+03  d E =-.431513E-02  mag=     0.4176
       N       E                     dE             d eps       ncg     rms          ort
SDA:   1    -0.491944609486E+03    0.21526E+00    0.00000E+00   688   0.571E+00 0.000E+00
CGA:   2    -0.492110181800E+03   -0.16557E+00   -0.16557E+00   688   0.169E+00 0.129E-03
CGA:   3    -0.492150800163E+03   -0.40618E-01   -0.40615E-01   688   0.436E-01-0.285E-04
CGA:   4    -0.492159427660E+03   -0.86275E-02   -0.86277E-02   688   0.860E-02-0.176E-05
CGA:   5    -0.492161462001E+03   -0.20343E-02   -0.20342E-02   688   0.232E-02-0.292E-06
CGA:   6    -0.492162080441E+03   -0.61844E-03   -0.61844E-03   688   0.847E-03-0.623E-06
CGA:   7    -0.492162340326E+03   -0.25988E-03   -0.25987E-03   688   0.431E-03 0.429E-06
CGA:   8    -0.492162481122E+03   -0.14080E-03   -0.14084E-03   688   0.188E-03-0.786E-06
CGA:   9    -0.492162544872E+03   -0.63751E-04   -0.63790E-04   688   0.684E-04-0.577E-06
  39 F= -.49626386E+03 E0= -.49624211E+03  d E =-.637898E-02  mag=     0.4379
       N       E                     dE             d eps       ncg     rms          ort
SDA:   1    -0.492039576356E+03    0.12290E+00    0.00000E+00   688   0.333E+00 0.000E+00
CGA:   2    -0.492136131120E+03   -0.96555E-01   -0.96554E-01   688   0.952E-01 0.191E-04
CGA:   3    -0.492159735579E+03   -0.23604E-01   -0.23604E-01   688   0.231E-01-0.463E-05
CGA:   4    -0.492164433459E+03   -0.46979E-02   -0.46978E-02   688   0.468E-02 0.227E-05
CGA:   5    -0.492165505680E+03   -0.10722E-02   -0.10723E-02   688   0.127E-02 0.364E-05
CGA:   6    -0.492165838213E+03   -0.33253E-03   -0.33253E-03   688   0.447E-03 0.310E-07
CGA:   7    -0.492165980537E+03   -0.14232E-03   -0.14228E-03   688   0.226E-03 0.912E-06
CGA:   8    -0.492166055441E+03   -0.74904E-04   -0.74927E-04   688   0.107E-03-0.381E-06
  40 F= -.49626722E+03 E0= -.49624531E+03  d E =-.335965E-02  mag=     0.4522
       N       E                     dE             d eps       ncg     rms          ort
SDA:   1    -0.492133666766E+03    0.32314E-01    0.00000E+00   688   0.866E-01 0.000E+00
CGA:   2    -0.492158802651E+03   -0.25136E-01   -0.25136E-01   688   0.249E-01-0.142E-05
CGA:   3    -0.492164919278E+03   -0.61166E-02   -0.61165E-02   688   0.627E-02-0.341E-05
CGA:   4    -0.492166165739E+03   -0.12465E-02   -0.12466E-02   688   0.128E-02 0.194E-05
CGA:   5    -0.492166455499E+03   -0.28976E-03   -0.28982E-03   688   0.382E-03 0.146E-05
CGA:   6    -0.492166550971E+03   -0.95472E-04   -0.95482E-04   688   0.141E-03 0.462E-06
  41 F= -.49626763E+03 E0= -.49624564E+03  d E =-.377429E-02  mag=     0.4607
       N       E                     dE             d eps       ncg     rms          ort
SDA:   1    -0.492070935400E+03    0.95520E-01    0.00000E+00   688   0.261E+00 0.000E+00
CGA:   2    -0.492146558228E+03   -0.75623E-01   -0.75622E-01   688   0.716E-01 0.109E-04
CGA:   3    -0.492164734979E+03   -0.18177E-01   -0.18177E-01   688   0.166E-01 0.491E-05
CGA:   4    -0.492168209394E+03   -0.34744E-02   -0.34742E-02   688   0.363E-02-0.508E-05
CGA:   5    -0.492169007874E+03   -0.79848E-03   -0.79862E-03   688   0.115E-02 0.362E-05
CGA:   6    -0.492169280954E+03   -0.27308E-03   -0.27306E-03   688   0.421E-03-0.942E-06
CGA:   7    -0.492169415646E+03   -0.13469E-03   -0.13471E-03   688   0.204E-03-0.264E-06
CGA:   8    -0.492169485383E+03   -0.69738E-04   -0.69637E-04   688   0.915E-04 0.139E-05
  42 F= -.49627075E+03 E0= -.49624868E+03  d E =-.311599E-02  mag=     0.4743
       N       E                     dE             d eps       ncg     rms          ort
SDA:   1    -0.492000885138E+03    0.16853E+00    0.00000E+00   688   0.449E+00 0.000E+00
CGA:   2    -0.492131409995E+03   -0.13052E+00   -0.13052E+00   688   0.122E+00 0.364E-04
CGA:   3    -0.492162665170E+03   -0.31255E-01   -0.31255E-01   688   0.282E-01 0.364E-05
CGA:   4    -0.492168578036E+03   -0.59129E-02   -0.59126E-02   688   0.546E-02-0.484E-05
CGA:   5    -0.492169894774E+03   -0.13167E-02   -0.13168E-02   688   0.155E-02 0.431E-05
CGA:   6    -0.492170284044E+03   -0.38927E-03   -0.38924E-03   688   0.629E-03-0.200E-05
CGA:   7    -0.492170466452E+03   -0.18241E-03   -0.18238E-03   688   0.309E-03 0.115E-05
CGA:   8    -0.492170567288E+03   -0.10084E-03   -0.10080E-03   688   0.131E-03 0.616E-06
CGA:   9    -0.492170610734E+03   -0.43446E-04   -0.43494E-04   688   0.470E-04-0.803E-06
  43 F= -.49627210E+03 E0= -.49625001E+03  d E =-.446721E-02  mag=     0.4891
       N       E                     dE             d eps       ncg     rms          ort
SDA:   1    -0.492019239502E+03    0.15133E+00    0.00000E+00   688   0.413E+00 0.000E+00
CGA:   2    -0.492138143398E+03   -0.11890E+00   -0.11890E+00   688   0.111E+00 0.150E-05
CGA:   3    -0.492166548214E+03   -0.28405E-01   -0.28405E-01   688   0.258E-01 0.163E-04
CGA:   4    -0.492171886406E+03   -0.53382E-02   -0.53379E-02   688   0.539E-02-0.545E-05
CGA:   5    -0.492173092470E+03   -0.12061E-02   -0.12065E-02   688   0.156E-02 0.956E-05
CGA:   6    -0.492173474694E+03   -0.38222E-03   -0.38212E-03   688   0.553E-03-0.416E-05
CGA:   7    -0.492173651390E+03   -0.17670E-03   -0.17662E-03   688   0.255E-03 0.155E-05
CGA:   8    -0.492173739496E+03   -0.88106E-04   -0.88054E-04   688   0.112E-03 0.710E-06
  44 F= -.49627566E+03 E0= -.49625353E+03  d E =-.355655E-02  mag=     0.5021
       N       E                     dE             d eps       ncg     rms          ort
SDA:   1    -0.491558734181E+03    0.61492E+00    0.00000E+00   688   0.165E+01 0.000E+00
CGA:   2    -0.492033548244E+03   -0.47481E+00   -0.47481E+00   688   0.444E+00 0.667E-05
CGA:   3    -0.492146857240E+03   -0.11331E+00   -0.11331E+00   688   0.103E+00 0.676E-04
CGA:   4    -0.492168217664E+03   -0.21360E-01   -0.21360E-01   688   0.213E-01-0.546E-05
CGA:   5    -0.492173075103E+03   -0.48574E-02   -0.48579E-02   688   0.624E-02 0.166E-04
CGA:   6    -0.492174581230E+03   -0.15061E-02   -0.15060E-02   688   0.228E-02-0.685E-05
CGA:   7    -0.492175284489E+03   -0.70326E-03   -0.70315E-03   688   0.105E-02 0.270E-05
CGA:   8    -0.492175637428E+03   -0.35294E-03   -0.35279E-03   688   0.456E-03 0.228E-05
CGA:   9    -0.492175778127E+03   -0.14070E-03   -0.14076E-03   688   0.157E-03-0.184E-05
CGA:  10    -0.492175824512E+03   -0.46385E-04   -0.46358E-04   688   0.477E-04 0.140E-05
  45 F= -.49627858E+03 E0= -.49625649E+03  d E =-.647792E-02  mag=     0.5202
       N       E                     dE             d eps       ncg     rms          ort
SDA:   1    -0.492024139425E+03    0.15164E+00    0.00000E+00   688   0.414E+00 0.000E+00
CGA:   2    -0.492143436329E+03   -0.11930E+00   -0.11930E+00   688   0.111E+00-0.106E-04
CGA:   3    -0.492171805119E+03   -0.28369E-01   -0.28370E-01   688   0.260E-01 0.222E-04
CGA:   4    -0.492177172966E+03   -0.53678E-02   -0.53676E-02   688   0.533E-02-0.621E-05
CGA:   5    -0.492178387860E+03   -0.12149E-02   -0.12152E-02   688   0.148E-02 0.787E-05
CGA:   6    -0.492178758161E+03   -0.37030E-03   -0.37020E-03   688   0.536E-03-0.436E-05
CGA:   7    -0.492178927846E+03   -0.16969E-03   -0.16960E-03   688   0.253E-03 0.188E-05
CGA:   8    -0.492179014451E+03   -0.86605E-04   -0.86605E-04   688   0.109E-03-0.132E-07
  46 F= -.49628216E+03 E0= -.49626003E+03  d E =-.357969E-02  mag=     0.5313
       N       E                     dE             d eps       ncg     rms          ort
SDA:   1    -0.491801803475E+03    0.37712E+00    0.00000E+00   688   0.101E+01 0.000E+00
CGA:   2    -0.492093487219E+03   -0.29168E+00   -0.29168E+00   688   0.273E+00-0.290E-04
CGA:   3    -0.492162740113E+03   -0.69253E-01   -0.69255E-01   688   0.646E-01 0.532E-04
CGA:   4    -0.492176001092E+03   -0.13261E-01   -0.13261E-01   688   0.131E-01-0.752E-05
CGA:   5    -0.492178994598E+03   -0.29935E-02   -0.29939E-02   688   0.382E-02 0.118E-04
CGA:   6    -0.492179919560E+03   -0.92496E-03   -0.92480E-03   688   0.138E-02-0.595E-05
CGA:   7    -0.492180349967E+03   -0.43041E-03   -0.43033E-03   688   0.645E-03 0.187E-05
CGA:   8    -0.492180567871E+03   -0.21790E-03   -0.21781E-03   688   0.277E-03 0.144E-05
CGA:   9    -0.492180654504E+03   -0.86634E-04   -0.86677E-04   688   0.944E-04-0.121E-05
  47 F= -.49628440E+03 E0= -.49626223E+03  d E =-.582599E-02  mag=     0.5426
       N       E                     dE             d eps       ncg     rms          ort
SDA:   1    -0.492001355974E+03    0.17921E+00    0.00000E+00   688   0.488E+00 0.000E+00
CGA:   2    -0.492142034839E+03   -0.14068E+00   -0.14068E+00   688   0.130E+00-0.174E-04
CGA:   3    -0.492175422919E+03   -0.33388E-01   -0.33388E-01   688   0.300E-01 0.577E-05
CGA:   4    -0.492181717243E+03   -0.62943E-02   -0.62944E-02   688   0.592E-02 0.254E-05
CGA:   5    -0.492183104059E+03   -0.13868E-02   -0.13871E-02   688   0.165E-02 0.793E-05
CGA:   6    -0.492183518707E+03   -0.41465E-03   -0.41458E-03   688   0.618E-03-0.293E-05
CGA:   7    -0.492183709680E+03   -0.19097E-03   -0.19088E-03   688   0.297E-03 0.245E-05
CGA:   8    -0.492183808107E+03   -0.98427E-04   -0.98438E-04   688   0.128E-03-0.203E-06
  48 F= -.49628773E+03 E0= -.49626553E+03  d E =-.332990E-02  mag=     0.5484
       N       E                     dE             d eps       ncg     rms          ort
SDA:   1    -0.492051307894E+03    0.13240E+00    0.00000E+00   688   0.356E+00 0.000E+00
CGA:   2    -0.492154092368E+03   -0.10278E+00   -0.10278E+00   688   0.951E-01-0.104E-04
CGA:   3    -0.492178432745E+03   -0.24340E-01   -0.24340E-01   688   0.220E-01 0.268E-05
CGA:   4    -0.492183043351E+03   -0.46106E-02   -0.46108E-02   688   0.423E-02 0.417E-05
CGA:   5    -0.492184069912E+03   -0.10266E-02   -0.10267E-02   688   0.117E-02 0.487E-05
CGA:   6    -0.492184367253E+03   -0.29734E-03   -0.29732E-03   688   0.473E-03-0.124E-05
CGA:   7    -0.492184506087E+03   -0.13883E-03   -0.13881E-03   688   0.232E-03 0.116E-05
CGA:   8    -0.492184581937E+03   -0.75850E-04   -0.75833E-04   688   0.954E-04 0.318E-06
  49 F= -.49628866E+03 E0= -.49626641E+03  d E =-.425171E-02  mag=     0.5531
       N       E                     dE             d eps       ncg     rms          ort
SDA:   1    -0.491992311991E+03    0.19219E+00    0.00000E+00   688   0.530E+00 0.000E+00
CGA:   2    -0.492143676489E+03   -0.15136E+00   -0.15136E+00   688   0.140E+00 0.107E-04
CGA:   3    -0.492179489799E+03   -0.35813E-01   -0.35813E-01   688   0.322E-01-0.162E-04
CGA:   4    -0.492186376102E+03   -0.68863E-02   -0.68868E-02   688   0.592E-02 0.507E-05
CGA:   5    -0.492187866905E+03   -0.14908E-02   -0.14908E-02   688   0.152E-02 0.723E-06
CGA:   6    -0.492188282856E+03   -0.41595E-03   -0.41595E-03   688   0.585E-03 0.195E-05
CGA:   7    -0.492188471365E+03   -0.18851E-03   -0.18855E-03   688   0.303E-03-0.921E-06
CGA:   8    -0.492188565019E+03   -0.93654E-04   -0.93618E-04   688   0.133E-03 0.106E-05
  50 F= -.49629245E+03 E0= -.49627019E+03  d E =-.379570E-02  mag=     0.5575
       N       E                     dE             d eps       ncg     rms          ort
SDA:   1    -0.491356015890E+03    0.83246E+00    0.00000E+00   688   0.226E+01 0.000E+00
CGA:   2    -0.492000817409E+03   -0.64480E+00   -0.64480E+00   688   0.596E+00 0.145E-03
CGA:   3    -0.492153397506E+03   -0.15258E+00   -0.15258E+00   688   0.137E+00-0.575E-04
CGA:   4    -0.492182686107E+03   -0.29289E-01   -0.29291E-01   688   0.250E-01 0.143E-04
CGA:   5    -0.492189010236E+03   -0.63241E-02   -0.63243E-02   688   0.636E-02 0.617E-05
CGA:   6    -0.492190765557E+03   -0.17553E-02   -0.17553E-02   688   0.242E-02 0.671E-06
CGA:   7    -0.492191544414E+03   -0.77886E-03   -0.77882E-03   688   0.127E-02 0.118E-05
CGA:   8    -0.492191922734E+03   -0.37832E-03   -0.37831E-03   688   0.575E-03 0.451E-06
CGA:   9    -0.492192085175E+03   -0.16244E-03   -0.16244E-03   688   0.198E-03 0.930E-06
CGA:  10    -0.492192139002E+03   -0.53827E-04   -0.53827E-04   688   0.705E-04 0.385E-07
  51 F= -.49629561E+03 E0= -.49627333E+03  d E =-.695710E-02  mag=     0.5605
       N       E                     dE             d eps       ncg     rms          ort
SDA:   1    -0.491827884925E+03    0.36420E+00    0.00000E+00   688   0.100E+01 0.000E+00
CGA:   2    -0.492112367793E+03   -0.28448E+00   -0.28448E+00   688   0.266E+00 0.999E-04
CGA:   3    -0.492179776567E+03   -0.67409E-01   -0.67402E-01   688   0.614E-01-0.115E-03
CGA:   4    -0.492192889478E+03   -0.13113E-01   -0.13115E-01   688   0.116E-01 0.190E-04
CGA:   5    -0.492195657804E+03   -0.27683E-02   -0.27683E-02   688   0.303E-02-0.122E-05
CGA:   6    -0.492196429430E+03   -0.77163E-03   -0.77171E-03   688   0.108E-02 0.518E-05
CGA:   7    -0.492196776354E+03   -0.34692E-03   -0.34707E-03   688   0.532E-03-0.290E-05
CGA:   8    -0.492196952741E+03   -0.17639E-03   -0.17630E-03   688   0.230E-03 0.147E-05
CGA:   9    -0.492197025368E+03   -0.72627E-04   -0.72618E-04   688   0.733E-04 0.240E-06
  52 F= -.49630048E+03 E0= -.49627827E+03  d E =-.486771E-02  mag=     0.5636
       N       E                     dE             d eps       ncg     rms          ort
SDA:   1    -0.491115159173E+03    0.10818E+01    0.00000E+00   688   0.295E+01 0.000E+00
CGA:   2    -0.491951782944E+03   -0.83662E+00   -0.83662E+00   688   0.782E+00 0.438E-03
CGA:   3    -0.492149758615E+03   -0.19798E+00   -0.19795E+00   688   0.180E+00-0.421E-03
CGA:   4    -0.492188257656E+03   -0.38499E-01   -0.38509E-01   688   0.336E-01 0.540E-04
CGA:   5    -0.492196352081E+03   -0.80944E-02   -0.80945E-02   688   0.886E-02 0.164E-06
CGA:   6    -0.492198606348E+03   -0.22543E-02   -0.22544E-02   688   0.316E-02 0.909E-05
CGA:   7    -0.492199622689E+03   -0.10163E-02   -0.10166E-02   688   0.152E-02-0.512E-05
CGA:   8    -0.492200136611E+03   -0.51392E-03   -0.51369E-03   688   0.643E-03 0.377E-05
CGA:   9    -0.492200341257E+03   -0.20465E-03   -0.20465E-03   688   0.204E-03-0.149E-06
CGA:  10    -0.492200402431E+03   -0.61174E-04   -0.61183E-04   688   0.656E-04-0.487E-06
  53 F= -.49630380E+03 E0= -.49628176E+03  d E =-.818577E-02  mag=     0.5629
       N       E                     dE             d eps       ncg     rms          ort
SDA:   1    -0.491778113296E+03    0.42223E+00    0.00000E+00   688   0.116E+01 0.000E+00
CGA:   2    -0.492107628701E+03   -0.32952E+00   -0.32951E+00   688   0.305E+00 0.105E-03
CGA:   3    -0.492185053414E+03   -0.77425E-01   -0.77419E-01   688   0.701E-01-0.843E-04
CGA:   4    -0.492199976036E+03   -0.14923E-01   -0.14925E-01   688   0.130E-01 0.134E-04
CGA:   5    -0.492203136175E+03   -0.31601E-02   -0.31601E-02   688   0.329E-02-0.535E-06
CGA:   6    -0.492204001833E+03   -0.86566E-03   -0.86570E-03   688   0.116E-02 0.376E-05
CGA:   7    -0.492204389827E+03   -0.38799E-03   -0.38821E-03   688   0.564E-03-0.362E-05
CGA:   8    -0.492204581214E+03   -0.19139E-03   -0.19123E-03   688   0.240E-03 0.259E-05
CGA:   9    -0.492204655922E+03   -0.74708E-04   -0.74733E-04   688   0.818E-04-0.873E-06
  54 F= -.49630865E+03 E0= -.49628661E+03  d E =-.484761E-02  mag=     0.5677
       N       E                     dE             d eps       ncg     rms          ort
SDA:   1    -0.491532417781E+03    0.67216E+00    0.00000E+00   688   0.183E+01 0.000E+00
CGA:   2    -0.492052909642E+03   -0.52049E+00   -0.52049E+00   688   0.481E+00 0.190E-03
CGA:   3    -0.492175067124E+03   -0.12216E+00   -0.12215E+00   688   0.110E+00-0.131E-03
CGA:   4    -0.492198629919E+03   -0.23563E-01   -0.23566E-01   688   0.204E-01 0.210E-04
CGA:   5    -0.492203592042E+03   -0.49621E-02   -0.49621E-02   688   0.526E-02-0.140E-06
CGA:   6    -0.492204961873E+03   -0.13698E-02   -0.13699E-02   688   0.187E-02 0.483E-05
CGA:   7    -0.492205578589E+03   -0.61672E-03   -0.61695E-03   688   0.907E-03-0.430E-05
CGA:   8    -0.492205884105E+03   -0.30552E-03   -0.30534E-03   688   0.392E-03 0.301E-05
CGA:   9    -0.492206003091E+03   -0.11899E-03   -0.11900E-03   688   0.140E-03-0.455E-06
CGA:  10    -0.492206039120E+03   -0.36029E-04   -0.36025E-04   688   0.521E-04-0.173E-06
  55 F= -.49631076E+03 E0= -.49628876E+03  d E =-.696284E-02  mag=     0.5754
       N       E                     dE             d eps       ncg     rms          ort
SDA:   1    -0.491944720523E+03    0.26128E+00    0.00000E+00   688   0.716E+00 0.000E+00
CGA:   2    -0.492149022590E+03   -0.20430E+00   -0.20430E+00   688   0.189E+00 0.209E-04
CGA:   3    -0.492196989804E+03   -0.47967E-01   -0.47964E-01   688   0.433E-01-0.596E-04
CGA:   4    -0.492206169735E+03   -0.91799E-02   -0.91813E-02   688   0.816E-02 0.142E-04
CGA:   5    -0.492208126958E+03   -0.19572E-02   -0.19573E-02   688   0.208E-02 0.863E-06
CGA:   6    -0.492208669243E+03   -0.54228E-03   -0.54233E-03   688   0.733E-03 0.360E-05
CGA:   7    -0.492208911416E+03   -0.24217E-03   -0.24230E-03   688   0.360E-03-0.221E-05
CGA:   8    -0.492209030627E+03   -0.11921E-03   -0.11911E-03   688   0.160E-03 0.183E-05
CGA:   9    -0.492209078294E+03   -0.47667E-04   -0.47670E-04   688   0.581E-04-0.149E-06
  56 F= -.49631433E+03 E0= -.49629227E+03  d E =-.356642E-02  mag=     0.5823
       N       E                     dE             d eps       ncg     rms          ort
SDA:   1    -0.491581569843E+03    0.62746E+00    0.00000E+00   688   0.170E+01 0.000E+00
CGA:   2    -0.492067491797E+03   -0.48592E+00   -0.48592E+00   688   0.449E+00 0.464E-04
CGA:   3    -0.492181465716E+03   -0.11397E+00   -0.11396E+00   688   0.103E+00-0.171E-03
CGA:   4    -0.492203340887E+03   -0.21875E-01   -0.21879E-01   688   0.192E-01 0.291E-04
CGA:   5    -0.492207975101E+03   -0.46342E-02   -0.46343E-02   688   0.498E-02 0.154E-05
CGA:   6    -0.492209259401E+03   -0.12843E-02   -0.12844E-02   688   0.178E-02 0.625E-05
CGA:   7    -0.492209835914E+03   -0.57651E-03   -0.57670E-03   688   0.862E-03-0.373E-05
CGA:   8    -0.492210123266E+03   -0.28735E-03   -0.28716E-03   688   0.374E-03 0.333E-05
CGA:   9    -0.492210237228E+03   -0.11396E-03   -0.11397E-03   688   0.133E-03-0.303E-06
CGA:  10    -0.492210272093E+03   -0.34865E-04   -0.34861E-04   688   0.504E-04-0.214E-06
  57 F= -.49631633E+03 E0= -.49629416E+03  d E =-.556435E-02  mag=     0.5938
       N       E                     dE             d eps       ncg     rms          ort
SDA:   1    -0.491986353319E+03    0.22388E+00    0.00000E+00   688   0.612E+00 0.000E+00
CGA:   2    -0.492162356874E+03   -0.17600E+00   -0.17600E+00   688   0.161E+00-0.124E-04
CGA:   3    -0.492203341402E+03   -0.40985E-01   -0.40984E-01   688   0.362E-01-0.193E-04
CGA:   4    -0.492211090950E+03   -0.77495E-02   -0.77501E-02   688   0.690E-02 0.755E-05
CGA:   5    -0.492212755585E+03   -0.16646E-02   -0.16647E-02   688   0.176E-02 0.797E-06
CGA:   6    -0.492213219186E+03   -0.46360E-03   -0.46362E-03   688   0.650E-03 0.260E-05
CGA:   7    -0.492213428873E+03   -0.20969E-03   -0.20976E-03   688   0.337E-03-0.142E-05
CGA:   8    -0.492213532887E+03   -0.10401E-03   -0.10396E-03   688   0.161E-03 0.169E-05
CGA:   9    -0.492213578357E+03   -0.45470E-04   -0.45467E-04   688   0.604E-04 0.376E-06
  58 F= -.49631995E+03 E0= -.49629766E+03  d E =-.362536E-02  mag=     0.6045
       N       E                     dE             d eps       ncg     rms          ort
SDA:   1    -0.491051030170E+03    0.11625E+01    0.00000E+00   688   0.314E+01 0.000E+00
CGA:   2    -0.491953556655E+03   -0.90253E+00   -0.90253E+00   688   0.824E+00-0.261E-03
CGA:   3    -0.492163566549E+03   -0.21001E+00   -0.21001E+00   688   0.185E+00-0.436E-04
CGA:   4    -0.492203380237E+03   -0.39814E-01   -0.39817E-01   688   0.347E-01 0.321E-04
CGA:   5    -0.492211880773E+03   -0.85005E-02   -0.85006E-02   688   0.878E-02 0.401E-05
CGA:   6    -0.492214228938E+03   -0.23482E-02   -0.23482E-02   688   0.326E-02 0.595E-05
CGA:   7    -0.492215289030E+03   -0.10601E-02   -0.10602E-02   688   0.163E-02-0.279E-05
CGA:   8    -0.492215811726E+03   -0.52270E-03   -0.52246E-03   688   0.728E-03 0.527E-05
CGA:   9    -0.492216023785E+03   -0.21206E-03   -0.21206E-03   688   0.262E-03 0.151E-06
CGA:  10    -0.492216092302E+03   -0.68517E-04   -0.68515E-04   688   0.985E-04-0.728E-07
  59 F= -.49632317E+03 E0= -.49630063E+03  d E =-.684863E-02  mag=     0.6209
       N       E                     dE             d eps       ncg     rms          ort
SDA:   1    -0.491994180909E+03    0.22184E+00    0.00000E+00   688   0.599E+00 0.000E+00
CGA:   2    -0.492168668855E+03   -0.17449E+00   -0.17449E+00   688   0.159E+00-0.495E-04
CGA:   3    -0.492209182422E+03   -0.40514E-01   -0.40514E-01   688   0.353E-01 0.353E-07
CGA:   4    -0.492216775995E+03   -0.75936E-02   -0.75942E-02   688   0.688E-02 0.888E-05
CGA:   5    -0.492218424617E+03   -0.16486E-02   -0.16487E-02   688   0.178E-02 0.238E-05
CGA:   6    -0.492218892870E+03   -0.46825E-03   -0.46826E-03   688   0.668E-03 0.147E-05
CGA:   7    -0.492219106469E+03   -0.21360E-03   -0.21364E-03   688   0.346E-03-0.899E-06
CGA:   8    -0.492219214152E+03   -0.10768E-03   -0.10762E-03   688   0.157E-03 0.154E-05
CGA:   9    -0.492219260655E+03   -0.46503E-04   -0.46495E-04   688   0.580E-04 0.384E-06
  60 F= -.49632663E+03 E0= -.49630409E+03  d E =-.345665E-02  mag=     0.6281
       N       E                     dE             d eps       ncg     rms          ort
SDA:   1    -0.491434888790E+03    0.78433E+00    0.00000E+00   688   0.209E+01 0.000E+00
CGA:   2    -0.492044575271E+03   -0.60969E+00   -0.60970E+00   688   0.557E+00-0.408E-03
CGA:   3    -0.492186116617E+03   -0.14154E+00   -0.14154E+00   688   0.123E+00 0.657E-04
CGA:   4    -0.492212742894E+03   -0.26626E-01   -0.26628E-01   688   0.233E-01 0.227E-04
CGA:   5    -0.492218482743E+03   -0.57398E-02   -0.57400E-02   688   0.592E-02 0.647E-05
CGA:   6    -0.492220086750E+03   -0.16040E-02   -0.16040E-02   688   0.223E-02 0.216E-05
CGA:   7    -0.492220812022E+03   -0.72527E-03   -0.72531E-03   688   0.112E-02-0.861E-06
CGA:   8    -0.492221166779E+03   -0.35476E-03   -0.35461E-03   688   0.475E-03 0.351E-05
CGA:   9    -0.492221312223E+03   -0.14544E-03   -0.14543E-03   688   0.144E-03 0.399E-06
CGA:  10    -0.492221356892E+03   -0.44669E-04   -0.44673E-04   688   0.480E-04-0.122E-06
  61 F= -.49632925E+03 E0= -.49630677E+03  d E =-.607805E-02  mag=     0.6273
       N       E                     dE             d eps       ncg     rms          ort
SDA:   1    -0.492084666067E+03    0.13665E+00    0.00000E+00   688   0.361E+00 0.000E+00
CGA:   2    -0.492192299803E+03   -0.10763E+00   -0.10763E+00   688   0.984E-01-0.679E-05
CGA:   3    -0.492217306831E+03   -0.25007E-01   -0.25007E-01   688   0.217E-01-0.104E-05
CGA:   4    -0.492221945340E+03   -0.46385E-02   -0.46389E-02   688   0.427E-02 0.629E-05
CGA:   5    -0.492222983845E+03   -0.10385E-02   -0.10386E-02   688   0.113E-02 0.363E-05
CGA:   6    -0.492223291283E+03   -0.30744E-03   -0.30743E-03   688   0.457E-03-0.751E-06
CGA:   7    -0.492223434785E+03   -0.14350E-03   -0.14352E-03   688   0.241E-03-0.557E-06
CGA:   8    -0.492223507168E+03   -0.72383E-04   -0.72369E-04   688   0.105E-03 0.582E-06
  62 F= -.49633151E+03 E0= -.49630899E+03  d E =-.225604E-02  mag=     0.6334
