       N       E                     dE             d eps       ncg     rms          rms(c)
DAV:   1     0.290471938844E+04    0.29047E+04   -0.11652E+05  4016   0.125E+03
DAV:   2    -0.318746379953E+02   -0.29366E+04   -0.28371E+04  4584   0.341E+02
DAV:   3    -0.492400454630E+03   -0.46053E+03   -0.45699E+03  4056   0.154E+02
DAV:   4    -0.508388786374E+03   -0.15988E+02   -0.15611E+02  4136   0.403E+01
DAV:   5    -0.509008318485E+03   -0.61953E+00   -0.61259E+00  4536   0.620E+00    0.551E+01
DAV:   6    -0.462199091528E+03    0.46809E+02   -0.57495E+01  4600   0.362E+01    0.366E+01
DAV:   7    -0.444495655893E+03    0.17703E+02   -0.87887E+01  4136   0.279E+01    0.202E+01
DAV:   8    -0.442644114380E+03    0.18515E+01   -0.17002E+01  4208   0.145E+01    0.145E+01
DAV:   9    -0.442845039541E+03   -0.20093E+00   -0.12936E+01  5464   0.181E+01    0.704E+00
DAV:  10    -0.442204187109E+03    0.64085E+00   -0.77054E+00  5192   0.119E+01    0.352E+00
DAV:  11    -0.442099294001E+03    0.10489E+00   -0.13040E+00  4736   0.407E+00    0.171E+00
DAV:  12    -0.442066613568E+03    0.32680E-01   -0.40808E-01  4352   0.226E+00    0.107E+00
DAV:  13    -0.442050129993E+03    0.16484E-01   -0.22234E-01  4200   0.144E+00    0.463E-01
DAV:  14    -0.442049610220E+03    0.51977E-03   -0.49981E-02  4272   0.850E-01    0.322E-01
DAV:  15    -0.442049174705E+03    0.43551E-03   -0.70237E-03  4960   0.382E-01    0.210E-01
DAV:  16    -0.442049145328E+03    0.29377E-04   -0.12711E-03  4280   0.116E-01    0.115E-01
DAV:  17    -0.442049176685E+03   -0.31357E-04   -0.31684E-04  2432   0.714E-02
   1 F= -.44638568E+03 E0= -.44638568E+03  d E =0.000000E+00  mag=    -0.0000
