 vasp.5.4.4.18Apr17-6-g9f103f2a35 (build Jan 14 2022 15:04:31) complex          
  
 executed on             LinuxIFC date 2023.04.05  11:31:20
 running on   48 total cores
 distrk:  each k-point on   48 cores,    1 groups
 distr:  one band on NCORES_PER_BAND=  12 cores,    4 groups


--------------------------------------------------------------------------------------------------------


 INCAR:
 POTCAR:    PAW_PBE C 08Apr2002                   
 POTCAR:    PAW_PBE N 08Apr2002                   
 POTCAR:    PAW_PBE Ge_d 03Jul2007                
 POTCAR:    PAW_PBE C 08Apr2002                   
   SHA256 =  253f7b50bb8d59471dbedb8285d89021f4a42ed1a2c5d38a03a736e69125dd95 C/
   COPYR  = (c) Copyright 08Apr2002 Georg Kresse                                
   COPYR  = This file is part of the software VASP. Any use, copying, and all ot
   COPYR  = If you do not have a valid VASP license, you may not use, copy or di
   VRHFIN =C: s2p2                                                              
   LEXCH  = PE                                                                  
   EATOM  =   147.1560 eV,   10.8157 Ry                                         
                                                                                
   TITEL  = PAW_PBE C 08Apr2002                                                 
   LULTRA =        F    use ultrasoft PP ?                                      
   IUNSCR =        1    unscreen: 0-lin 1-nonlin 2-no                           
   RPACOR =    1.200    partial core radius                                     
   POMASS =   12.011; ZVAL   =    4.000    mass and valenz                      
   RCORE  =    1.500    outmost cutoff radius                                   
   RWIGS  =    1.630; RWIGS  =    0.863    wigner-seitz radius (au A)           
   ENMAX  =  400.000; ENMIN  =  300.000 eV                                      
   ICORE  =        2    local potential                                         
   LCOR   =        T    correct aug charges                                     
   LPAW   =        T    paw PP                                                  
   EAUG   =  644.873                                                            
   DEXC   =    0.000                                                            
   RMAX   =    1.529    core radius for proj-oper                               
   RAUG   =    1.300    factor for augmentation sphere                          
   RDEP   =    1.501    radius for radial grids                                 
   RDEPT  =    1.300    core radius for aug-charge                              
                                                                                
   Atomic configuration                                                         
    4 entries                                                                   
     n  l   j            E        occ.                                          
     1  0  0.50      -273.3789   2.0000                                         
     2  0  0.50       -13.7508   2.0000                                         
     2  1  0.50        -5.2854   2.0000                                         
     3  2  1.50        -5.4423   0.0000                                         
   Description                                                                  
     l       E           TYP  RCUT    TYP  RCUT                                 
     0    -13.7508458     23  1.200                                             
     0     -8.2022199     23  1.200                                             
     1     -5.2854383     23  1.500                                             
     1     34.0145650     23  1.500                                             
     2     -5.4423304      7  1.500                                             
  local pseudopotential read in
  partial core-charges read in
  partial kinetic energy density read in
  atomic valenz-charges read in
  non local Contribution for L=           0  read in
    real space projection operators read in
  non local Contribution for L=           0  read in
    real space projection operators read in
  non local Contribution for L=           1  read in
    real space projection operators read in
  non local Contribution for L=           1  read in
    real space projection operators read in
    PAW grid and wavefunctions read in
 
   number of l-projection  operators is LMAX  =           4
   number of lm-projection operators is LMMAX =           8
 
 POTCAR:    PAW_PBE N 08Apr2002                   
   SHA256 =  e053789ff3a61a86a1b75d8a110fcc91f86041011e7b0817c7c99e4e8a6349d7 N/
   COPYR  = (c) Copyright 08Apr2002 Georg Kresse                                
   COPYR  = This file is part of the software VASP. Any use, copying, and all ot
   COPYR  = If you do not have a valid VASP license, you may not use, copy or di
   VRHFIN =N: s2p3                                                              
   LEXCH  = PE                                                                  
   EATOM  =   264.5486 eV,   19.4438 Ry                                         
                                                                                
   TITEL  = PAW_PBE N 08Apr2002                                                 
   LULTRA =        F    use ultrasoft PP ?                                      
   IUNSCR =        1    unscreen: 0-lin 1-nonlin 2-no                           
   RPACOR =    1.200    partial core radius                                     
   POMASS =   14.001; ZVAL   =    5.000    mass and valenz                      
   RCORE  =    1.500    outmost cutoff radius                                   
   RWIGS  =    1.400; RWIGS  =    0.741    wigner-seitz radius (au A)           
   ENMAX  =  400.000; ENMIN  =  300.000 eV                                      
   ICORE  =        2    local potential                                         
   LCOR   =        T    correct aug charges                                     
   LPAW   =        T    paw PP                                                  
   EAUG   =  627.112                                                            
   DEXC   =    0.000                                                            
   RMAX   =    1.529    core radius for proj-oper                               
   RAUG   =    1.300    factor for augmentation sphere                          
   RDEP   =    1.514    radius for radial grids                                 
   RDEPT  =    1.338    core radius for aug-charge                              
                                                                                
   Atomic configuration                                                         
    4 entries                                                                   
     n  l   j            E        occ.                                          
     1  0  0.50      -384.7179   2.0000                                         
     2  0  0.50       -18.5828   2.0000                                         
     2  1  0.50        -7.0898   3.0000                                         
     3  2  1.50        -6.8029   0.0000                                         
   Description                                                                  
     l       E           TYP  RCUT    TYP  RCUT                                 
     0    -18.5828119     23  1.200                                             
     0    -13.5018863     23  1.200                                             
     1     -7.0897853     23  1.500                                             
     1      9.5240782     23  1.500                                             
     2     -6.8029130      7  1.500                                             
  local pseudopotential read in
  partial core-charges read in
  partial kinetic energy density read in
  atomic valenz-charges read in
  non local Contribution for L=           0  read in
    real space projection operators read in
  non local Contribution for L=           0  read in
    real space projection operators read in
  non local Contribution for L=           1  read in
    real space projection operators read in
  non local Contribution for L=           1  read in
    real space projection operators read in
    PAW grid and wavefunctions read in
 
   number of l-projection  operators is LMAX  =           4
   number of lm-projection operators is LMMAX =           8
 
 POTCAR:    PAW_PBE Ge_d 03Jul2007                
   SHA256 =  944b26c40d2d7c4f4eb1ff3a2e8dbfdd7129146276cd341854bfd5c0e57780ed Ge
   COPYR  = (c) Copyright 03Jul2007 Georg Kresse                                
   COPYR  = This file is part of the software VASP. Any use, copying, and all ot
   COPYR  = If you do not have a valid VASP license, you may not use, copy or di
   VRHFIN =Ge: 3d4s4p                                                           
   LEXCH  = PE                                                                  
   EATOM  =  2596.2402 eV,  190.8183 Ry                                         
                                                                                
   TITEL  = PAW_PBE Ge_d 03Jul2007                                              
   LULTRA =        F    use ultrasoft PP ?                                      
   IUNSCR =        1    unscreen: 0-lin 1-nonlin 2-no                           
   RPACOR =    2.000    partial core radius                                     
   POMASS =   72.610; ZVAL   =   14.000    mass and valenz                      
   RCORE  =    2.300    outmost cutoff radius                                   
   RWIGS  =    2.300; RWIGS  =    1.217    wigner-seitz radius (au A)           
   ENMAX  =  310.294; ENMIN  =  232.720 eV                                      
   ICORE  =        3    local potential                                         
   LCOR   =        T    correct aug charges                                     
   LPAW   =        T    paw PP                                                  
   EAUG   =  531.356                                                            
   DEXC   =    0.000                                                            
   RMAX   =    2.342    core radius for proj-oper                               
   RAUG   =    1.300    factor for augmentation sphere                          
   RDEP   =    2.318    radius for radial grids                                 
   RDEPT  =    1.783    core radius for aug-charge                              
                                                                                
   Atomic configuration                                                         
    9 entries                                                                   
     n  l   j            E        occ.                                          
     1  0  0.50    -10959.8463   2.0000                                         
     2  0  0.50     -1371.6056   2.0000                                         
     2  1  1.50     -1198.4791   6.0000                                         
     3  0  0.50      -168.4733   2.0000                                         
     3  1  1.50      -115.6019   6.0000                                         
     3  2  2.50       -29.3106  10.0000                                         
     4  0  0.50       -11.7309   2.0000                                         
     4  1  0.50        -3.8952   2.0000                                         
     4  3  2.50        -4.0817   0.0000                                         
   Description                                                                  
     l       E           TYP  RCUT    TYP  RCUT                                 
     2    -29.3105938     23  2.200                                             
     2    -13.6058260     23  2.200                                             
     0    -11.7309493     23  2.300                                             
     0     -7.4578696     23  2.300                                             
     1     -3.8952261     23  2.300                                             
     1      6.1178114     23  2.300                                             
     3     -1.3605826     23  2.300                                             
  local pseudopotential read in
  partial core-charges read in
  partial kinetic energy density read in
  atomic valenz-charges read in
  non local Contribution for L=           2  read in
    real space projection operators read in
  non local Contribution for L=           2  read in
    real space projection operators read in
  non local Contribution for L=           0  read in
    real space projection operators read in
  non local Contribution for L=           0  read in
    real space projection operators read in
  non local Contribution for L=           1  read in
    real space projection operators read in
  non local Contribution for L=           1  read in
    real space projection operators read in
    PAW grid and wavefunctions read in
 
   number of l-projection  operators is LMAX  =           6
   number of lm-projection operators is LMMAX =          18
 

 ----------------------------------------------------------------------------- 
|                                                                             |
|  ADVICE TO THIS USER RUNNING 'VASP/VAMP'   (HEAR YOUR MASTER'S VOICE ...):  |
|                                                                             |
|      You have a (more or less) 'large supercell' and for larger cells       |
|      it might be more efficient to use real space projection opertators     |
|      So try LREAL= Auto  in the INCAR   file.                               |
|      Mind:          For very  accurate calculation you might also keep the  |
|      reciprocal projection scheme          (i.e. LREAL=.FALSE.)             |
|                                                                             |
 ----------------------------------------------------------------------------- 

  PAW_PBE C 08Apr2002                   :
 energy of atom  1       EATOM= -147.1560
 kinetic energy error for atom=    0.0132 (will be added to EATOM!!)
  PAW_PBE N 08Apr2002                   :
 energy of atom  2       EATOM= -264.5486
 kinetic energy error for atom=    0.0298 (will be added to EATOM!!)
  PAW_PBE Ge_d 03Jul2007                :
 energy of atom  3       EATOM=-2596.2402
 kinetic energy error for atom=    0.0090 (will be added to EATOM!!)
 
 
 POSCAR: POSCAR-c3n4                             
  positions in cartesian coordinates
  No initial velocities read in
 exchange correlation table for  LEXCH =        8
   RHO(1)=    0.500       N(1)  =     2000
   RHO(2)=  100.500       N(2)  =     4000

 VTST: version 3.2, (02/03/18)

 CHAIN: initializing optimizer
 
 OPT: Using VASP Dynamics algorithm
 CHAIN: Read ICHAIN            0
 
 POSCAR: POSCAR-c3n4                             
  positions in cartesian coordinates
  No initial velocities read in
 


--------------------------------------------------------------------------------------------------------


 ion  position               nearest neighbor table
   1  0.106  0.214  0.426-  26 1.53  46 1.53  25 1.61
   2  0.288  0.399  0.433-  29 1.50  35 1.58  25 1.63
   3  0.104  0.392  0.427-  44 1.50  39 1.57  25 1.63
   4  0.447  0.064  0.506-  30 1.51  27 1.52  48 1.61
   5  0.453  0.401  0.413-  28 1.52  29 1.53  56 1.63
   6  0.112  0.053  0.449-  26 1.51  31 1.52  32 1.60
   7  0.096  0.712  0.484-  54 1.52  34 1.55  33 1.60
   8  0.284  0.890  0.501-  27 1.52  37 1.54  33 1.61
   9  0.109  0.895  0.498-  31 1.51  52 1.53  33 1.63
  10  0.448  0.548  0.502-  38 1.51  56 1.54  35 1.55
  11  0.445  0.885  0.489-  37 1.52  36 1.53  48 1.58
  12  0.087  0.542  0.481-  34 1.51  40 1.53  39 1.55
  13  0.616  0.223  0.473-  42 1.54  30 1.54  41 1.60
  14  0.780  0.390  0.400-  45 1.54  51 1.55  41 1.60
  15  0.610  0.394  0.435-  28 1.53  55 1.53  41 1.66
  16  0.940  0.052  0.461-  46 1.50  43 1.52  32 1.59
  17  0.941  0.387  0.394-  45 1.51  44 1.53  40 1.62
  18  0.623  0.066  0.512-  42 1.51  47 1.53  48 1.61
  19  0.613  0.711  0.531-  50 1.51  38 1.56  49 1.61
  20  0.790  0.897  0.523-  43 1.51  53 1.53  49 1.65
  21  0.609  0.892  0.521-  47 1.52  36 1.54  49 1.64
  22  0.938  0.563  0.421-  51 1.49  54 1.54  40 1.62
  23  0.954  0.902  0.535-  52 1.53  53 1.53  32 1.59
  24  0.621  0.555  0.490-  55 1.50  50 1.52  56 1.61
  25  0.167  0.335  0.425-   1 1.61   3 1.63   2 1.63
  26  0.165  0.161  0.421-   6 1.51   1 1.53
  27  0.336  0.002  0.522-   8 1.52   4 1.52
  28  0.512  0.352  0.392-   5 1.52  15 1.53
  29  0.345  0.361  0.390-   2 1.50   5 1.53
  30  0.506  0.177  0.493-   4 1.51  13 1.54
  31  0.159  0.988  0.447-   9 1.51   6 1.52
  32  0.002  0.002  0.483-  16 1.59  23 1.59   6 1.60
  33  0.165  0.831  0.500-   7 1.60   8 1.61   9 1.63
  34  0.134  0.645  0.518-  12 1.51   7 1.55
  35  0.334  0.491  0.492-  10 1.55   2 1.58
  36  0.503  0.831  0.490-  11 1.53  21 1.54
  37  0.333  0.829  0.479-  11 1.52   8 1.54
  38  0.499  0.648  0.545-  10 1.51  19 1.56
  39  0.142  0.484  0.485-  12 1.55   3 1.57
  40  0.988  0.496  0.436-  12 1.53  22 1.62  17 1.62
  41  0.667  0.330  0.429-  13 1.60  14 1.60  15 1.66
  42  0.680  0.178  0.495-  18 1.51  13 1.54
  43  0.827  0.986  0.468-  20 1.51  16 1.52
  44  0.011  0.348  0.379-   3 1.50  17 1.53
  45  0.830  0.330  0.380-  17 1.51  14 1.54
  46  0.993  0.161  0.435-  16 1.50   1 1.53
  47  0.669  0.005  0.539-  21 1.52  18 1.53
  48  0.505  0.004  0.498-  11 1.58  18 1.61   4 1.61
  49  0.668  0.832  0.534-  19 1.61  21 1.64  20 1.65
  50  0.675  0.666  0.512-  19 1.51  24 1.52
  51  0.832  0.507  0.396-  22 1.49  14 1.55
  52  0.016  0.853  0.549-  23 1.53   9 1.53
  53  0.849  0.860  0.566-  20 1.53  23 1.53
  54  0.004  0.677  0.435-   7 1.52  22 1.54
  55  0.668  0.491  0.484-  24 1.50  15 1.53
  56  0.506  0.502  0.467-  10 1.54  24 1.61   5 1.63
  57  0.287  0.593  0.558-
 

IMPORTANT INFORMATION: All symmetrisations will be switched off!
NOSYMM: (Re-)initialisation of all symmetry stuff for point group C_1.

 
 
 KPOINTS: K-Points                                

Automatic generation of k-mesh.
Space group operators:
 irot       det(A)        alpha          n_x          n_y          n_z        tau_x        tau_y        tau_z
    1     1.000000     0.000000     1.000000     0.000000     0.000000     0.000000     0.000000     0.000000
 
 Subroutine IBZKPT returns following result:
 ===========================================
 
 Found      5 irreducible k-points:
 
 Following reciprocal coordinates:
            Coordinates               Weight
  0.000000  0.000000  0.000000      1.000000
  0.333333 -0.000000  0.000000      2.000000
  0.000000  0.333333  0.000000      2.000000
  0.333333  0.333333  0.000000      2.000000
 -0.333333  0.333333  0.000000      2.000000
 
 Following cartesian coordinates:
            Coordinates               Weight
  0.000000  0.000000  0.000000      1.000000
  0.024277  0.014368  0.000000      2.000000
  0.000396  0.028736  0.000000      2.000000
  0.024673  0.043104  0.000000      2.000000
 -0.023881  0.014368  0.000000      2.000000
 
 TETIRR: Found     24 inequivalent tetrahedra from       54


--------------------------------------------------------------------------------------------------------




 Dimension of arrays:
   k-points           NKPTS =      5   k-points in BZ     NKDIM =      5   number of bands    NBANDS=    168
   number of dos      NEDOS =   4000   number of ions     NIONS =     57
   non local maximal  LDIM  =      6   non local SUM 2l+1 LMDIM =     18
   total plane-waves  NPLWV = 604800
   max r-space proj   IRMAX =      1   max aug-charges    IRDMAX=   5899
   dimension x,y,z NGX =    84 NGY =   80 NGZ =   90
   dimension x,y,z NGXF=   168 NGYF=  160 NGZF=  180
   support grid    NGXF=   168 NGYF=  160 NGZF=  180
   ions per type =              24  32   1
   NGX,Y,Z   is equivalent  to a cutoff of   8.85,  8.58,  8.75 a.u.
   NGXF,Y,Z  is equivalent  to a cutoff of  17.70, 17.17, 17.50 a.u.

 SYSTEM =  unknown system                          
 POSCAR =  POSCAR-c3n4                             

 Startparameter for this run:
   NWRITE =      2    write-flag & timer
   PREC   = normal    normal or accurate (medium, high low for compatibility)
   ISTART =      0    job   : 0-new  1-cont  2-samecut
   ICHARG =      2    charge: 1-file 2-atom 10-const
   ISPIN  =      2    spin polarized calculation?
   LNONCOLLINEAR =      F non collinear calculations
   LSORBIT =      F    spin-orbit coupling
   INIWAV =      1    electr: 0-lowe 1-rand  2-diag
   LASPH  =      F    aspherical Exc in radial PAW
   METAGGA=      F    non-selfconsistent MetaGGA calc.

 Electronic Relaxation 1
   ENCUT  =  440.0 eV  32.34 Ry    5.69 a.u.  26.99 26.50 29.25*2*pi/ulx,y,z
   ENINI  =  440.0     initial cutoff
   ENAUG  =  644.9 eV  augmentation charge cutoff
   NELM   =    100;   NELMIN=  2; NELMDL= -5     # of ELM steps 
   EDIFF  = 0.1E-03   stopping-criterion for ELM
   LREAL  =      F    real-space projection
   NLSPLINE    = F    spline interpolate recip. space projectors
   LCOMPAT=      F    compatible to vasp.4.4
   GGA_COMPAT  = T    GGA compatible to vasp.4.4-vasp.4.6
   LMAXPAW     = -100 max onsite density
   LMAXMIX     =    2 max onsite mixed and CHGCAR
   VOSKOWN=      0    Vosko Wilk Nusair interpolation
   ROPT   =    0.00000   0.00000   0.00000
 Ionic relaxation
   EDIFFG = -.1E-01   stopping-criterion for IOM
   NSW    =      0    number of steps for IOM
   NBLOCK =      1;   KBLOCK =      1    inner block; outer block 
   IBRION =     -1    ionic relax: 0-MD 1-quasi-New 2-CG
   NFREE  =      0    steps in history (QN), initial steepest desc. (CG)
   ISIF   =      2    stress and relaxation
   IWAVPR =     10    prediction:  0-non 1-charg 2-wave 3-comb
   ISYM   =      0    0-nonsym 1-usesym 2-fastsym
   LCORR  =      T    Harris-Foulkes like correction to forces

   POTIM  = 0.5000    time-step for ionic-motion
   TEIN   =    0.0    initial temperature
   TEBEG  =    0.0;   TEEND  =   0.0 temperature during run
   SMASS  =  -3.00    Nose mass-parameter (am)
   estimated Nose-frequenzy (Omega)   =  0.10E-29 period in steps =****** mass=  -0.569E-26a.u.
   SCALEE = 1.0000    scale energy and forces
   NPACO  =    256;   APACO  = 16.0  distance and # of slots for P.C.
   PSTRESS=    0.0 pullay stress

  Mass of Ions in am
   POMASS =  12.01 14.00 72.61
  Ionic Valenz
   ZVAL   =   4.00  5.00 14.00
  Atomic Wigner-Seitz radii
   RWIGS  =  -1.00 -1.00 -1.00
  virtual crystal weights 
   VCA    =   1.00  1.00  1.00
   NELECT =     270.0000    total number of electrons
   NUPDOWN=      -1.0000    fix difference up-down

 DOS related values:
   EMIN   = -14.00;   EMAX   =  6.00  energy-range for DOS
   EFERMI =   0.00
   ISMEAR =    -5;   SIGMA  =   0.20  broadening in eV -4-tet -1-fermi 0-gaus

 Electronic relaxation 2 (details)
   IALGO  =     38    algorithm
   LDIAG  =      T    sub-space diagonalisation (order eigenvalues)
   LSUBROT=      F    optimize rotation matrix (better conditioning)
   TURBO    =      0    0=normal 1=particle mesh
   IRESTART =      0    0=no restart 2=restart with 2 vectors
   NREBOOT  =      0    no. of reboots
   NMIN     =      0    reboot dimension
   EREF     =   0.00    reference energy to select bands
   IMIX   =      4    mixing-type and parameters
     AMIX     =   0.25;   BMIX     =  0.00
     AMIX_MAG =   1.00;   BMIX_MAG =  0.00
     AMIN     =   0.10
     WC   =   100.;   INIMIX=   1;  MIXPRE=   1;  MAXMIX= -45

 Intra band minimization:
   WEIMIN = 0.0000     energy-eigenvalue tresh-hold
   EBREAK =  0.15E-06  absolut break condition
   DEPER  =   0.30     relativ break condition  

   TIME   =   0.40     timestep for ELM

  volume/ion in A,a.u.               =      62.61       422.50
  Fermi-wavevector in a.u.,A,eV,Ry     =   0.692409  1.308463  6.523039  0.479430
  Thomas-Fermi vector in A             =   1.774333
 
 Write flags
   LWAVE        =      F    write WAVECAR
   LDOWNSAMPLE  =      F    k-point downsampling of WAVECAR
   LCHARG       =      F    write CHGCAR
   LVTOT        =      F    write LOCPOT, total local potential
   LVHAR        =      F    write LOCPOT, Hartree potential only
   LELF         =      F    write electronic localiz. function (ELF)
   LORBIT       =     11    0 simple, 1 ext, 2 COOP (PROOUT), +10 PAW based schemes


 Dipole corrections
   LMONO  =      F    monopole corrections only (constant potential shift)
   LDIPOL =      F    correct potential (dipole corrections)
   IDIPOL =      0    1-x, 2-y, 3-z, 4-all directions 
   EPSILON=  1.0000000 bulk dielectric constant

 Exchange correlation treatment:
   GGA     =    --    GGA type
   LEXCH   =     8    internal setting for exchange type
   VOSKOWN=      0    Vosko Wilk Nusair interpolation
   LHFCALC =     F    Hartree Fock is set to
   LHFONE  =     F    Hartree Fock one center treatment
   AEXX    =    0.0000 exact exchange contribution

 Linear response parameters
   LEPSILON=     F    determine dielectric tensor
   LRPA    =     F    only Hartree local field effects (RPA)
   LNABLA  =     F    use nabla operator in PAW spheres
   LVEL    =     F    velocity operator in full k-point grid
   LINTERFAST=   F  fast interpolation
   KINTER  =     0    interpolate to denser k-point grid
   CSHIFT  =0.1000    complex shift for real part using Kramers Kronig
   OMEGAMAX=  -1.0    maximum frequency
   DEG_THRESHOLD= 0.2000000E-02 threshold for treating states as degnerate
   RTIME   =   -0.100 relaxation time in fs
  (WPLASMAI=    0.000 imaginary part of plasma frequency in eV, 0.658/RTIME)
   DFIELD  = 0.0000000 0.0000000 0.0000000 field for delta impulse in time
 
 Orbital magnetization related:
   ORBITALMAG=     F  switch on orbital magnetization
   LCHIMAG   =     F  perturbation theory with respect to B field
   DQ        =  0.001000  dq finite difference perturbation B field
   LLRAUG    =     F  two centre corrections for induced B field



--------------------------------------------------------------------------------------------------------


 Static calculation
 charge density and potential will be updated during run
 spin polarized calculation
 Variant of blocked Davidson
 Davidson routine will perform the subspace rotation
 perform sub-space diagonalisation
    after iterative eigenvector-optimisation
 modified Broyden-mixing scheme, WC =      100.0
 initial mixing is a Kerker type mixing with AMIX =  0.2500 and BMIX =      0.0001
 Hartree-type preconditioning will be used
 using additional bands           33
 reciprocal scheme for non local part
 use partial core corrections
 calculate Harris-corrections to forces 
   (improved forces if not selfconsistent)
 use gradient corrections 
 use of overlap-Matrix (Vanderbilt PP)
 Fermi weights with tetrahedron method with Bloechl corrections


--------------------------------------------------------------------------------------------------------


  energy-cutoff  :      440.00
  volume of cell :     3568.62
      direct lattice vectors                 reciprocal lattice vectors
    15.781503627 -0.217444140  0.000000000     0.063886289  0.037810627  0.000000000
    -7.890751814 13.332517733  0.000000000     0.001041941  0.075621253  0.000000000
     0.000000000  0.000000000 17.100000000     0.000000000  0.000000000  0.058479532

  length of vectors
    15.783001574 15.492578652 17.100000000     0.074236793  0.075628431  0.058479532


 
 k-points in units of 2pi/SCALE and weight: K-Points                                
   0.00000000  0.00000000  0.00000000       0.111
   0.02427679  0.01436804  0.00000000       0.222
   0.00039594  0.02873608  0.00000000       0.222
   0.02467273  0.04310411  0.00000000       0.222
  -0.02388085  0.01436804  0.00000000       0.222
 
 k-points in reciprocal lattice and weights: K-Points                                
   0.00000000  0.00000000  0.00000000       0.111
   0.33333333 -0.00000000  0.00000000       0.222
   0.00000000  0.33333333  0.00000000       0.222
   0.33333333  0.33333333  0.00000000       0.222
  -0.33333333  0.33333333  0.00000000       0.222
 
 position of ions in fractional coordinates (direct lattice) 
   0.10567936  0.21351909  0.42646415
   0.28750403  0.39866334  0.43315811
   0.10379301  0.39177313  0.42728737
   0.44732828  0.06383887  0.50569377
   0.45258916  0.40124889  0.41252546
   0.11203481  0.05273921  0.44868132
   0.09638015  0.71191070  0.48390127
   0.28433946  0.89006364  0.50120122
   0.10941441  0.89537413  0.49812536
   0.44792521  0.54827090  0.50190381
   0.44544784  0.88520183  0.48897001
   0.08690842  0.54210436  0.48067119
   0.61614813  0.22292684  0.47270451
   0.78023735  0.38968276  0.39988272
   0.61037743  0.39432339  0.43546161
   0.93951642  0.05229783  0.46070020
   0.94071854  0.38652888  0.39388003
   0.62278394  0.06558106  0.51203168
   0.61322902  0.71118454  0.53124878
   0.78984871  0.89727295  0.52288011
   0.60944297  0.89248269  0.52132702
   0.93832005  0.56283419  0.42050954
   0.95436023  0.90171878  0.53466451
   0.62130548  0.55465507  0.48986027
   0.16668926  0.33545237  0.42502835
   0.16473950  0.16097029  0.42095206
   0.33626584  0.00180669  0.52215766
   0.51175722  0.35246859  0.39238613
   0.34471728  0.36074551  0.38975287
   0.50565751  0.17673507  0.49315170
   0.15873210  0.98821904  0.44665654
   0.00214731  0.00186372  0.48284181
   0.16462634  0.83083069  0.50025956
   0.13400723  0.64526801  0.51778798
   0.33371346  0.49116238  0.49155062
   0.50288345  0.83078126  0.48972341
   0.33307237  0.82932770  0.47937372
   0.49902190  0.64803204  0.54483375
   0.14173676  0.48364631  0.48511610
   0.98839512  0.49595573  0.43598798
   0.66736443  0.33015381  0.42931770
   0.67970142  0.17802103  0.49523771
   0.82720183  0.98622484  0.46784919
   0.01097216  0.34809993  0.37880244
   0.83047981  0.33016544  0.37952861
   0.99296173  0.16101876  0.43513088
   0.66886761  0.00524437  0.53948092
   0.50484899  0.00388347  0.49830916
   0.66830364  0.83227641  0.53419919
   0.67536455  0.66551462  0.51246466
   0.83211404  0.50666912  0.39574663
   0.01584380  0.85299492  0.54867721
   0.84924332  0.85956436  0.56604968
   0.00424175  0.67726383  0.43455477
   0.66753141  0.49127771  0.48382075
   0.50565566  0.50179634  0.46716125
   0.28676550  0.59288202  0.55779478
 
 position of ions in cartesian coordinates  (Angst):
  -0.01704688  2.82376764  7.29253699
   1.39149237  5.25266997  7.40700374
  -1.45337485  5.20075304  7.30661404
   6.55577622  0.75386391  8.64736340
   3.97638197  5.25124512  7.05418537
   1.35192576  0.67878518  7.67245060
  -4.09648699  9.47060475  8.27471175
  -2.53596710 11.80496129  8.57054091
  -5.33845122 11.91379996  8.51794363
   2.74266378  7.21243280  8.58255511
   0.04492879 11.70510910  8.36138709
  -2.90606551  7.20871833  8.21947729
   7.96468358  2.83819826  8.08324707
   9.23842857  5.02579431  6.83799450
   6.52116555  5.12460064  7.44639358
  14.41431266  0.49296937  7.87797345
  11.79594963  4.94884945  6.73534855
   9.31098314  0.73893986  8.75574168
   4.06589536  9.34853747  9.08435410
   5.38484209 11.79115958  8.94124980
   2.57556700 11.76652143  8.91469208
  10.36691635  7.29996467  7.19071314
   7.94600026 11.81466161  9.14276319
   5.42848923  7.25984936  8.37661056
  -0.01636423  4.43617910  7.26798475
   1.32966047  2.11031756  7.19828020
   5.29252438 -0.04903134  8.92889593
   5.29505633  4.58801508  6.70980290
   2.59360368  4.73468917  6.66477414
   6.58546319  2.24637126  8.43289403
  -5.29276006 13.14093253  7.63782688
   0.01918165  0.02438115  8.25659501
  -3.95782749 11.04126784  8.55443852
  -2.97681413  8.57390807  8.85417440
   1.39085981  6.47586706  8.40551559
   1.38076829 10.96705676  8.37427039
  -1.28763626 10.98460161  8.19729066
   2.76185594  8.53138928  9.31665716
  -1.57951381  6.41740312  8.29548534
  11.68489763  6.39741787  7.45539441
   7.92685240  4.25666708  7.34133270
   9.32199072  2.22567143  8.46856483
   5.27243330 12.96898996  8.00022111
  -2.57361297  4.63866259  6.47752173
  10.50096655  4.22135361  6.48993924
  14.39987001  1.93087175  7.44073797
  10.51435470 -0.07552074  9.22512367
   7.93663270 -0.05800002  8.52108663
   3.97954981 10.95102125  9.13480622
   5.40685735  8.72613143  8.76314566
   9.13401040  6.57423674  6.76726737
  -6.48073229 11.36912478  9.38238033
   6.61972749 11.27549415  9.67944951
  -5.27717966  9.02870972  7.43088658
   6.65809881  6.40481800  8.27333478
   4.02045622  6.58025679  7.98845733
  -0.15269413  7.84225463  9.53829079
 


--------------------------------------------------------------------------------------------------------


 k-point  1 :   0.0000 0.0000 0.0000  plane waves:   74771
 k-point  2 :   0.3333-0.0000 0.0000  plane waves:   74853
 k-point  3 :   0.0000 0.3333 0.0000  plane waves:   74756
 k-point  4 :   0.3333 0.3333 0.0000  plane waves:   74779
 k-point  5 :  -0.3333 0.3333 0.0000  plane waves:   74788

 maximum and minimum number of plane-waves per node :      6267     6212

 maximum number of plane-waves:     74853
 maximum index in each direction: 
   IXMAX=   27   IYMAX=   26   IZMAX=   29
   IXMIN=  -27   IYMIN=  -26   IZMIN=  -29


 parallel 3D FFT for wavefunctions:
    minimum data exchange during FFTs selected (reduces bandwidth)
 parallel 3D FFT for charge:
    minimum data exchange during FFTs selected (reduces bandwidth)


 total amount of memory used by VASP MPI-rank0   111191. kBytes
=======================================================================

   base      :      30000. kBytes
   nonl-proj :      19156. kBytes
   fftplans  :       5346. kBytes
   grid      :      14279. kBytes
   one-center:        155. kBytes
   wavefun   :      42255. kBytes
 
     INWAV:  cpu time    0.0000: real time    0.0001
 Broyden mixing: mesh for mixing (old mesh)
   NGX = 53   NGY = 53   NGZ = 59
  (NGX  =168   NGY  =160   NGZ  =180)
  gives a total of 165731 points

 initial charge density was supplied:
 charge density of overlapping atoms calculated
 number of electron     270.0000000 magnetization       1.0000000
 keeping initial charge density in first step


--------------------------------------------------------------------------------------------------------


 Maximum index for augmentation-charges          331 (set IRDMAX)


--------------------------------------------------------------------------------------------------------


 First call to EWALD:  gamma=   0.116
 Maximum number of real-space cells 3x 3x 3
 Maximum number of reciprocal cells 3x 3x 3

    FEWALD:  cpu time    0.0037: real time    0.0040


--------------------------------------- Iteration      1(   1)  ---------------------------------------


    POTLOK:  cpu time    0.2167: real time    0.2426
    SETDIJ:  cpu time    0.0085: real time    0.0094
     EDDAV:  cpu time   10.7884: real time   10.9054
 BZINTS: Fermi energy:  7.176109;270.000000 electrons
         Band energy:***********;  BLOECHL correction: -0.010610
       DOS:  cpu time    0.0602: real time    0.0605
    --------------------------------------------
      LOOP:  cpu time   11.0739: real time   11.2179

 eigenvalue-minimisations  :  3872
 total energy-change (2. order) : 0.2348945E+04  (-0.8910767E+04)
 number of electron     270.0000000 magnetization       1.0000000
 augmentation part      270.0000000 magnetization       1.0000000

 Free energy of the ion-electron system (eV)
  ---------------------------------------------------
  alpha Z        PSCENC =        97.38055275
  Ewald energy   TEWEN  =     24020.46892434
  -Hartree energ DENC   =    -35766.67336961
  -exchange      EXHF   =         0.00000000
  -V(xc)+E(xc)   XCENC  =       982.98664171
  PAW double counting   =     10998.91041168   -11485.61342155
  entropy T*S    EENTRO =         0.00000000
  eigenvalues    EBANDS =     -1090.77499542
  atomic energy  EATOM  =     14592.26033195
  Solvation  Ediel_sol  =         0.00000000
  ---------------------------------------------------
  free energy    TOTEN  =      2348.94507587 eV

  energy without entropy =     2348.94507587  energy(sigma->0) =     2348.94507587


--------------------------------------------------------------------------------------------------------




--------------------------------------- Iteration      1(   2)  ---------------------------------------


     EDDAV:  cpu time   13.9858: real time   14.1974
 BZINTS: Fermi energy: -0.446534;270.000000 electrons
         Band energy:***********;  BLOECHL correction:  0.000000
       DOS:  cpu time    0.0047: real time    0.0047
    --------------------------------------------
      LOOP:  cpu time   13.9905: real time   14.2022

 eigenvalue-minimisations  :  4880
 total energy-change (2. order) :-0.2187940E+04  (-0.2085936E+04)
 number of electron     270.0000000 magnetization       1.0000000
 augmentation part      270.0000000 magnetization       1.0000000

 Free energy of the ion-electron system (eV)
  ---------------------------------------------------
  alpha Z        PSCENC =        97.38055275
  Ewald energy   TEWEN  =     24020.46892434
  -Hartree energ DENC   =    -35766.67336961
  -exchange      EXHF   =         0.00000000
  -V(xc)+E(xc)   XCENC  =       982.98664171
  PAW double counting   =     10998.91041168   -11485.61342155
  entropy T*S    EENTRO =         0.00000000
  eigenvalues    EBANDS =     -3278.71488333
  atomic energy  EATOM  =     14592.26033195
  Solvation  Ediel_sol  =         0.00000000
  ---------------------------------------------------
  free energy    TOTEN  =       161.00518796 eV

  energy without entropy =      161.00518796  energy(sigma->0) =      161.00518796


--------------------------------------------------------------------------------------------------------




--------------------------------------- Iteration      1(   3)  ---------------------------------------


     EDDAV:  cpu time   12.2962: real time   12.4216
 BZINTS: Fermi energy: -3.751813;270.000000 electrons
         Band energy:***********;  BLOECHL correction:  0.000000
       DOS:  cpu time    0.0042: real time    0.0042
    --------------------------------------------
      LOOP:  cpu time   12.3004: real time   12.4257

 eigenvalue-minimisations  :  4224
 total energy-change (2. order) :-0.5795650E+03  (-0.5739658E+03)
 number of electron     270.0000000 magnetization       1.0000000
 augmentation part      270.0000000 magnetization       1.0000000

 Free energy of the ion-electron system (eV)
  ---------------------------------------------------
  alpha Z        PSCENC =        97.38055275
  Ewald energy   TEWEN  =     24020.46892434
  -Hartree energ DENC   =    -35766.67336961
  -exchange      EXHF   =         0.00000000
  -V(xc)+E(xc)   XCENC  =       982.98664171
  PAW double counting   =     10998.91041168   -11485.61342155
  entropy T*S    EENTRO =         0.00000000
  eigenvalues    EBANDS =     -3858.27989673
  atomic energy  EATOM  =     14592.26033195
  Solvation  Ediel_sol  =         0.00000000
  ---------------------------------------------------
  free energy    TOTEN  =      -418.55982544 eV

  energy without entropy =     -418.55982544  energy(sigma->0) =     -418.55982544


--------------------------------------------------------------------------------------------------------




--------------------------------------- Iteration      1(   4)  ---------------------------------------


     EDDAV:  cpu time   12.3005: real time   12.4582
 BZINTS: Fermi energy: -4.136284;270.000000 electrons
         Band energy:***********;  BLOECHL correction:  0.000000
       DOS:  cpu time    0.0038: real time    0.0038
    --------------------------------------------
      LOOP:  cpu time   12.3043: real time   12.4621

 eigenvalue-minimisations  :  4080
 total energy-change (2. order) :-0.3013574E+02  (-0.2919154E+02)
 number of electron     270.0000000 magnetization       1.0000000
 augmentation part      270.0000000 magnetization       1.0000000

 Free energy of the ion-electron system (eV)
  ---------------------------------------------------
  alpha Z        PSCENC =        97.38055275
  Ewald energy   TEWEN  =     24020.46892434
  -Hartree energ DENC   =    -35766.67336961
  -exchange      EXHF   =         0.00000000
  -V(xc)+E(xc)   XCENC  =       982.98664171
  PAW double counting   =     10998.91041168   -11485.61342155
  entropy T*S    EENTRO =         0.00000000
  eigenvalues    EBANDS =     -3888.41563407
  atomic energy  EATOM  =     14592.26033195
  Solvation  Ediel_sol  =         0.00000000
  ---------------------------------------------------
  free energy    TOTEN  =      -448.69556278 eV

  energy without entropy =     -448.69556278  energy(sigma->0) =     -448.69556278


--------------------------------------------------------------------------------------------------------




--------------------------------------- Iteration      1(   5)  ---------------------------------------


     EDDAV:  cpu time   13.8759: real time   14.0627
 BZINTS: Fermi energy: -4.191298;270.000000 electrons
         Band energy:***********;  BLOECHL correction:  0.000000
       DOS:  cpu time    0.0040: real time    0.0040
    CHARGE:  cpu time    0.1879: real time    0.1918
    MIXING:  cpu time    0.0055: real time    0.0056
    --------------------------------------------
      LOOP:  cpu time   14.0733: real time   14.2641

 eigenvalue-minimisations  :  5048
 total energy-change (2. order) :-0.1703884E+01  (-0.1682838E+01)
 number of electron     270.0000031 magnetization       0.0000001
 augmentation part       16.8751541 magnetization       0.0040654

 Broyden mixing:
  rms(total) = 0.32214E+01    rms(broyden)= 0.32178E+01
  rms(prec ) = 0.35740E+01
  weight for this iteration     100.00

 Free energy of the ion-electron system (eV)
  ---------------------------------------------------
  alpha Z        PSCENC =        97.38055275
  Ewald energy   TEWEN  =     24020.46892434
  -Hartree energ DENC   =    -35766.67336961
  -exchange      EXHF   =         0.00000000
  -V(xc)+E(xc)   XCENC  =       982.98664171
  PAW double counting   =     10998.91041168   -11485.61342155
  entropy T*S    EENTRO =         0.00000000
  eigenvalues    EBANDS =     -3890.11951781
  atomic energy  EATOM  =     14592.26033195
  Solvation  Ediel_sol  =         0.00000000
  ---------------------------------------------------
  free energy    TOTEN  =      -450.39944652 eV

  energy without entropy =     -450.39944652  energy(sigma->0) =     -450.39944652


--------------------------------------------------------------------------------------------------------




--------------------------------------- Iteration      1(   6)  ---------------------------------------


    POTLOK:  cpu time    0.1613: real time    0.1641
    SETDIJ:  cpu time    0.0090: real time    0.0090
     EDDAV:  cpu time   12.5440: real time   12.6596
 BZINTS: Fermi energy: -4.520130;270.000000 electrons
         Band energy:***********;  BLOECHL correction:  0.000000
       DOS:  cpu time    0.0038: real time    0.0038
    CHARGE:  cpu time    0.1857: real time    0.1913
    MIXING:  cpu time    0.0043: real time    0.0073
    --------------------------------------------
      LOOP:  cpu time   12.9080: real time   13.0351

 eigenvalue-minimisations  :  4656
 total energy-change (2. order) : 0.1741613E+02  (-0.6823388E+01)
 number of electron     270.0000029 magnetization       0.0000000
 augmentation part       15.5527997 magnetization      -0.0036240

 Broyden mixing:
  rms(total) = 0.18269E+01    rms(broyden)= 0.18259E+01
  rms(prec ) = 0.19547E+01
  weight for this iteration     100.00

 eigenvalues of (default mixing * dielectric matrix)
  average eigenvalue GAMMA=   1.0641
  1.0641

 Free energy of the ion-electron system (eV)
  ---------------------------------------------------
  alpha Z        PSCENC =        97.38055275
  Ewald energy   TEWEN  =     24020.46892434
  -Hartree energ DENC   =    -35893.87945987
  -exchange      EXHF   =         0.00000000
  -V(xc)+E(xc)   XCENC  =       992.26560363
  PAW double counting   =     12879.72159213   -13366.02940046
  entropy T*S    EENTRO =         0.00000000
  eigenvalues    EBANDS =     -3755.17146316
  atomic energy  EATOM  =     14592.26033195
  Solvation  Ediel_sol  =         0.00000000
  ---------------------------------------------------
  free energy    TOTEN  =      -432.98331869 eV

  energy without entropy =     -432.98331869  energy(sigma->0) =     -432.98331869


--------------------------------------------------------------------------------------------------------




--------------------------------------- Iteration      1(   7)  ---------------------------------------


    POTLOK:  cpu time    0.2049: real time    0.2090
    SETDIJ:  cpu time    0.0113: real time    0.0114
     EDDAV:  cpu time   12.0154: real time   12.1552
 BZINTS: Fermi energy: -4.365091;270.000000 electrons
         Band energy:***********;  BLOECHL correction:  0.000000
       DOS:  cpu time    0.0035: real time    0.0035
    CHARGE:  cpu time    0.2220: real time    0.2240
    MIXING:  cpu time    0.0050: real time    0.0059
    --------------------------------------------
      LOOP:  cpu time   12.4620: real time   12.6090

 eigenvalue-minimisations  :  4224
 total energy-change (2. order) : 0.6465622E+00  (-0.1682360E+01)
 number of electron     270.0000032 magnetization      -0.0000000
 augmentation part       15.5053811 magnetization      -0.0017970

 Broyden mixing:
  rms(total) = 0.13365E+01    rms(broyden)= 0.13361E+01
  rms(prec ) = 0.14516E+01
  weight for this iteration     100.00

 eigenvalues of (default mixing * dielectric matrix)
  average eigenvalue GAMMA=   1.1726
  0.8500  1.4952

 Free energy of the ion-electron system (eV)
  ---------------------------------------------------
  alpha Z        PSCENC =        97.38055275
  Ewald energy   TEWEN  =     24020.46892434
  -Hartree energ DENC   =    -35969.34991802
  -exchange      EXHF   =         0.00000000
  -V(xc)+E(xc)   XCENC  =       995.38373212
  PAW double counting   =     14402.13361595   -14888.63736398
  entropy T*S    EENTRO =         0.00000000
  eigenvalues    EBANDS =     -3681.97663161
  atomic energy  EATOM  =     14592.26033195
  Solvation  Ediel_sol  =         0.00000000
  ---------------------------------------------------
  free energy    TOTEN  =      -432.33675650 eV

  energy without entropy =     -432.33675650  energy(sigma->0) =     -432.33675650


--------------------------------------------------------------------------------------------------------




--------------------------------------- Iteration      1(   8)  ---------------------------------------


    POTLOK:  cpu time    0.1607: real time    0.1633
    SETDIJ:  cpu time    0.0128: real time    0.0128
     EDDAV:  cpu time   12.0961: real time   12.1727
 BZINTS: Fermi energy: -4.261315;270.000000 electrons
         Band energy:***********;  BLOECHL correction:  0.000000
       DOS:  cpu time    0.0037: real time    0.0037
    CHARGE:  cpu time    0.2245: real time    0.2268
    MIXING:  cpu time    0.0045: real time    0.0046
    --------------------------------------------
      LOOP:  cpu time   12.5024: real time   12.5840

 eigenvalue-minimisations  :  4256
 total energy-change (2. order) : 0.6583980E+00  (-0.1192653E+01)
 number of electron     270.0000028 magnetization       0.0000000
 augmentation part       15.3020157 magnetization      -0.0014021

 Broyden mixing:
  rms(total) = 0.98684E+00    rms(broyden)= 0.98659E+00
  rms(prec ) = 0.11053E+01
  weight for this iteration     100.00

 eigenvalues of (default mixing * dielectric matrix)
  average eigenvalue GAMMA=   1.3791
  2.5489  1.0425  0.5459

 Free energy of the ion-electron system (eV)
  ---------------------------------------------------
  alpha Z        PSCENC =        97.38055275
  Ewald energy   TEWEN  =     24020.46892434
  -Hartree energ DENC   =    -36007.61273467
  -exchange      EXHF   =         0.00000000
  -V(xc)+E(xc)   XCENC  =       997.36255727
  PAW double counting   =     15722.42248954   -16209.81950216
  entropy T*S    EENTRO =         0.00000000
  eigenvalues    EBANDS =     -3644.14097753
  atomic energy  EATOM  =     14592.26033195
  Solvation  Ediel_sol  =         0.00000000
  ---------------------------------------------------
  free energy    TOTEN  =      -431.67835850 eV

  energy without entropy =     -431.67835850  energy(sigma->0) =     -431.67835850


--------------------------------------------------------------------------------------------------------




--------------------------------------- Iteration      1(   9)  ---------------------------------------


    POTLOK:  cpu time    0.1707: real time    0.1731
    SETDIJ:  cpu time    0.0116: real time    0.0117
     EDDAV:  cpu time   13.1881: real time   13.3146
 BZINTS: Fermi energy: -4.151288;270.000000 electrons
         Band energy:***********;  BLOECHL correction:  0.000000
       DOS:  cpu time    0.0037: real time    0.0037
    CHARGE:  cpu time    0.1836: real time    0.1845
    MIXING:  cpu time    0.0042: real time    0.0048
    --------------------------------------------
      LOOP:  cpu time   13.5619: real time   13.6924

 eigenvalue-minimisations  :  4944
 total energy-change (2. order) :-0.2981192E+00  (-0.2218892E+01)
 number of electron     270.0000027 magnetization       0.0000000
 augmentation part       15.4797911 magnetization      -0.0011374

 Broyden mixing:
  rms(total) = 0.69247E+00    rms(broyden)= 0.69206E+00
  rms(prec ) = 0.87059E+00
  weight for this iteration     100.00

 eigenvalues of (default mixing * dielectric matrix)
  average eigenvalue GAMMA=   1.3735
  3.3650  1.0691  0.5300  0.5300

 Free energy of the ion-electron system (eV)
  ---------------------------------------------------
  alpha Z        PSCENC =        97.38055275
  Ewald energy   TEWEN  =     24020.46892434
  -Hartree energ DENC   =    -36041.29216561
  -exchange      EXHF   =         0.00000000
  -V(xc)+E(xc)   XCENC  =       998.69537550
  PAW double counting   =     17300.40176368   -17791.18939011
  entropy T*S    EENTRO =         0.00000000
  eigenvalues    EBANDS =     -3608.70187021
  atomic energy  EATOM  =     14592.26033195
  Solvation  Ediel_sol  =         0.00000000
  ---------------------------------------------------
  free energy    TOTEN  =      -431.97647772 eV

  energy without entropy =     -431.97647772  energy(sigma->0) =     -431.97647772


--------------------------------------------------------------------------------------------------------




--------------------------------------- Iteration      1(  10)  ---------------------------------------


    POTLOK:  cpu time    0.1616: real time    0.1635
    SETDIJ:  cpu time    0.0109: real time    0.0109
     EDDAV:  cpu time   13.0274: real time   13.1677
 BZINTS: Fermi energy: -3.726182;270.000000 electrons
         Band energy:***********;  BLOECHL correction:  0.000000
       DOS:  cpu time    0.0037: real time    0.0037
    CHARGE:  cpu time    0.1864: real time    0.1869
    MIXING:  cpu time    0.0046: real time    0.0047
    --------------------------------------------
      LOOP:  cpu time   13.3946: real time   13.5375

 eigenvalue-minimisations  :  4672
 total energy-change (2. order) : 0.1006659E+01  (-0.5915580E+00)
 number of electron     270.0000031 magnetization       0.0000000
 augmentation part       15.4798033 magnetization      -0.0004164

 Broyden mixing:
  rms(total) = 0.33575E+00    rms(broyden)= 0.33473E+00
  rms(prec ) = 0.44889E+00
  weight for this iteration     100.00

 eigenvalues of (default mixing * dielectric matrix)
  average eigenvalue GAMMA=   1.2841
  3.6628  1.0703  0.7581  0.4647  0.4647

 Free energy of the ion-electron system (eV)
  ---------------------------------------------------
  alpha Z        PSCENC =        97.38055275
  Ewald energy   TEWEN  =     24020.46892434
  -Hartree energ DENC   =    -36069.07247733
  -exchange      EXHF   =         0.00000000
  -V(xc)+E(xc)   XCENC  =      1000.32029034
  PAW double counting   =     18683.74060144   -19174.85643225
  entropy T*S    EENTRO =         0.00000000
  eigenvalues    EBANDS =     -3581.21160951
  atomic energy  EATOM  =     14592.26033195
  Solvation  Ediel_sol  =         0.00000000
  ---------------------------------------------------
  free energy    TOTEN  =      -430.96981827 eV

  energy without entropy =     -430.96981827  energy(sigma->0) =     -430.96981827


--------------------------------------------------------------------------------------------------------




--------------------------------------- Iteration      1(  11)  ---------------------------------------


    POTLOK:  cpu time    0.1739: real time    0.1764
    SETDIJ:  cpu time    0.0089: real time    0.0089
     EDDAV:  cpu time   12.1490: real time   12.3409
 BZINTS: Fermi energy: -3.751188;270.000000 electrons
         Band energy:***********;  BLOECHL correction:  0.000000
       DOS:  cpu time    0.0037: real time    0.0038
    CHARGE:  cpu time    0.1830: real time    0.1843
    MIXING:  cpu time    0.0043: real time    0.0043
    --------------------------------------------
      LOOP:  cpu time   12.5229: real time   12.7185

 eigenvalue-minimisations  :  4312
 total energy-change (2. order) : 0.1323503E+00  (-0.1706729E+00)
 number of electron     270.0000028 magnetization       0.0000000
 augmentation part       15.4670224 magnetization      -0.0001729

 Broyden mixing:
  rms(total) = 0.26982E+00    rms(broyden)= 0.26926E+00
  rms(prec ) = 0.37058E+00
  weight for this iteration     100.00

 eigenvalues of (default mixing * dielectric matrix)
  average eigenvalue GAMMA=   1.1887
  3.6672  1.0395  0.7922  0.7922  0.4204  0.4204

 Free energy of the ion-electron system (eV)
  ---------------------------------------------------
  alpha Z        PSCENC =        97.38055275
  Ewald energy   TEWEN  =     24020.46892434
  -Hartree energ DENC   =    -36076.28217200
  -exchange      EXHF   =         0.00000000
  -V(xc)+E(xc)   XCENC  =      1000.74270550
  PAW double counting   =     19178.70368395   -19669.47622891
  entropy T*S    EENTRO =         0.00000000
  eigenvalues    EBANDS =     -3574.63526555
  atomic energy  EATOM  =     14592.26033195
  Solvation  Ediel_sol  =         0.00000000
  ---------------------------------------------------
  free energy    TOTEN  =      -430.83746796 eV

  energy without entropy =     -430.83746796  energy(sigma->0) =     -430.83746796


--------------------------------------------------------------------------------------------------------




--------------------------------------- Iteration      1(  12)  ---------------------------------------


    POTLOK:  cpu time    0.1730: real time    0.1760
    SETDIJ:  cpu time    0.0089: real time    0.0089
     EDDAV:  cpu time   12.4086: real time   12.4880
 BZINTS: Fermi energy: -3.716179;270.000000 electrons
         Band energy:***********;  BLOECHL correction:  0.000000
       DOS:  cpu time    0.0038: real time    0.0038
    CHARGE:  cpu time    0.1870: real time    0.1874
    MIXING:  cpu time    0.0043: real time    0.0043
    --------------------------------------------
      LOOP:  cpu time   12.7856: real time   12.8685

 eigenvalue-minimisations  :  4384
 total energy-change (2. order) : 0.1428364E+00  (-0.1310075E+00)
 number of electron     270.0000029 magnetization      -0.0000000
 augmentation part       15.4105804 magnetization      -0.0001516

 Broyden mixing:
  rms(total) = 0.12637E+00    rms(broyden)= 0.12580E+00
  rms(prec ) = 0.14849E+00
  weight for this iteration     100.00

 eigenvalues of (default mixing * dielectric matrix)
  average eigenvalue GAMMA=   1.1635
  3.6081  1.1756  1.1756  0.6778  0.6778  0.4150  0.4150

 Free energy of the ion-electron system (eV)
  ---------------------------------------------------
  alpha Z        PSCENC =        97.38055275
  Ewald energy   TEWEN  =     24020.46892434
  -Hartree energ DENC   =    -36074.47516045
  -exchange      EXHF   =         0.00000000
  -V(xc)+E(xc)   XCENC  =      1000.71536688
  PAW double counting   =     19261.23880094   -19751.46593342
  entropy T*S    EENTRO =         0.00000000
  eigenvalues    EBANDS =     -3576.81751457
  atomic energy  EATOM  =     14592.26033195
  Solvation  Ediel_sol  =         0.00000000
  ---------------------------------------------------
  free energy    TOTEN  =      -430.69463158 eV

  energy without entropy =     -430.69463158  energy(sigma->0) =     -430.69463158


--------------------------------------------------------------------------------------------------------




--------------------------------------- Iteration      1(  13)  ---------------------------------------


    POTLOK:  cpu time    0.1933: real time    0.1966
    SETDIJ:  cpu time    0.0091: real time    0.0092
     EDDAV:  cpu time   11.6036: real time   11.7077
 BZINTS: Fermi energy: -3.736184;270.000000 electrons
         Band energy:***********;  BLOECHL correction:  0.000000
       DOS:  cpu time    0.0037: real time    0.0037
    CHARGE:  cpu time    0.1839: real time    0.1854
    MIXING:  cpu time    0.0046: real time    0.0046
    --------------------------------------------
      LOOP:  cpu time   11.9983: real time   12.1071

 eigenvalue-minimisations  :  4080
 total energy-change (2. order) : 0.1320573E-01  (-0.1687253E-01)
 number of electron     270.0000029 magnetization      -0.0000000
 augmentation part       15.4027037 magnetization      -0.0001286

 Broyden mixing:
  rms(total) = 0.76295E-01    rms(broyden)= 0.76261E-01
  rms(prec ) = 0.84165E-01
  weight for this iteration     100.00

 eigenvalues of (default mixing * dielectric matrix)
  average eigenvalue GAMMA=   1.1969
  3.5377  2.0321  1.0267  0.7070  0.7070  0.7434  0.4107  0.4107

 Free energy of the ion-electron system (eV)
  ---------------------------------------------------
  alpha Z        PSCENC =        97.38055275
  Ewald energy   TEWEN  =     24020.46892434
  -Hartree energ DENC   =    -36067.29757287
  -exchange      EXHF   =         0.00000000
  -V(xc)+E(xc)   XCENC  =      1000.43116055
  PAW double counting   =     19290.58454194   -19780.63786716
  entropy T*S    EENTRO =         0.00000000
  eigenvalues    EBANDS =     -3583.87149735
  atomic energy  EATOM  =     14592.26033195
  Solvation  Ediel_sol  =         0.00000000
  ---------------------------------------------------
  free energy    TOTEN  =      -430.68142585 eV

  energy without entropy =     -430.68142585  energy(sigma->0) =     -430.68142585


--------------------------------------------------------------------------------------------------------




--------------------------------------- Iteration      1(  14)  ---------------------------------------


    POTLOK:  cpu time    0.1754: real time    0.1777
    SETDIJ:  cpu time    0.0087: real time    0.0087
     EDDAV:  cpu time   11.9220: real time   12.1269
 BZINTS: Fermi energy: -3.759940;270.000000 electrons
         Band energy:***********;  BLOECHL correction:  0.000000
       DOS:  cpu time    0.0037: real time    0.0037
    CHARGE:  cpu time    0.1826: real time    0.1830
    MIXING:  cpu time    0.0052: real time    0.0053
    --------------------------------------------
      LOOP:  cpu time   12.2975: real time   12.5053

 eigenvalue-minimisations  :  4144
 total energy-change (2. order) : 0.4497552E-02  (-0.5826509E-02)
 number of electron     270.0000029 magnetization      -0.0000000
 augmentation part       15.4111077 magnetization      -0.0001397

 Broyden mixing:
  rms(total) = 0.51798E-01    rms(broyden)= 0.51754E-01
  rms(prec ) = 0.61701E-01
  weight for this iteration     100.00

 eigenvalues of (default mixing * dielectric matrix)
  average eigenvalue GAMMA=   1.2419
  3.5920  2.6182  0.9504  0.9054  0.9054  0.6939  0.6939  0.4088  0.4088

 Free energy of the ion-electron system (eV)
  ---------------------------------------------------
  alpha Z        PSCENC =        97.38055275
  Ewald energy   TEWEN  =     24020.46892434
  -Hartree energ DENC   =    -36060.93888619
  -exchange      EXHF   =         0.00000000
  -V(xc)+E(xc)   XCENC  =      1000.15886010
  PAW double counting   =     19334.69692737   -19824.65282012
  entropy T*S    EENTRO =         0.00000000
  eigenvalues    EBANDS =     -3590.05081850
  atomic energy  EATOM  =     14592.26033195
  Solvation  Ediel_sol  =         0.00000000
  ---------------------------------------------------
  free energy    TOTEN  =      -430.67692830 eV

  energy without entropy =     -430.67692830  energy(sigma->0) =     -430.67692830


--------------------------------------------------------------------------------------------------------




--------------------------------------- Iteration      1(  15)  ---------------------------------------


    POTLOK:  cpu time    0.1753: real time    0.1778
    SETDIJ:  cpu time    0.0086: real time    0.0087
     EDDAV:  cpu time   12.3930: real time   12.4724
 BZINTS: Fermi energy: -3.771193;270.000000 electrons
         Band energy:***********;  BLOECHL correction:  0.000000
       DOS:  cpu time    0.0039: real time    0.0039
    CHARGE:  cpu time    0.1846: real time    0.1852
    MIXING:  cpu time    0.0054: real time    0.0055
    --------------------------------------------
      LOOP:  cpu time   12.7709: real time   12.8536

 eigenvalue-minimisations  :  4472
 total energy-change (2. order) :-0.1895571E-02  (-0.9357752E-02)
 number of electron     270.0000029 magnetization      -0.0000000
 augmentation part       15.4162270 magnetization       0.0000678

 Broyden mixing:
  rms(total) = 0.60360E-01    rms(broyden)= 0.60218E-01
  rms(prec ) = 0.81682E-01
  weight for this iteration     100.00

 eigenvalues of (default mixing * dielectric matrix)
  average eigenvalue GAMMA=   1.2333
  3.6484  2.8475  1.0045  1.0045  0.7278  0.7278  0.8501  0.6988  0.4179  0.4057

 Free energy of the ion-electron system (eV)
  ---------------------------------------------------
  alpha Z        PSCENC =        97.38055275
  Ewald energy   TEWEN  =     24020.46892434
  -Hartree energ DENC   =    -36058.42629331
  -exchange      EXHF   =         0.00000000
  -V(xc)+E(xc)   XCENC  =      1000.04264290
  PAW double counting   =     19390.88264569   -19880.82609578
  entropy T*S    EENTRO =         0.00000000
  eigenvalues    EBANDS =     -3592.46153241
  atomic energy  EATOM  =     14592.26033195
  Solvation  Ediel_sol  =         0.00000000
  ---------------------------------------------------
  free energy    TOTEN  =      -430.67882387 eV

  energy without entropy =     -430.67882387  energy(sigma->0) =     -430.67882387


--------------------------------------------------------------------------------------------------------




--------------------------------------- Iteration      1(  16)  ---------------------------------------


    POTLOK:  cpu time    0.1997: real time    0.2028
    SETDIJ:  cpu time    0.0090: real time    0.0090
     EDDAV:  cpu time   12.3539: real time   12.5134
 BZINTS: Fermi energy: -3.769942;270.000000 electrons
         Band energy:***********;  BLOECHL correction:  0.000000
       DOS:  cpu time    0.0036: real time    0.0036
    CHARGE:  cpu time    0.1849: real time    0.1857
    MIXING:  cpu time    0.0057: real time    0.0062
    --------------------------------------------
      LOOP:  cpu time   12.7568: real time   12.9208

 eigenvalue-minimisations  :  4416
 total energy-change (2. order) : 0.3141041E-02  (-0.9002101E-02)
 number of electron     270.0000029 magnetization      -0.0000000
 augmentation part       15.4134888 magnetization      -0.0003821

 Broyden mixing:
  rms(total) = 0.33484E-01    rms(broyden)= 0.33283E-01
  rms(prec ) = 0.44818E-01
  weight for this iteration     100.00

 eigenvalues of (default mixing * dielectric matrix)
  average eigenvalue GAMMA=   1.2106
  3.6813  2.9161  1.1627  1.0912  1.0912  0.7050  0.7050  0.6537  0.3886  0.4607
  0.4607

 Free energy of the ion-electron system (eV)
  ---------------------------------------------------
  alpha Z        PSCENC =        97.38055275
  Ewald energy   TEWEN  =     24020.46892434
  -Hartree energ DENC   =    -36057.91194186
  -exchange      EXHF   =         0.00000000
  -V(xc)+E(xc)   XCENC  =      1000.02014238
  PAW double counting   =     19410.88892557   -19900.80246633
  entropy T*S    EENTRO =         0.00000000
  eigenvalues    EBANDS =     -3592.98015163
  atomic energy  EATOM  =     14592.26033195
  Solvation  Ediel_sol  =         0.00000000
  ---------------------------------------------------
  free energy    TOTEN  =      -430.67568283 eV

  energy without entropy =     -430.67568283  energy(sigma->0) =     -430.67568283


--------------------------------------------------------------------------------------------------------




--------------------------------------- Iteration      1(  17)  ---------------------------------------


    POTLOK:  cpu time    0.1731: real time    0.1755
    SETDIJ:  cpu time    0.0090: real time    0.0094
     EDDAV:  cpu time   11.5470: real time   11.6427
 BZINTS: Fermi energy: -3.766192;270.000000 electrons
         Band energy:***********;  BLOECHL correction:  0.000000
       DOS:  cpu time    0.0041: real time    0.0042
    CHARGE:  cpu time    0.1848: real time    0.1859
    MIXING:  cpu time    0.0055: real time    0.0055
    --------------------------------------------
      LOOP:  cpu time   11.9235: real time   12.0231

 eigenvalue-minimisations  :  3976
 total energy-change (2. order) : 0.6881841E-03  (-0.1077966E-02)
 number of electron     270.0000029 magnetization      -0.0000000
 augmentation part       15.4150002 magnetization      -0.0006704

 Broyden mixing:
  rms(total) = 0.15143E-01    rms(broyden)= 0.15114E-01
  rms(prec ) = 0.15683E-01
  weight for this iteration     100.00

 eigenvalues of (default mixing * dielectric matrix)
  average eigenvalue GAMMA=   1.1598
  3.6959  2.9659  1.1773  1.1063  1.1063  0.7102  0.7102  0.6605  0.3905  0.4533
  0.4880  0.4533

 Free energy of the ion-electron system (eV)
  ---------------------------------------------------
  alpha Z        PSCENC =        97.38055275
  Ewald energy   TEWEN  =     24020.46892434
  -Hartree energ DENC   =    -36057.75823401
  -exchange      EXHF   =         0.00000000
  -V(xc)+E(xc)   XCENC  =      1000.01654541
  PAW double counting   =     19417.82283005   -19907.75919578
  entropy T*S    EENTRO =         0.00000000
  eigenvalues    EBANDS =     -3593.10674936
  atomic energy  EATOM  =     14592.26033195
  Solvation  Ediel_sol  =         0.00000000
  ---------------------------------------------------
  free energy    TOTEN  =      -430.67499464 eV

  energy without entropy =     -430.67499464  energy(sigma->0) =     -430.67499464


--------------------------------------------------------------------------------------------------------




--------------------------------------- Iteration      1(  18)  ---------------------------------------


    POTLOK:  cpu time    0.1931: real time    0.1957
    SETDIJ:  cpu time    0.0119: real time    0.0119
     EDDAV:  cpu time   10.9703: real time   11.0604
 BZINTS: Fermi energy: -3.766192;270.000000 electrons
         Band energy:***********;  BLOECHL correction:  0.000000
       DOS:  cpu time    0.0038: real time    0.0038
    CHARGE:  cpu time    0.2021: real time    0.2027
    MIXING:  cpu time    0.0057: real time    0.0060
    --------------------------------------------
      LOOP:  cpu time   11.3869: real time   11.4805

 eigenvalue-minimisations  :  3824
 total energy-change (2. order) :-0.3456951E-03  (-0.1189431E-03)
 number of electron     270.0000029 magnetization      -0.0000000
 augmentation part       15.4152966 magnetization      -0.0008699

 Broyden mixing:
  rms(total) = 0.17931E-01    rms(broyden)= 0.17923E-01
  rms(prec ) = 0.18293E-01
  weight for this iteration     100.00

 eigenvalues of (default mixing * dielectric matrix)
  average eigenvalue GAMMA=   1.1590
  3.7398  2.9935  0.7117  1.4579  1.0262  1.0262  0.7039  0.7039  0.6396  0.6396
  0.5931  0.3925  0.4389

 Free energy of the ion-electron system (eV)
  ---------------------------------------------------
  alpha Z        PSCENC =        97.38055275
  Ewald energy   TEWEN  =     24020.46892434
  -Hartree energ DENC   =    -36057.86262102
  -exchange      EXHF   =         0.00000000
  -V(xc)+E(xc)   XCENC  =      1000.02158361
  PAW double counting   =     19416.77854952   -19906.71750059
  entropy T*S    EENTRO =         0.00000000
  eigenvalues    EBANDS =     -3593.00516090
  atomic energy  EATOM  =     14592.26033195
  Solvation  Ediel_sol  =         0.00000000
  ---------------------------------------------------
  free energy    TOTEN  =      -430.67534034 eV

  energy without entropy =     -430.67534034  energy(sigma->0) =     -430.67534034


--------------------------------------------------------------------------------------------------------




--------------------------------------- Iteration      1(  19)  ---------------------------------------


    POTLOK:  cpu time    0.2077: real time    0.2108
    SETDIJ:  cpu time    0.0100: real time    0.0100
     EDDAV:  cpu time    7.8944: real time    7.9828
 BZINTS: Fermi energy: -3.766192;270.000000 electrons
         Band energy:***********;  BLOECHL correction:  0.000000
       DOS:  cpu time    0.0042: real time    0.0045
    CHARGE:  cpu time    0.2223: real time    0.2241
    MIXING:  cpu time    0.0065: real time    0.0065
    --------------------------------------------
      LOOP:  cpu time    8.3450: real time    8.4386

 eigenvalue-minimisations  :  2304
 total energy-change (2. order) : 0.4103844E-03  (-0.8775286E-04)
 number of electron     270.0000029 magnetization       0.0000000
 augmentation part       15.4152826 magnetization      -0.0005905

 Broyden mixing:
  rms(total) = 0.15186E-01    rms(broyden)= 0.15182E-01
  rms(prec ) = 0.16022E-01
  weight for this iteration     100.00

 eigenvalues of (default mixing * dielectric matrix)
  average eigenvalue GAMMA=   1.1968
  3.6734  2.8133  2.1545  0.8897  1.0517  1.0517  1.0398  0.7179  0.7179  0.6487
  0.6487  0.5113  0.3914  0.4455

 Free energy of the ion-electron system (eV)
  ---------------------------------------------------
  alpha Z        PSCENC =        97.38055275
  Ewald energy   TEWEN  =     24020.46892434
  -Hartree energ DENC   =    -36057.82737503
  -exchange      EXHF   =         0.00000000
  -V(xc)+E(xc)   XCENC  =      1000.02028246
  PAW double counting   =     19419.97640918   -19909.91946314
  entropy T*S    EENTRO =         0.00000000
  eigenvalues    EBANDS =     -3593.03459246
  atomic energy  EATOM  =     14592.26033195
  Solvation  Ediel_sol  =         0.00000000
  ---------------------------------------------------
  free energy    TOTEN  =      -430.67492995 eV

  energy without entropy =     -430.67492995  energy(sigma->0) =     -430.67492995


--------------------------------------------------------------------------------------------------------




--------------------------------------- Iteration      1(  20)  ---------------------------------------


    POTLOK:  cpu time    0.1739: real time    0.1782
    SETDIJ:  cpu time    0.0099: real time    0.0108
     EDDAV:  cpu time   11.1632: real time   11.2668
 BZINTS: Fermi energy: -3.766192;270.000000 electrons
         Band energy:***********;  BLOECHL correction:  0.000000
       DOS:  cpu time    0.0040: real time    0.0039
    CHARGE:  cpu time    0.1849: real time    0.1854
    MIXING:  cpu time    0.0066: real time    0.0066
    --------------------------------------------
      LOOP:  cpu time   11.5423: real time   11.6518

 eigenvalue-minimisations  :  3864
 total energy-change (2. order) : 0.3994191E-03  (-0.5052915E-03)
 number of electron     270.0000029 magnetization      -0.0000000
 augmentation part       15.4156086 magnetization       0.0001483

 Broyden mixing:
  rms(total) = 0.84930E-02    rms(broyden)= 0.84062E-02
  rms(prec ) = 0.88005E-02
  weight for this iteration     100.00

 eigenvalues of (default mixing * dielectric matrix)
  average eigenvalue GAMMA=   1.2447
  3.6226  2.9049  2.9049  0.8687  1.0806  1.0806  1.0447  0.8272  0.8272  0.7311
  0.7311  0.7048  0.3913  0.4463  0.5044

 Free energy of the ion-electron system (eV)
  ---------------------------------------------------
  alpha Z        PSCENC =        97.38055275
  Ewald energy   TEWEN  =     24020.46892434
  -Hartree energ DENC   =    -36058.08187039
  -exchange      EXHF   =         0.00000000
  -V(xc)+E(xc)   XCENC  =      1000.03201002
  PAW double counting   =     19417.21149704   -19907.16582266
  entropy T*S    EENTRO =         0.00000000
  eigenvalues    EBANDS =     -3592.78015359
  atomic energy  EATOM  =     14592.26033195
  Solvation  Ediel_sol  =         0.00000000
  ---------------------------------------------------
  free energy    TOTEN  =      -430.67453054 eV

  energy without entropy =     -430.67453054  energy(sigma->0) =     -430.67453054


--------------------------------------------------------------------------------------------------------




--------------------------------------- Iteration      1(  21)  ---------------------------------------


    POTLOK:  cpu time    0.1729: real time    0.1756
    SETDIJ:  cpu time    0.0092: real time    0.0093
     EDDAV:  cpu time    9.1690: real time    9.2730
 BZINTS: Fermi energy: -3.766192;270.000000 electrons
         Band energy:***********;  BLOECHL correction:  0.000000
       DOS:  cpu time    0.0037: real time    0.0037
    CHARGE:  cpu time    0.1823: real time    0.1873
    MIXING:  cpu time    0.0070: real time    0.0071
    --------------------------------------------
      LOOP:  cpu time    9.5441: real time    9.6560

 eigenvalue-minimisations  :  2920
 total energy-change (2. order) :-0.3745483E-03  (-0.7757471E-04)
 number of electron     270.0000029 magnetization      -0.0000000
 augmentation part       15.4147130 magnetization       0.0001406

 Broyden mixing:
  rms(total) = 0.76447E-02    rms(broyden)= 0.76361E-02
  rms(prec ) = 0.97182E-02
  weight for this iteration     100.00

 eigenvalues of (default mixing * dielectric matrix)
  average eigenvalue GAMMA=   1.2953
  3.7930  3.2324  3.2324  0.8742  1.1791  1.1791  1.0372  0.9884  0.9884  0.7230
  0.7230  0.7143  0.7143  0.5093  0.3914  0.4457

 Free energy of the ion-electron system (eV)
  ---------------------------------------------------
  alpha Z        PSCENC =        97.38055275
  Ewald energy   TEWEN  =     24020.46892434
  -Hartree energ DENC   =    -36058.55140349
  -exchange      EXHF   =         0.00000000
  -V(xc)+E(xc)   XCENC  =      1000.05711663
  PAW double counting   =     19410.64495884   -19900.59354967
  entropy T*S    EENTRO =         0.00000000
  eigenvalues    EBANDS =     -3592.34183643
  atomic energy  EATOM  =     14592.26033195
  Solvation  Ediel_sol  =         0.00000000
  ---------------------------------------------------
  free energy    TOTEN  =      -430.67490508 eV

  energy without entropy =     -430.67490508  energy(sigma->0) =     -430.67490508


--------------------------------------------------------------------------------------------------------




--------------------------------------- Iteration      1(  22)  ---------------------------------------


    POTLOK:  cpu time    0.1736: real time    0.1760
    SETDIJ:  cpu time    0.0094: real time    0.0094
     EDDAV:  cpu time    7.7933: real time    7.8566
 BZINTS: Fermi energy: -3.766192;270.000000 electrons
         Band energy:***********;  BLOECHL correction:  0.000000
       DOS:  cpu time    0.0037: real time    0.0037
    --------------------------------------------
      LOOP:  cpu time    7.9800: real time    8.0457

 eigenvalue-minimisations  :  2160
 total energy-change (2. order) : 0.5490995E-04  (-0.8738104E-04)
 number of electron     270.0000029 magnetization      -0.0000000
 augmentation part       15.4147130 magnetization       0.0001406

 Free energy of the ion-electron system (eV)
  ---------------------------------------------------
  alpha Z        PSCENC =        97.38055275
  Ewald energy   TEWEN  =     24020.46892434
  -Hartree energ DENC   =    -36058.58561743
  -exchange      EXHF   =         0.00000000
  -V(xc)+E(xc)   XCENC  =      1000.05958200
  PAW double counting   =     19411.65009812   -19901.59465154
  entropy T*S    EENTRO =         0.00000000
  eigenvalues    EBANDS =     -3592.31407037
  atomic energy  EATOM  =     14592.26033195
  Solvation  Ediel_sol  =         0.00000000
  ---------------------------------------------------
  free energy    TOTEN  =      -430.67485017 eV

  energy without entropy =     -430.67485017  energy(sigma->0) =     -430.67485017


--------------------------------------------------------------------------------------------------------




 average (electrostatic) potential at core
  the test charge radii are     0.6991  0.7089  0.9911
  (the norm of the test charge is              1.0000)
       1 -62.0820       2 -62.3299       3 -62.2989       4 -61.9183       5 -61.9716
       6 -61.9490       7 -62.1844       8 -62.0941       9 -62.0160      10 -62.3644
      11 -62.0082      12 -62.3262      13 -62.0304      14 -61.9229      15 -61.8278
      16 -61.9313      17 -61.9010      18 -61.9102      19 -62.2573      20 -62.0336
      21 -62.0865      22 -61.9583      23 -62.0051      24 -61.9381      25 -75.6171
      26 -73.6841      27 -73.6324      28 -73.8809      29 -74.0040      30 -73.6471
      31 -73.6878      32 -75.2838      33 -75.3857      34 -73.9328      35 -74.5984
      36 -73.6904      37 -73.6992      38 -73.9847      39 -74.5440      40 -75.3119
      41 -75.4380      42 -73.7044      43 -73.6481      44 -73.9607      45 -73.8491
      46 -73.6665      47 -73.6654      48 -75.1658      49 -75.4977      50 -73.8387
      51 -73.6955      52 -73.7011      53 -73.6662      54 -73.8229      55 -73.7660
      56 -75.3560      57 -84.4985
 
 
 
 E-fermi :  -3.7662     XC(G=0):  -2.4116     alpha+bet : -1.5192


 spin component 1

 k-point     1 :       0.0000    0.0000    0.0000
  band No.  band energies     occupation 
      1     -29.8073      1.00000
      2     -29.8026      1.00000
      3     -29.7664      1.00000
      4     -29.7381      1.00000
      5     -29.7306      1.00000
      6     -23.8426      1.00000
      7     -23.7239      1.00000
      8     -23.5881      1.00000
      9     -23.5080      1.00000
     10     -23.0667      1.00000
     11     -23.0024      1.00000
     12     -22.9751      1.00000
     13     -22.3442      1.00000
     14     -22.1832      1.00000
     15     -22.1402      1.00000
     16     -22.0716      1.00000
     17     -22.0483      1.00000
     18     -21.9771      1.00000
     19     -21.5173      1.00000
     20     -21.4335      1.00000
     21     -21.3952      1.00000
     22     -20.8755      1.00000
     23     -20.8439      1.00000
     24     -20.7785      1.00000
     25     -20.7376      1.00000
     26     -20.6768      1.00000
     27     -20.6608      1.00000
     28     -20.6005      1.00000
     29     -20.5810      1.00000
     30     -20.2139      1.00000
     31     -20.1145      1.00000
     32     -20.0761      1.00000
     33     -20.0224      1.00000
     34     -19.8011      1.00000
     35     -19.7383      1.00000
     36     -19.6016      1.00000
     37     -19.5114      1.00000
     38     -16.6075      1.00000
     39     -16.5449      1.00000
     40     -16.4313      1.00000
     41     -16.1716      1.00000
     42     -16.1078      1.00000
[...]
   -.143E+02 0.238E+02 0.915E+02   0.912E+01 -.228E+02 -.917E+02   0.277E+01 -.667E+00 0.317E+00   0.382E-01 -.791E-02 -.190E-02
   0.510E+02 -.410E+02 -.635E+02   -.520E+02 0.417E+02 0.632E+02   0.173E+01 -.925E+00 -.235E+00   -.977E-02 0.101E-02 0.427E-02
   -.959E+01 0.393E+02 0.146E+03   0.103E+02 -.406E+02 -.146E+03   -.510E+00 0.153E+01 0.118E+01   -.942E-02 0.168E-01 0.161E-01
   -.474E+02 -.135E+02 0.702E+02   0.486E+02 0.142E+02 -.703E+02   -.186E+01 -.789E+00 0.646E+00   -.224E-02 0.985E-02 0.842E-03
   0.288E+02 -.241E+02 -.261E+02   -.294E+02 0.192E+02 0.244E+02   0.372E+00 0.311E+01 0.692E+00   0.133E-02 0.125E-01 0.355E-02
   0.224E+02 -.875E+01 -.359E+02   -.173E+02 0.120E+02 0.353E+02   -.328E+01 -.178E+01 0.294E+00   -.910E-03 -.183E-02 0.474E-02
   -.957E+01 0.198E+01 -.437E+02   0.439E+01 0.117E+01 0.432E+02   0.332E+01 -.166E+01 0.643E-01   -.784E-02 0.564E-02 0.233E-02
   -.166E+02 0.135E+02 -.524E+02   0.167E+02 -.118E+02 0.530E+02   0.918E+00 -.151E+01 -.118E+01   0.139E-01 -.154E-01 -.108E-01
   -.255E+01 0.169E+02 0.352E+02   0.248E+01 -.182E+02 -.341E+02   -.895E-03 0.233E+01 -.405E+00   0.681E-02 -.177E-01 0.501E-02
   0.225E+02 0.125E+02 -.480E+02   -.223E+02 -.105E+02 0.478E+02   -.105E+01 -.172E+01 -.994E+00   0.222E-01 0.125E-01 0.134E-01
   -.294E+01 -.159E+02 -.886E+01   0.296E+01 0.104E+02 0.107E+02   -.102E+00 0.362E+01 -.957E+00   -.184E-01 0.447E-02 -.560E-03
   0.315E+02 0.231E+02 0.139E+03   -.266E+02 -.204E+02 -.139E+03   -.290E+01 -.178E+01 0.346E+00   -.271E-01 0.130E-02 0.820E-02
   -.130E+02 0.189E+02 0.639E+02   0.821E+01 -.159E+02 -.627E+02   0.299E+01 -.150E+01 -.620E+00   -.404E-01 0.161E-01 0.567E-02
   0.492E+02 -.126E+02 0.483E+02   -.504E+02 0.134E+02 -.483E+02   0.191E+01 -.782E+00 0.329E+00   0.262E-02 -.238E-02 0.191E-02
   0.106E+01 0.556E+02 0.156E+03   -.175E+01 -.569E+02 -.157E+03   0.147E+00 0.170E+01 0.115E+01   0.141E-01 -.932E-02 -.882E-02
   -.488E+02 -.433E+02 -.719E+02   0.498E+02 0.440E+02 0.719E+02   -.180E+01 -.100E+01 -.384E+00   0.825E-02 -.104E-01 0.633E-02
   -.238E+02 -.237E+02 -.104E+03   0.243E+02 0.187E+02 0.102E+03   0.454E-03 0.295E+01 0.513E+00   0.326E-02 -.143E-01 -.120E-02
   0.122E+02 0.844E+00 -.805E+02   -.688E+01 0.223E+01 0.791E+02   -.322E+01 -.159E+01 0.282E+00   -.130E-02 -.124E-01 0.143E-02
   -.245E+02 -.552E+01 -.658E+02   0.193E+02 0.889E+01 0.643E+02   0.315E+01 -.184E+01 0.750E+00   0.115E-01 -.192E-01 0.377E-02
   0.529E+02 -.528E+02 0.101E+03   -.547E+02 0.530E+02 -.100E+03   0.175E+01 -.128E+01 -.378E-01   -.112E-01 0.228E-01 -.113E-02
   -.784E+01 0.325E+02 -.138E+03   0.780E+01 -.342E+02 0.138E+03   0.130E-03 0.230E+01 -.117E+01   -.807E-02 -.223E-02 0.864E-03
   -.620E+02 -.195E+02 -.442E+02   0.635E+02 0.196E+02 0.446E+02   -.195E+01 -.386E+00 -.733E+00   -.229E-01 -.150E-01 -.732E-02
   -.106E+02 0.266E+02 0.123E+03   0.107E+02 -.275E+02 -.125E+03   -.273E+00 0.374E+00 0.207E+01   0.582E-01 0.510E-02 0.519E-02
   -.142E+03 -.231E+02 0.164E+03   0.168E+03 0.374E+02 -.173E+03   -.293E+02 -.163E+02 0.116E+02   0.534E-02 0.199E-01 0.317E-02
   0.114E+03 -.112E+03 -.173E+03   -.140E+03 0.126E+03 0.182E+03   0.292E+02 -.153E+02 -.113E+02   -.126E-01 0.570E-02 0.347E-02
   0.400E+01 0.125E+03 0.287E+03   -.180E+01 -.149E+03 -.306E+03   -.278E+01 0.275E+02 0.219E+02   -.203E-01 0.394E-01 0.346E-01
   -.275E+02 0.101E+03 0.303E+03   0.247E+02 -.124E+03 -.324E+03   0.273E+01 0.252E+02 0.242E+02   0.160E-01 0.276E-01 0.330E-01
   0.142E+03 -.719E+02 -.824E+02   -.167E+03 0.890E+02 0.823E+02   0.284E+02 -.199E+02 -.426E+00   -.305E-01 0.197E-01 -.333E-02
   -.107E+03 -.596E+02 0.184E+03   0.132E+03 0.670E+02 -.201E+03   -.284E+02 -.849E+01 0.191E+02   -.735E-02 0.112E-01 0.174E-02
   -.338E+01 -.110E+01 -.176E+02   0.349E+01 0.127E+01 0.185E+02   -.176E+00 -.944E-01 -.107E+01   -.289E-02 0.166E-02 0.167E-02
   0.112E+02 -.165E+02 -.697E+02   -.116E+02 0.169E+02 0.739E+02   0.154E+00 -.481E+00 -.476E+01   -.536E-02 0.735E-02 0.567E-02
   -.130E+01 -.451E+02 -.221E+03   0.193E+02 0.556E+02 0.240E+03   -.201E+02 -.121E+02 -.223E+02   0.230E-01 0.330E-02 0.544E-02
   0.602E+01 0.499E+02 -.545E+02   -.225E+02 -.460E+02 0.637E+02   0.192E+02 -.408E+01 -.105E+02   0.216E-01 -.768E-02 -.620E-02
   -.114E+02 0.828E+02 0.898E+02   0.141E+02 -.112E+03 -.983E+02   -.320E+01 0.324E+02 0.999E+01   0.107E-01 -.271E-01 0.911E-02
   -.714E+00 0.806E+02 0.100E+03   -.122E+01 -.109E+03 -.109E+03   0.231E+01 0.323E+02 0.101E+02   0.152E-01 -.144E-01 0.951E-02
   0.299E+02 -.440E+02 -.243E+03   -.517E+02 0.550E+02 0.257E+03   0.242E+02 -.127E+02 -.173E+02   0.820E-02 -.145E-01 -.135E-01
   -.150E+01 0.568E+02 -.774E+02   0.164E+02 -.535E+02 0.897E+02   -.174E+02 -.338E+01 -.142E+02   0.368E-01 0.141E-01 0.135E-01
   0.356E+02 0.130E+02 0.555E+02   -.392E+02 -.155E+02 -.547E+02   0.467E+01 0.312E+01 -.459E+00   0.187E-01 0.214E-01 0.116E-01
   0.104E+02 0.281E+02 0.108E+03   -.121E+02 -.299E+02 -.112E+03   0.194E+01 0.195E+01 0.508E+01   -.795E-01 0.198E-01 0.797E-02
   -.139E+03 -.757E+02 -.899E+02   0.165E+03 0.923E+02 0.902E+02   -.290E+02 -.192E+02 -.728E+00   0.841E-02 -.850E-02 0.750E-02
   0.109E+03 -.508E+02 0.143E+03   -.136E+03 0.579E+02 -.157E+03   0.296E+02 -.800E+01 0.167E+02   0.495E-02 -.106E-01 0.597E-02
   0.843E+01 0.118E+03 0.314E+03   -.371E+01 -.141E+03 -.333E+03   -.491E+01 0.259E+02 0.229E+02   0.400E-01 -.220E-01 -.123E-01
   0.186E+01 0.172E+03 0.262E+03   -.330E+01 -.201E+03 -.271E+03   0.214E+01 0.331E+02 0.107E+02   0.674E-02 -.326E-01 -.120E-01
   0.143E+03 -.240E+02 0.996E+02   -.170E+03 0.394E+02 -.104E+03   0.301E+02 -.176E+02 0.542E+01   0.170E-01 -.568E-02 0.393E-02
   -.104E+03 -.116E+03 -.212E+03   0.129E+03 0.129E+03 0.224E+03   -.277E+02 -.152E+02 -.145E+02   0.145E-01 -.155E-01 0.341E-02
   0.608E+00 -.237E+02 -.968E+01   -.500E+00 0.248E+02 0.750E+01   -.112E+00 -.139E+01 0.253E+01   0.224E-02 -.132E-01 0.751E-02
   -.108E+02 -.185E+02 -.136E+03   0.109E+02 0.201E+02 0.142E+03   0.162E+00 -.184E+01 -.640E+01   0.570E-02 -.287E-01 0.241E-02
   -.164E+03 -.467E+02 -.681E+02   0.190E+03 0.629E+02 0.683E+02   -.294E+02 -.182E+02 -.448E+00   -.234E-01 -.201E-01 -.482E-02
   0.129E+03 -.108E+03 0.223E+03   -.156E+03 0.122E+03 -.228E+03   0.305E+02 -.148E+02 0.740E+01   -.463E-01 0.336E-01 0.502E-02
   0.279E+00 0.108E+03 -.279E+03   0.372E+01 -.132E+03 0.298E+03   -.458E+01 0.270E+02 -.222E+02   -.125E-01 0.379E-02 0.953E-03
   -.260E+02 0.830E+02 -.314E+03   0.245E+02 -.105E+03 0.336E+03   0.165E+01 0.246E+02 -.255E+02   -.100E-01 -.994E-02 -.554E-02
   0.138E+03 -.924E+02 0.171E+03   -.158E+03 0.112E+03 -.182E+03   0.232E+02 -.221E+02 0.127E+02   -.113E-01 0.235E-01 0.243E-02
   -.123E+03 -.540E+02 -.134E+03   0.150E+03 0.613E+02 0.147E+03   -.309E+02 -.798E+01 -.142E+02   -.577E-01 -.394E-02 -.148E-01
   -.337E+02 0.155E+02 0.327E+02   0.360E+02 -.172E+02 -.343E+02   -.323E+01 0.223E+01 0.230E+01   0.234E-02 -.145E-01 -.520E-02
   0.341E+02 -.874E+02 -.731E+03   -.348E+02 0.966E+02 0.741E+03   0.712E+00 -.107E+02 -.117E+02   0.111E+00 -.623E-02 -.753E-02
 -----------------------------------------------------------------------------------------------
   0.104E+01 -.728E+01 -.508E+01   0.277E-12 0.199E-12 0.341E-12   -.115E+01 0.729E+01 0.492E+01   0.108E+00 -.996E-02 0.155E+00
 
 
 POSITION                                       TOTAL-FORCE (eV/Angst)
 -----------------------------------------------------------------------------------
     -0.01705      2.82377      7.29254         0.009812     -2.213245      0.875625
      1.39149      5.25267      7.40700         2.319502      0.336145      0.375874
     -1.45337      5.20075      7.30661        -2.340306      0.295598      0.059134
      6.55578      0.75386      8.64736         0.712032     -0.215452     -0.513416
      3.97638      5.25125      7.05419         0.235913      0.232012      0.907768
      1.35193      0.67879      7.67245        -0.688122     -0.088446      0.503447
     -4.09649      9.47060      8.27471        -0.260252     -1.857187     -1.023968
     -2.53597     11.80496      8.57054         1.859785      1.473533     -0.304681
     -5.33845     11.91380      8.51794        -1.861642      1.498070     -0.465638
      2.74266      7.21243      8.58256         1.042713      0.146624     -0.592011
      0.04493     11.70511      8.36139        -0.071923      1.085765      0.730083
     -2.90607      7.20872      8.21948        -0.906807      0.287888     -1.199458
      7.96468      2.83820      8.08325        -0.100667     -1.902894      0.910344
      9.23843      5.02579      6.83799         1.908627      0.922949      0.462022
      6.52117      5.12460      7.44639        -1.866649      1.510670      0.545791
     14.41431      0.49297      7.87797         0.779631     -0.008988      0.425423
     11.79595      4.94885      6.73535        -0.527825      0.421264      0.855857
      9.31098      0.73894      8.75574        -0.810278     -0.366461     -0.458288
      4.06590      9.34854      9.08435         0.510518     -2.065540     -1.095988
      5.38484     11.79116      8.94125         2.064763      1.472174     -1.077293
      2.57557     11.76652      8.91469        -2.008767      1.506293     -0.769306
     10.36692      7.29996      7.19071         0.006702     -1.055316      0.395188
      7.94600     11.81466      9.14276        -0.041852      0.589876     -1.096143
      5.42849      7.25985      8.37661        -0.426516     -0.304819     -0.308654
     -0.01636      4.43618      7.26798        -0.150427     -0.454179      0.302528
      1.32966      2.11032      7.19828        -3.188524     -1.986223      1.643142
      5.29252     -0.04903      8.92890         3.150257     -1.816092     -2.047783
      5.29506      4.58802      6.70980        -0.587955      2.965339      3.012164
      2.59360      4.73469      6.66477        -0.042398      2.426205      3.261835
      6.58546      2.24637      8.43289         3.131881     -2.791448     -0.578438
     -5.29276     13.14093      7.63783        -3.216676     -1.062404      2.762904
      0.01918      0.02438      8.25660        -0.072462      0.081620     -0.173294
     -3.95783     11.04127      8.55444        -0.246026     -0.148413     -0.540346
     -2.97681      8.57391      8.85417        -2.014358     -1.625168     -3.423629
      1.39086      6.47587      8.40552         2.757072     -0.256882     -1.301479
      1.38077     10.96706      8.37427        -0.483386      3.607570      1.551539
     -1.28764     10.98460      8.19729         0.385190      3.642486      1.577432
      2.76186      8.53139      9.31666         2.434346     -1.779181     -3.010315
     -1.57951      6.41740      8.29549        -2.459593     -0.087459     -1.951934
     11.68490      6.39742      7.45539         1.138211      0.591703      0.373716
      7.92685      4.25667      7.34133         0.173187      0.227681      0.629221
      9.32199      2.22567      8.46856        -3.247753     -2.570388     -0.401939
      5.27243     12.96899      8.00022         3.375523     -0.935265      2.564658
     -2.57361      4.63866      6.47752        -0.148664      2.630828      3.266148
     10.50097      4.22135      6.48994         0.706718      3.966000      1.978257
     14.39987      1.93087      7.44074         3.317609     -2.217549      0.920396
     10.51435     -0.07552      9.22512        -2.851164     -1.826338     -2.337796
      7.93663     -0.05800      8.52109        -0.002132     -0.331519      0.353181
      3.97955     10.95102      9.13481         0.262011     -0.272863     -0.759487
      5.40686      8.72613      8.76315        -3.537678     -2.027758     -0.183037
      9.13401      6.57424      6.76727         3.894783     -1.136194      2.066527
     -6.48073     11.36912      9.38238        -0.595027      2.915653     -2.977867
      6.61973     11.27549      9.67945         0.181893      2.304029     -3.507581
     -5.27718      9.02871      7.43089         2.928584     -2.317239      1.880523
      6.65810      6.40482      8.27333        -3.803483     -0.677800     -2.051295
      4.02046      6.58026      7.98846        -0.840472      0.556818      0.696555
     -0.15269      7.84225      9.53829         0.112524     -1.296081     -1.736216
 -----------------------------------------------------------------------------------
    total drift:                               -0.003664     -0.003041     -0.000930


--------------------------------------------------------------------------------------------------------



  FREE ENERGIE OF THE ION-ELECTRON SYSTEM (eV)
  ---------------------------------------------------
  free  energy   TOTEN  =      -433.98485890 eV

  energy  without entropy=     -433.98485890  energy(sigma->0) =     -433.98485890
 


--------------------------------------------------------------------------------------------------------


    POTLOK:  cpu time    0.1661: real time    0.1665


--------------------------------------------------------------------------------------------------------


 stress matrix after NEB project (eV)
   -302.04502      5.01883     -7.81160
      5.01883   -273.91454    -14.13198
     -7.81160    -14.13198    -67.13320
  FORCES: max atom, RMS     4.553109    2.971309
  FORCE total and by dimension   22.432892    3.966000
  Stress total and by dimension  413.931252  302.045021
     LOOP+:  cpu time  276.0959: real time  279.0242
    4ORBIT:  cpu time    0.0000: real time    0.0000
 


 total charge     
 
# of ion       s       p       d       tot
------------------------------------------
    1        0.801   1.383   0.000   2.184
    2        0.794   1.374   0.000   2.167
    3        0.795   1.378   0.000   2.173
    4        0.815   1.383   0.000   2.198
    5        0.810   1.382   0.000   2.192
    6        0.816   1.390   0.000   2.206
    7        0.801   1.379   0.000   2.181
    8        0.802   1.375   0.000   2.177
    9        0.805   1.377   0.000   2.182
   10        0.811   1.405   0.000   2.216
   11        0.815   1.386   0.000   2.201
   12        0.812   1.412   0.000   2.224
   13        0.803   1.375   0.000   2.178
   14        0.798   1.383   0.000   2.182
   15        0.797   1.382   0.000   2.179
   16        0.816   1.393   0.000   2.209
   17        0.810   1.391   0.000   2.200
   18        0.814   1.381   0.000   2.195
   19        0.802   1.377   0.000   2.179
   20        0.805   1.375   0.000   2.179
   21        0.802   1.370   0.000   2.172
   22        0.815   1.383   0.000   2.199
   23        0.817   1.373   0.000   2.190
   24        0.814   1.395   0.000   2.209
   25        1.180   2.381   0.000   3.561
   26        1.277   2.306   0.000   3.583
   27        1.274   2.306   0.000   3.580
   28        1.280   2.283   0.000   3.563
   29        1.275   2.299   0.000   3.574
   30        1.275   2.302   0.000   3.577
   31        1.280   2.303   0.000   3.583
   32        1.214   2.397   0.000   3.610
   33        1.184   2.393   0.000   3.577
   34        1.267   2.323   0.000   3.590
   35        1.241   2.333   0.000   3.574
   36        1.274   2.303   0.000   3.577
   37        1.272   2.304   0.000   3.577
   38        1.267   2.315   0.000   3.582
   39        1.241   2.338   0.000   3.579
   40        1.210   2.412   0.000   3.622
   41        1.186   2.379   0.000   3.564
   42        1.277   2.293   0.000   3.570
   43        1.277   2.308   0.000   3.585
   44        1.275   2.300   0.000   3.575
   45        1.278   2.288   0.000   3.566
   46        1.275   2.311   0.000   3.586
   47        1.275   2.299   0.000   3.574
   48        1.211   2.399   0.000   3.611
   49        1.189   2.367   0.000   3.556
   50        1.273   2.311   0.000   3.584
   51        1.275   2.302   0.000   3.577
   52        1.281   2.286   0.000   3.567
   53        1.280   2.289   0.000   3.569
   54        1.275   2.295   0.000   3.570
   55        1.280   2.297   0.000   3.578
   56        1.210   2.407   0.000   3.616
   57        1.364   0.544   9.990  11.898
--------------------------------------------------
tot         60.859 108.177   9.990 179.026
 


 magnetization (x)
 
# of ion       s       p       d       tot
------------------------------------------
    1       -0.000   0.000   0.000   0.000
    2        0.000   0.000   0.000   0.000
    3       -0.000  -0.000   0.000  -0.000
    4        0.000  -0.000   0.000  -0.000
    5        0.000   0.000   0.000   0.000
    6        0.000   0.000   0.000   0.000
    7       -0.000  -0.000   0.000  -0.000
    8       -0.000  -0.000   0.000  -0.000
    9        0.000   0.000   0.000   0.000
   10       -0.000  -0.000   0.000  -0.000
   11       -0.000   0.000   0.000  -0.000
   12        0.000   0.000   0.000   0.000
   13        0.000  -0.000   0.000  -0.000
   14        0.000  -0.000   0.000  -0.000
   15        0.000   0.000   0.000   0.000
   16        0.000   0.000   0.000   0.000
   17       -0.000  -0.000   0.000  -0.000
   18        0.000   0.000   0.000   0.000
   19        0.000   0.000   0.000   0.000
   20        0.000   0.000   0.000   0.000
   21        0.000   0.000   0.000   0.000
   22       -0.000  -0.000   0.000  -0.000
   23        0.000   0.000   0.000   0.000
   24        0.000   0.000   0.000   0.000
   25       -0.000  -0.000   0.000  -0.000
   26        0.000   0.000   0.000   0.000
   27        0.000  -0.000   0.000  -0.000
   28        0.000  -0.000   0.000  -0.000
   29        0.000  -0.000   0.000  -0.000
   30        0.000  -0.000   0.000  -0.000
   31       -0.000   0.000   0.000   0.000
   32       -0.000  -0.000   0.000  -0.000
   33       -0.000  -0.000   0.000  -0.000
   34       -0.000   0.000   0.000   0.000
   35        0.000   0.000   0.000   0.000
   36        0.000   0.000   0.000   0.000
   37       -0.000   0.000   0.000   0.000
   38        0.000   0.000   0.000   0.000
   39        0.000   0.000   0.000   0.000
   40        0.000  -0.000   0.000  -0.000
   41       -0.000  -0.000   0.000  -0.000
   42        0.000  -0.000   0.000  -0.000
   43        0.000  -0.000   0.000  -0.000
   44       -0.000   0.000   0.000   0.000
   45       -0.000   0.000   0.000   0.000
   46        0.000   0.000   0.000   0.000
   47        0.000  -0.000   0.000  -0.000
   48       -0.000  -0.000   0.000  -0.000
   49       -0.000  -0.000   0.000  -0.000
   50        0.000  -0.000   0.000  -0.000
   51       -0.000   0.000   0.000   0.000
   52        0.000  -0.000   0.000  -0.000
   53        0.000   0.000   0.000   0.000
   54       -0.000  -0.000   0.000  -0.000
   55        0.000   0.000   0.000   0.000
   56        0.000   0.000   0.000   0.000
   57       -0.000  -0.001  -0.000  -0.001
--------------------------------------------------
tot          0.000   0.000  -0.000   0.000
 
 BZINTS: Fermi energy: -3.766192;270.000000 electrons
         Band energy:***********;  BLOECHL correction:  0.000000

 total amount of memory used by VASP MPI-rank0   111191. kBytes
=======================================================================

   base      :      30000. kBytes
   nonl-proj :      19156. kBytes
   fftplans  :       5346. kBytes
   grid      :      14279. kBytes
   one-center:        155. kBytes
   wavefun   :      42255. kBytes
 
  
  
 General timing and accounting informations for this job:
 ========================================================
  
                  Total CPU time used (sec):      290.379
                            User time (sec):      281.350
                          System time (sec):        9.029
                         Elapsed time (sec):      301.323
  
                   Maximum memory used (kb):      450408.
                   Average memory used (kb):           0.
  
                          Minor page faults:      1554791
                          Major page faults:            0
                 Voluntary context switches:         9439
