       N       E                     dE             d eps       ncg     rms          rms(c)
DAV:   1     0.258143414129E+04    0.25814E+04   -0.11362E+05  3672   0.131E+03
DAV:   2    -0.110969146751E+03   -0.26924E+04   -0.26047E+04  4520   0.337E+02
DAV:   3    -0.501525894863E+03   -0.39056E+03   -0.38590E+03  3956   0.152E+02
DAV:   4    -0.517733450814E+03   -0.16208E+02   -0.15909E+02  4336   0.414E+01
DAV:   5    -0.518327186541E+03   -0.59374E+00   -0.59018E+00  4712   0.609E+00    0.422E+01
DAV:   6    -0.491393044628E+03    0.26934E+02   -0.45342E+01  4272   0.225E+01    0.257E+01
DAV:   7    -0.485450962777E+03    0.59421E+01   -0.24203E+01  4384   0.134E+01    0.159E+01
DAV:   8    -0.484320302844E+03    0.11307E+01   -0.34110E+00  4024   0.555E+00    0.750E+00
DAV:   9    -0.484317721862E+03    0.25810E-02   -0.10680E+00  4048   0.304E+00    0.230E+00
DAV:  10    -0.484264679395E+03    0.53042E-01   -0.18635E-01  4016   0.135E+00    0.105E+00
DAV:  11    -0.484252854788E+03    0.11825E-01   -0.54844E-02  3904   0.655E-01    0.374E-01
DAV:  12    -0.484251128474E+03    0.17263E-02   -0.80089E-03  4392   0.292E-01    0.178E-01
DAV:  13    -0.484251134738E+03   -0.62634E-05   -0.17651E-03  3848   0.118E-01    0.892E-02
DAV:  14    -0.484251120760E+03    0.13978E-04   -0.14020E-04  2224   0.448E-02
   1 F= -.48892724E+03 E0= -.48892724E+03  d E =0.000000E+00  mag=    -0.0000
