 vasp.5.4.4.18Apr17-6-g9f103f2a35 (build Nov  8 2022 18:58:45) complex           
 executed on             LinuxGNU date 2023.04.13  15:54:38
 running on   48 total cores
 distrk:  each k-point on   48 cores,    1 groups
 distr:  one band on NCORES_PER_BAND=  12 cores,    4 groups


--------------------------------------------------------------------------------------------------------


 INCAR:
 POTCAR:    PAW_PBE C 08Apr2002                   
 POTCAR:    PAW_PBE N 08Apr2002                   
 POTCAR:    PAW_PBE Ge_d 03Jul2007                
 POTCAR:    PAW_PBE C 08Apr2002                   
 POTCAR:    PAW_PBE O 08Apr2002                   
 POTCAR:    PAW_PBE C 08Apr2002                   
   SHA256 =  253f7b50bb8d59471dbedb8285d89021f4a42ed1a2c5d38a03a736e69125dd95 C/
   COPYR  = (c) Copyright 08Apr2002 Georg Kresse                                
   COPYR  = This file is part of the software VASP. Any use, copying, and all ot
   COPYR  = If you do not have a valid VASP license, you may not use, copy or di
   VRHFIN =C: s2p2                                                              
   LEXCH  = PE                                                                  
   EATOM  =   147.1560 eV,   10.8157 Ry                                         
                                                                                
   TITEL  = PAW_PBE C 08Apr2002                                                 
   LULTRA =        F    use ultrasoft PP ?                                      
   IUNSCR =        1    unscreen: 0-lin 1-nonlin 2-no                           
   RPACOR =    1.200    partial core radius                                     
   POMASS =   12.011; ZVAL   =    4.000    mass and valenz                      
   RCORE  =    1.500    outmost cutoff radius                                   
   RWIGS  =    1.630; RWIGS  =    0.863    wigner-seitz radius (au A)           
   ENMAX  =  400.000; ENMIN  =  300.000 eV                                      
   ICORE  =        2    local potential                                         
   LCOR   =        T    correct aug charges                                     
   LPAW   =        T    paw PP                                                  
   EAUG   =  644.873                                                            
   DEXC   =    0.000                                                            
   RMAX   =    1.529    core radius for proj-oper                               
   RAUG   =    1.300    factor for augmentation sphere                          
   RDEP   =    1.501    radius for radial grids                                 
   RDEPT  =    1.300    core radius for aug-charge                              
                                                                                
   Atomic configuration                                                         
    4 entries                                                                   
     n  l   j            E        occ.                                          
     1  0  0.50      -273.3789   2.0000                                         
     2  0  0.50       -13.7508   2.0000                                         
     2  1  0.50        -5.2854   2.0000                                         
     3  2  1.50        -5.4423   0.0000                                         
   Description                                                                  
     l       E           TYP  RCUT    TYP  RCUT                                 
     0    -13.7508458     23  1.200                                             
     0     -8.2022199     23  1.200                                             
     1     -5.2854383     23  1.500                                             
     1     34.0145650     23  1.500                                             
     2     -5.4423304      7  1.500                                             
  local pseudopotential read in
  partial core-charges read in
  partial kinetic energy density read in
  atomic valenz-charges read in
  non local Contribution for L=           0  read in
    real space projection operators read in
  non local Contribution for L=           0  read in
    real space projection operators read in
  non local Contribution for L=           1  read in
    real space projection operators read in
  non local Contribution for L=           1  read in
    real space projection operators read in
    PAW grid and wavefunctions read in

   number of l-projection  operators is LMAX  =           4
   number of lm-projection operators is LMMAX =           8

 POTCAR:    PAW_PBE N 08Apr2002                   
   SHA256 =  e053789ff3a61a86a1b75d8a110fcc91f86041011e7b0817c7c99e4e8a6349d7 N/
   COPYR  = (c) Copyright 08Apr2002 Georg Kresse                                
   COPYR  = This file is part of the software VASP. Any use, copying, and all ot
   COPYR  = If you do not have a valid VASP license, you may not use, copy or di
   VRHFIN =N: s2p3                                                              
   LEXCH  = PE                                                                  
   EATOM  =   264.5486 eV,   19.4438 Ry                                         
                                                                                
   TITEL  = PAW_PBE N 08Apr2002                                                 
   LULTRA =        F    use ultrasoft PP ?                                      
   IUNSCR =        1    unscreen: 0-lin 1-nonlin 2-no                           
   RPACOR =    1.200    partial core radius                                     
   POMASS =   14.001; ZVAL   =    5.000    mass and valenz                      
   RCORE  =    1.500    outmost cutoff radius                                   
   RWIGS  =    1.400; RWIGS  =    0.741    wigner-seitz radius (au A)           
   ENMAX  =  400.000; ENMIN  =  300.000 eV                                      
   ICORE  =        2    local potential                                         
   LCOR   =        T    correct aug charges                                     
   LPAW   =        T    paw PP                                                  
   EAUG   =  627.112                                                            
   DEXC   =    0.000                                                            
   RMAX   =    1.529    core radius for proj-oper                               
   RAUG   =    1.300    factor for augmentation sphere                          
   RDEP   =    1.514    radius for radial grids                                 
   RDEPT  =    1.338    core radius for aug-charge                              
                                                                                
   Atomic configuration                                                         
    4 entries                                                                   
     n  l   j            E        occ.                                          
     1  0  0.50      -384.7179   2.0000                                         
     2  0  0.50       -18.5828   2.0000                                         
     2  1  0.50        -7.0898   3.0000                                         
     3  2  1.50        -6.8029   0.0000                                         
   Description                                                                  
     l       E           TYP  RCUT    TYP  RCUT                                 
     0    -18.5828119     23  1.200                                             
     0    -13.5018863     23  1.200                                             
     1     -7.0897853     23  1.500                                             
     1      9.5240782     23  1.500                                             
     2     -6.8029130      7  1.500                                             
  local pseudopotential read in
  partial core-charges read in
  partial kinetic energy density read in
  atomic valenz-charges read in
  non local Contribution for L=           0  read in
    real space projection operators read in
  non local Contribution for L=           0  read in
    real space projection operators read in
  non local Contribution for L=           1  read in
    real space projection operators read in
  non local Contribution for L=           1  read in
    real space projection operators read in
    PAW grid and wavefunctions read in

   number of l-projection  operators is LMAX  =           4
   number of lm-projection operators is LMMAX =           8

 POTCAR:    PAW_PBE Ge_d 03Jul2007                
   SHA256 =  944b26c40d2d7c4f4eb1ff3a2e8dbfdd7129146276cd341854bfd5c0e57780ed Ge
   COPYR  = (c) Copyright 03Jul2007 Georg Kresse                                
   COPYR  = This file is part of the software VASP. Any use, copying, and all ot
   COPYR  = If you do not have a valid VASP license, you may not use, copy or di
   VRHFIN =Ge: 3d4s4p                                                           
   LEXCH  = PE                                                                  
   EATOM  =  2596.2402 eV,  190.8183 Ry                                         
                                                                                
   TITEL  = PAW_PBE Ge_d 03Jul2007                                              
   LULTRA =        F    use ultrasoft PP ?                                      
   IUNSCR =        1    unscreen: 0-lin 1-nonlin 2-no                           
   RPACOR =    2.000    partial core radius                                     
   POMASS =   72.610; ZVAL   =   14.000    mass and valenz                      
   RCORE  =    2.300    outmost cutoff radius                                   
   RWIGS  =    2.300; RWIGS  =    1.217    wigner-seitz radius (au A)           
   ENMAX  =  310.294; ENMIN  =  232.720 eV                                      
   ICORE  =        3    local potential                                         
   LCOR   =        T    correct aug charges                                     
   LPAW   =        T    paw PP                                                  
   EAUG   =  531.356                                                            
   DEXC   =    0.000                                                            
   RMAX   =    2.342    core radius for proj-oper                               
   RAUG   =    1.300    factor for augmentation sphere                          
   RDEP   =    2.318    radius for radial grids                                 
   RDEPT  =    1.783    core radius for aug-charge                              
                                                                                
   Atomic configuration                                                         
    9 entries                                                                   
     n  l   j            E        occ.                                          
     1  0  0.50    -10959.8463   2.0000                                         
     2  0  0.50     -1371.6056   2.0000                                         
     2  1  1.50     -1198.4791   6.0000                                         
     3  0  0.50      -168.4733   2.0000                                         
     3  1  1.50      -115.6019   6.0000                                         
     3  2  2.50       -29.3106  10.0000                                         
     4  0  0.50       -11.7309   2.0000                                         
     4  1  0.50        -3.8952   2.0000                                         
     4  3  2.50        -4.0817   0.0000                                         
   Description                                                                  
     l       E           TYP  RCUT    TYP  RCUT                                 
     2    -29.3105938     23  2.200                                             
     2    -13.6058260     23  2.200                                             
     0    -11.7309493     23  2.300                                             
     0     -7.4578696     23  2.300                                             
     1     -3.8952261     23  2.300                                             
     1      6.1178114     23  2.300                                             
     3     -1.3605826     23  2.300                                             
  local pseudopotential read in
  partial core-charges read in
  partial kinetic energy density read in
  atomic valenz-charges read in
  non local Contribution for L=           2  read in
    real space projection operators read in
  non local Contribution for L=           2  read in
    real space projection operators read in
  non local Contribution for L=           0  read in
    real space projection operators read in
  non local Contribution for L=           0  read in
    real space projection operators read in
  non local Contribution for L=           1  read in
    real space projection operators read in
  non local Contribution for L=           1  read in
    real space projection operators read in
    PAW grid and wavefunctions read in

   number of l-projection  operators is LMAX  =           6
   number of lm-projection operators is LMMAX =          18

 POTCAR:    PAW_PBE C 08Apr2002                   
   SHA256 =  253f7b50bb8d59471dbedb8285d89021f4a42ed1a2c5d38a03a736e69125dd95 C/
   COPYR  = (c) Copyright 08Apr2002 Georg Kresse                                
   COPYR  = This file is part of the software VASP. Any use, copying, and all ot
   COPYR  = If you do not have a valid VASP license, you may not use, copy or di
   VRHFIN =C: s2p2                                                              
   LEXCH  = PE                                                                  
   EATOM  =   147.1560 eV,   10.8157 Ry                                         
                                                                                
   TITEL  = PAW_PBE C 08Apr2002                                                 
   LULTRA =        F    use ultrasoft PP ?                                      
   IUNSCR =        1    unscreen: 0-lin 1-nonlin 2-no                           
   RPACOR =    1.200    partial core radius                                     
   POMASS =   12.011; ZVAL   =    4.000    mass and valenz                      
   RCORE  =    1.500    outmost cutoff radius                                   
   RWIGS  =    1.630; RWIGS  =    0.863    wigner-seitz radius (au A)           
   ENMAX  =  400.000; ENMIN  =  300.000 eV                                      
   ICORE  =        2    local potential                                         
   LCOR   =        T    correct aug charges                                     
   LPAW   =        T    paw PP                                                  
   EAUG   =  644.873                                                            
   DEXC   =    0.000                                                            
   RMAX   =    1.529    core radius for proj-oper                               
   RAUG   =    1.300    factor for augmentation sphere                          
   RDEP   =    1.501    radius for radial grids                                 
   RDEPT  =    1.300    core radius for aug-charge                              
                                                                                
   Atomic configuration                                                         
    4 entries                                                                   
     n  l   j            E        occ.                                          
     1  0  0.50      -273.3789   2.0000                                         
     2  0  0.50       -13.7508   2.0000                                         
     2  1  0.50        -5.2854   2.0000                                         
     3  2  1.50        -5.4423   0.0000                                         
   Description                                                                  
     l       E           TYP  RCUT    TYP  RCUT                                 
     0    -13.7508458     23  1.200                                             
     0     -8.2022199     23  1.200                                             
     1     -5.2854383     23  1.500                                             
     1     34.0145650     23  1.500                                             
     2     -5.4423304      7  1.500                                             
  local pseudopotential read in
  partial core-charges read in
  partial kinetic energy density read in
  atomic valenz-charges read in
  non local Contribution for L=           0  read in
    real space projection operators read in
  non local Contribution for L=           0  read in
    real space projection operators read in
  non local Contribution for L=           1  read in
    real space projection operators read in
  non local Contribution for L=           1  read in
    real space projection operators read in
    PAW grid and wavefunctions read in

   number of l-projection  operators is LMAX  =           4
   number of lm-projection operators is LMMAX =           8

 POTCAR:    PAW_PBE O 08Apr2002                   
   SHA256 =  818f92134a0a090dccd8ba1447fa70422a3b330e708bb4f08108d8ae51209ddf O/
   COPYR  = (c) Copyright 08Apr2002 Georg Kresse                                
   COPYR  = This file is part of the software VASP. Any use, copying, and all ot
   COPYR  = If you do not have a valid VASP license, you may not use, copy or di
   VRHFIN =O: s2p4                                                              
   LEXCH  = PE                                                                  
   EATOM  =   432.3788 eV,   31.7789 Ry                                         
                                                                                
   TITEL  = PAW_PBE O 08Apr2002                                                 
   LULTRA =        F    use ultrasoft PP ?                                      
   IUNSCR =        1    unscreen: 0-lin 1-nonlin 2-no                           
   RPACOR =    1.200    partial core radius                                     
   POMASS =   16.000; ZVAL   =    6.000    mass and valenz                      
   RCORE  =    1.520    outmost cutoff radius                                   
   RWIGS  =    1.550; RWIGS  =    0.820    wigner-seitz radius (au A)           
   ENMAX  =  400.000; ENMIN  =  300.000 eV                                      
   ICORE  =        2    local potential                                         
   LCOR   =        T    correct aug charges                                     
   LPAW   =        T    paw PP                                                  
   EAUG   =  605.392                                                            
   DEXC   =    0.000                                                            
   RMAX   =    1.553    core radius for proj-oper                               
   RAUG   =    1.300    factor for augmentation sphere                          
   RDEP   =    1.550    radius for radial grids                                 
   RDEPT  =    1.329    core radius for aug-charge                              
                                                                                
   Atomic configuration                                                         
    4 entries                                                                   
     n  l   j            E        occ.                                          
     1  0  0.50      -514.6923   2.0000                                         
     2  0  0.50       -23.9615   2.0000                                         
     2  1  0.50        -9.0305   4.0000                                         
     3  2  1.50        -9.5241   0.0000                                         
   Description                                                                  
     l       E           TYP  RCUT    TYP  RCUT                                 
     0    -23.9615318     23  1.200                                             
     0     -9.5240782     23  1.200                                             
     1     -9.0304911     23  1.520                                             
     1      8.1634956     23  1.520                                             
     2     -9.5240782      7  1.500                                             
  local pseudopotential read in
  partial core-charges read in
  partial kinetic energy density read in
  kinetic energy density of atom read in
  atomic valenz-charges read in
  non local Contribution for L=           0  read in
    real space projection operators read in
  non local Contribution for L=           0  read in
    real space projection operators read in
  non local Contribution for L=           1  read in
    real space projection operators read in
  non local Contribution for L=           1  read in
    real space projection operators read in
    PAW grid and wavefunctions read in

   number of l-projection  operators is LMAX  =           4
   number of lm-projection operators is LMMAX =           8


 ----------------------------------------------------------------------------- 
|                                                                             |
|  ADVICE TO THIS USER RUNNING 'VASP/VAMP'   (HEAR YOUR MASTER'S VOICE ...):  |
|                                                                             |
|      You have a (more or less) 'large supercell' and for larger cells       |
|      it might be more efficient to use real space projection opertators     |
|      So try LREAL= Auto  in the INCAR   file.                               |
|      Mind:          For very  accurate calculation you might also keep the  |
|      reciprocal projection scheme          (i.e. LREAL=.FALSE.)             |
|                                                                             |
 ----------------------------------------------------------------------------- 

  PAW_PBE C 08Apr2002                   :
 energy of atom  1       EATOM= -147.1560
 kinetic energy error for atom=    0.0132 (will be added to EATOM!!)
  PAW_PBE N 08Apr2002                   :
 energy of atom  2       EATOM= -264.5486
 kinetic energy error for atom=    0.0298 (will be added to EATOM!!)
  PAW_PBE Ge_d 03Jul2007                :
 energy of atom  3       EATOM=-2596.2402
 kinetic energy error for atom=    0.0090 (will be added to EATOM!!)
  PAW_PBE C 08Apr2002                   :
 energy of atom  4       EATOM= -147.1560
 kinetic energy error for atom=    0.0132 (will be added to EATOM!!)
  PAW_PBE O 08Apr2002                   :
 energy of atom  5       EATOM= -432.3788
 kinetic energy error for atom=    0.0458 (will be added to EATOM!!)


 POSCAR: POSCAR-c3n4                             
  positions in direct lattice
  velocities in cartesian coordinates
 exchange correlation table for  LEXCH =        8
   RHO(1)=    0.500       N(1)  =     2000
   RHO(2)=  100.500       N(2)  =     4000



--------------------------------------------------------------------------------------------------------


 ion  position               nearest neighbor table
   1  0.108  0.208  0.340-  26 1.32  46 1.36  25 1.42
   2  0.300  0.440  0.344-  29 1.32  35 1.35  25 1.41
   3  0.074  0.389  0.328-  44 1.31  39 1.35  25 1.41
   4  0.476  0.976  0.490-  27 1.29  30 1.36  48 1.44
   5  0.462  0.409  0.393-  28 1.31  29 1.32  56 1.40
   6  0.151  0.068  0.430-  26 1.32  31 1.32  32 1.41
   7  0.041  0.687  0.508-  33 1.34  54 1.35  34 1.38
   8  0.278  0.791  0.548-  27 1.39  37 1.45  33 1.48  57 2.05
   9  0.164  0.923  0.539-  31 1.32  52 1.34  33 1.39
  10  0.446  0.593  0.467-  35 1.34  38 1.35  56 1.40
  11  0.448  0.884  0.672-  37 1.31  36 1.34  48 1.44
  12  0.018  0.494  0.445-  39 1.32  34 1.33  40 1.37
  13  0.654  0.187  0.466-  30 1.31  42 1.33  41 1.45
  14  0.733  0.388  0.328-  41 1.34  45 1.35  51 1.40  17 2.06
  15  0.606  0.364  0.465-  55 1.32  28 1.33  41 1.43
  16  0.941  0.057  0.448-  46 1.33  43 1.35  32 1.40
  17  0.916  0.421  0.276-  45 1.31  44 1.34  40 1.42  14 2.06
  18  0.656  0.094  0.620-  47 1.32  42 1.35  48 1.41
  19  0.601  0.721  0.595-  50 1.33  38 1.34  49 1.44
  20  0.817  0.938  0.590-  53 1.32  43 1.34  49 1.44
  21  0.645  0.923  0.699-  36 1.33  49 1.34  47 1.37
  22  0.884  0.583  0.383-  51 1.33  54 1.34  40 1.43
  23  0.028  0.988  0.595-  52 1.33  53 1.34  32 1.39
  24  0.595  0.527  0.549-  50 1.33  55 1.34  56 1.40
  25  0.167  0.347  0.311-   3 1.41   2 1.41   1 1.42
  26  0.186  0.156  0.350-   1 1.32   6 1.32
  27  0.362  0.868  0.464-   4 1.29   8 1.39
  28  0.503  0.322  0.399-   5 1.31  15 1.33
  29  0.380  0.395  0.314-   2 1.32   5 1.32
  30  0.554  0.078  0.421-  13 1.31   4 1.36
  31  0.206  0.994  0.450-   9 1.32   6 1.32
  32  0.043  0.044  0.494-  23 1.39  16 1.40   6 1.41
  33  0.155  0.797  0.542-   7 1.34   9 1.39   8 1.48
  34  0.040  0.569  0.532-  12 1.33   7 1.38  57 2.19
  35  0.335  0.548  0.409-  10 1.34   2 1.35
  36  0.519  0.851  0.736-  21 1.33  11 1.34
  37  0.317  0.806  0.659-  11 1.31   8 1.45  57 2.14
  38  0.502  0.705  0.530-  19 1.34  10 1.35
  39  0.065  0.413  0.432-  12 1.32   3 1.35
  40  0.956  0.516  0.361-  12 1.37  17 1.42  22 1.43
  41  0.688  0.317  0.419-  14 1.34  15 1.43  13 1.45
  42  0.714  0.208  0.559-  13 1.33  18 1.35
  43  0.817  0.983  0.492-  20 1.34  16 1.35
  44  0.010  0.394  0.245-   3 1.31  17 1.34
  45  0.789  0.351  0.250-  17 1.31  14 1.35
  46  0.976  0.143  0.366-  16 1.33   1 1.36
  47  0.721  0.063  0.689-  18 1.32  21 1.37
  48  0.520  0.995  0.598-  18 1.41   4 1.44  11 1.44
  49  0.688  0.855  0.640-  21 1.34  19 1.44  20 1.44
  50  0.643  0.635  0.614-  19 1.33  24 1.33
  51  0.763  0.523  0.338-  22 1.33  14 1.40
  52  0.108  0.943  0.625-  23 1.33   9 1.34
  53  0.917  0.953  0.651-  20 1.32  23 1.34
  54  0.947  0.690  0.449-  22 1.34   7 1.35
  55  0.646  0.446  0.548-  15 1.32  24 1.34
  56  0.503  0.511  0.470-   5 1.40  10 1.40  24 1.40
  57  0.227  0.600  0.601-   8 2.05  37 2.14  34 2.19
  58  0.239  0.512  0.967-  59 1.14
  59  0.261  0.521  0.056-  58 1.14


IMPORTANT INFORMATION: All symmetrisations will be switched off!
NOSYMM: (Re-)initialisation of all symmetry stuff for point group C_1.



 KPOINTS: K-Points                                

Automatic generation of k-mesh.
Space group operators:
 irot       det(A)        alpha          n_x          n_y          n_z        tau_x        tau_y        tau_z
    1     1.000000     0.000000     1.000000     0.000000     0.000000     0.000000     0.000000     0.000000
 
 Subroutine IBZKPT returns following result:
 ===========================================
 
 Found      5 irreducible k-points:
 
 Following reciprocal coordinates:
            Coordinates               Weight
  0.000000  0.000000  0.000000      1.000000
  0.333333  0.000000  0.000000      2.000000
  0.000000  0.333333  0.000000      2.000000
  0.333333  0.333333  0.000000      2.000000
 -0.333333  0.333333  0.000000      2.000000
 
 Following cartesian coordinates:
            Coordinates               Weight
  0.000000  0.000000  0.000000      1.000000
  0.024277  0.014368  0.000000      2.000000
  0.000396  0.028736  0.000000      2.000000
  0.024673  0.043104  0.000000      2.000000
 -0.023881  0.014368  0.000000      2.000000
 
 TETIRR: Found     24 inequivalent tetrahedra from       54


--------------------------------------------------------------------------------------------------------




 Dimension of arrays:
   k-points           NKPTS =      5   k-points in BZ     NKDIM =      5   number of bands    NBANDS=    172
   number of dos      NEDOS =   4000   number of ions     NIONS =     59
   non local maximal  LDIM  =      6   non local SUM 2l+1 LMDIM =     18
   total plane-waves  NPLWV = 252000
   max r-space proj   IRMAX =      1   max aug-charges    IRDMAX=   6135
   dimension x,y,z NGX =    60 NGY =   60 NGZ =   70
   dimension x,y,z NGXF=   120 NGYF=  120 NGZF=  140
   support grid    NGXF=   120 NGYF=  120 NGZF=  140
   ions per type =              24  32   1   1   1
   NGX,Y,Z   is equivalent  to a cutoff of   8.58,  8.74,  9.24 a.u.
   NGXF,Y,Z  is equivalent  to a cutoff of  17.15, 17.48, 18.47 a.u.

 SYSTEM =  unknown system                          
 POSCAR =  POSCAR-c3n4                             

 Startparameter for this run:
   NWRITE =      2    write-flag & timer
   PREC   = normal    normal or accurate (medium, high low for compatibility)
   ISTART =      0    job   : 0-new  1-cont  2-samecut
   ICHARG =      2    charge: 1-file 2-atom 10-const
   ISPIN  =      2    spin polarized calculation?
   LNONCOLLINEAR =      F non collinear calculations
   LSORBIT =      F    spin-orbit coupling
   INIWAV =      1    electr: 0-lowe 1-rand  2-diag
   LASPH  =      F    aspherical Exc in radial PAW
   METAGGA=      F    non-selfconsistent MetaGGA calc.

 Electronic Relaxation 1
   ENCUT  =  440.0 eV  32.34 Ry    5.69 a.u.  19.89 19.52 21.55*2*pi/ulx,y,z
   ENINI  =  440.0     initial cutoff
   ENAUG  =  644.9 eV  augmentation charge cutoff
   NELM   =    100;   NELMIN=  2; NELMDL= -5     # of ELM steps 
   EDIFF  = 0.1E-03   stopping-criterion for ELM
   LREAL  =      F    real-space projection
   NLSPLINE    = F    spline interpolate recip. space projectors
   LCOMPAT=      F    compatible to vasp.4.4
   GGA_COMPAT  = T    GGA compatible to vasp.4.4-vasp.4.6
   LMAXPAW     = -100 max onsite density
   LMAXMIX     =    2 max onsite mixed and CHGCAR
   VOSKOWN=      0    Vosko Wilk Nusair interpolation
   ROPT   =    0.00000   0.00000   0.00000   0.00000
   ROPT   =    0.00000
 Ionic relaxation
   EDIFFG = -.1E-01   stopping-criterion for IOM
   NSW    =      0    number of steps for IOM
   NBLOCK =      1;   KBLOCK =      1    inner block; outer block 
   IBRION =     -1    ionic relax: 0-MD 1-quasi-New 2-CG
   NFREE  =      0    steps in history (QN), initial steepest desc. (CG)
   ISIF   =      2    stress and relaxation
   IWAVPR =     10    prediction:  0-non 1-charg 2-wave 3-comb
   ISYM   =      0    0-nonsym 1-usesym 2-fastsym
   LCORR  =      T    Harris-Foulkes like correction to forces

   POTIM  = 0.5000    time-step for ionic-motion
   TEIN   =    0.0    initial temperature
   TEBEG  =    0.0;   TEEND  =   0.0 temperature during run
   SMASS  =  -3.00    Nose mass-parameter (am)
   estimated Nose-frequenzy (Omega)   =  0.10E-29 period in steps =****** mass=  -0.309E-26a.u.
   SCALEE = 1.0000    scale energy and forces
   NPACO  =    256;   APACO  = 16.0  distance and # of slots for P.C.
   PSTRESS=    0.0 pullay stress

  Mass of Ions in am
   POMASS =  12.01 14.00 72.61 12.01 16.00
  Ionic Valenz
   ZVAL   =   4.00  5.00 14.00  4.00  6.00
  Atomic Wigner-Seitz radii
   RWIGS  =  -1.00 -1.00 -1.00 -1.00 -1.00
  virtual crystal weights 
   VCA    =   1.00  1.00  1.00  1.00  1.00
   NELECT =     280.0000    total number of electrons
   NUPDOWN=      -1.0000    fix difference up-down

 DOS related values:
   EMIN   = -14.00;   EMAX   =  6.00  energy-range for DOS
   EFERMI =   0.00
   ISMEAR =    -5;   SIGMA  =   0.20  broadening in eV -4-tet -1-fermi 0-gaus

 Electronic relaxation 2 (details)
   IALGO  =     38    algorithm
   LDIAG  =      T    sub-space diagonalisation (order eigenvalues)
   LSUBROT=      F    optimize rotation matrix (better conditioning)
   TURBO    =      0    0=normal 1=particle mesh
   IRESTART =      0    0=no restart 2=restart with 2 vectors
   NREBOOT  =      0    no. of reboots
   NMIN     =      0    reboot dimension
   EREF     =   0.00    reference energy to select bands
   IMIX   =      4    mixing-type and parameters
     AMIX     =   0.25;   BMIX     =  0.00
     AMIX_MAG =   1.00;   BMIX_MAG =  0.00
     AMIN     =   0.10
     WC   =   100.;   INIMIX=   1;  MIXPRE=   1;  MAXMIX= -45

 Intra band minimization:
   WEIMIN = 0.0000     energy-eigenvalue tresh-hold
   EBREAK =  0.15E-06  absolut break condition
   DEPER  =   0.30     relativ break condition  

   TIME   =   0.40     timestep for ELM

  volume/ion in A,a.u.               =      24.20       163.29
  Fermi-wavevector in a.u.,A,eV,Ry     =   0.951158  1.797429 12.309223  0.904702
  Thomas-Fermi vector in A             =   2.079602

 Write flags
   LWAVE        =      F    write WAVECAR
   LDOWNSAMPLE  =      F    k-point downsampling of WAVECAR
   LCHARG       =      F    write CHGCAR
   LVTOT        =      F    write LOCPOT, total local potential
   LVHAR        =      F    write LOCPOT, Hartree potential only
   LELF         =      F    write electronic localiz. function (ELF)
   LORBIT       =     11    0 simple, 1 ext, 2 COOP (PROOUT), +10 PAW based schemes


 Dipole corrections
   LMONO  =      F    monopole corrections only (constant potential shift)
   LDIPOL =      F    correct potential (dipole corrections)
   IDIPOL =      0    1-x, 2-y, 3-z, 4-all directions 
   EPSILON=  1.0000000 bulk dielectric constant

 Exchange correlation treatment:
   GGA     =    --    GGA type
   LEXCH   =     8    internal setting for exchange type
   VOSKOWN=      0    Vosko Wilk Nusair interpolation
   LHFCALC =     F    Hartree Fock is set to
   LHFONE  =     F    Hartree Fock one center treatment
   AEXX    =    0.0000 exact exchange contribution

 Linear response parameters
   LEPSILON=     F    determine dielectric tensor
   LRPA    =     F    only Hartree local field effects (RPA)
   LNABLA  =     F    use nabla operator in PAW spheres
   LVEL    =     F    velocity operator in full k-point grid
   LINTERFAST=   F  fast interpolation
   KINTER  =     0    interpolate to denser k-point grid
   CSHIFT  =0.1000    complex shift for real part using Kramers Kronig
   OMEGAMAX=  -1.0    maximum frequency
   DEG_THRESHOLD= 0.2000000E-02 threshold for treating states as degnerate
   RTIME   =   -0.100 relaxation time in fs
  (WPLASMAI=    0.000 imaginary part of plasma frequency in eV, 0.658/RTIME)
   DFIELD  = 0.0000000 0.0000000 0.0000000 field for delta impulse in time

 Orbital magnetization related:
   ORBITALMAG=     F  switch on orbital magnetization
   LCHIMAG   =     F  perturbation theory with respect to B field
   DQ        =  0.001000  dq finite difference perturbation B field
   LLRAUG    =     F  two centre corrections for induced B field



--------------------------------------------------------------------------------------------------------


 Static calculation
 charge density and potential will be updated during run
 spin polarized calculation
 Variant of blocked Davidson
 Davidson routine will perform the subspace rotation
 perform sub-space diagonalisation
    after iterative eigenvector-optimisation
 modified Broyden-mixing scheme, WC =      100.0
 initial mixing is a Kerker type mixing with AMIX =  0.2500 and BMIX =      0.0001
 Hartree-type preconditioning will be used
 using additional bands           32
 reciprocal scheme for non local part
 use partial core corrections
 calculate Harris-corrections to forces   (improved forces if not selfconsistent)
 use gradient corrections 
 use of overlap-Matrix (Vanderbilt PP)
 Fermi weights with tetrahedron method with Bloechl corrections


--------------------------------------------------------------------------------------------------------


  energy-cutoff  :      440.00
  volume of cell :     1427.66
      direct lattice vectors                 reciprocal lattice vectors
    11.628476357 -0.160221998  0.000000000     0.086702821  0.051314422 -0.000000000
    -5.814238179  9.823960435  0.000000000     0.001414063  0.102628844 -0.000000000
     0.000000000  0.000000000 12.600000000    -0.000000000 -0.000000000  0.079365079

  length of vectors
    11.629580107 11.415584270 12.600000000     0.100749933  0.102638585  0.079365079



 k-points in units of 2pi/SCALE and weight: K-Points                                
   0.00000000  0.00000000  0.00000000       0.111
   0.02427679  0.01436804  0.00000000       0.222
   0.00039594  0.02873608  0.00000000       0.222
   0.02467273  0.04310411  0.00000000       0.222
  -0.02388085  0.01436804  0.00000000       0.222

 k-points in reciprocal lattice and weights: K-Points                                
   0.00000000  0.00000000  0.00000000       0.111
   0.33333333  0.00000000  0.00000000       0.222
   0.00000000  0.33333333  0.00000000       0.222
   0.33333333  0.33333333  0.00000000       0.222
  -0.33333333  0.33333333  0.00000000       0.222

 position of ions in fractional coordinates (direct lattice) 
   0.10813064  0.20781587  0.34026484
   0.30044051  0.43982315  0.34413101
   0.07386584  0.38868900  0.32837655
   0.47564748  0.97580775  0.48991575
   0.46202780  0.40903919  0.39263832
   0.15114442  0.06804850  0.42962912
   0.04092749  0.68655112  0.50753997
   0.27826905  0.79130478  0.54772510
   0.16371177  0.92333611  0.53907280
   0.44614138  0.59283376  0.46724876
   0.44801271  0.88353257  0.67213613
   0.01768955  0.49400289  0.44480923
   0.65358609  0.18731145  0.46592689
   0.73349257  0.38766602  0.32757182
   0.60599019  0.36351007  0.46542958
   0.94052569  0.05671849  0.44762180
   0.91626729  0.42084164  0.27631276
   0.65641906  0.09356777  0.61966548
   0.60132480  0.72129207  0.59469123
   0.81748475  0.93835666  0.59038954
   0.64488641  0.92319362  0.69880627
   0.88381397  0.58340250  0.38254718
   0.02764308  0.98785114  0.59525712
   0.59500731  0.52727226  0.54908298
   0.16708668  0.34740036  0.31112142
   0.18610311  0.15608807  0.35035305
   0.36225646  0.86808969  0.46416918
   0.50285390  0.32195239  0.39938620
   0.38016585  0.39544658  0.31427984
   0.55351014  0.07790074  0.42056682
   0.20634250  0.99435770  0.44997121
   0.04256374  0.04409277  0.49438913
   0.15455639  0.79697268  0.54155094
   0.04025842  0.56852668  0.53238634
   0.33469434  0.54789090  0.40872691
   0.51926172  0.85130417  0.73616697
   0.31719513  0.80612718  0.65866240
   0.50215947  0.70490650  0.52985737
   0.06536439  0.41271818  0.43193133
   0.95615253  0.51632264  0.36105066
   0.68799789  0.31732892  0.41888925
   0.71440099  0.20799832  0.55944113
   0.81729278  0.98273395  0.49189783
   0.01033366  0.39375837  0.24459250
   0.78897911  0.35124342  0.25025230
   0.97581113  0.14316207  0.36632073
   0.72148764  0.06308969  0.68940835
   0.52042608  0.99496079  0.59841086
   0.68768376  0.85493132  0.64030744
   0.64256735  0.63465726  0.61435362
   0.76256979  0.52259987  0.33787369
   0.10786785  0.94319534  0.62488699
   0.91665135  0.95267735  0.65112628
   0.94653879  0.69043492  0.44859883
   0.64641185  0.44638812  0.54820770
   0.50291586  0.51095359  0.46974816
   0.22679500  0.60025827  0.60148371
   0.23921694  0.51174473  0.96689001
   0.26119882  0.52134060  0.05595066

 position of ions in cartesian coordinates  (Angst):
   0.04910365  2.02424995  4.28733694
   0.93642886  4.27266801  4.33605079
  -1.40098330  3.80663042  4.13754452
  -0.14252318  9.51008753  6.17293842
   2.99442808  3.94435781  4.94724280
   1.36192914  0.64428906  5.41332687
  -3.51584737  6.73809353  6.39500368
  -1.36498944  7.72916203  6.90133624
  -3.46477758  9.04458718  6.79231725
   1.74106778  5.75249376  5.88733441
   0.07263643  8.60800756  8.46891519
  -2.66654795  4.85023063  5.60459628
   6.51113703  1.73542136  5.87067887
   6.27541839  3.69089399  4.12740488
   4.93320843  3.47401560  5.86441276
  10.60710593  0.40650730  5.64003465
   8.20791895  3.98752545  3.48154075
   7.08912826  0.81403332  7.80778503
   2.79872736  6.98959929  7.49310945
   4.05027304  9.08739965  7.43890817
   2.13137876  8.96609265  8.80495899
   6.88536880  5.58971667  4.82009450
  -5.42215491  9.70018148  7.50023973
   3.85334196  5.08456859  6.91844549
  -0.07690488  3.38607639  3.92012995
   1.25656243  1.50358525  4.41444839
  -0.83478952  8.47003736  5.84853170
   3.97551685  3.08227927  5.03226607
   2.12152899  3.82394064  3.95992600
   5.98354612  0.67660927  5.29914197
  -3.38198361  9.73547013  5.66963730
   0.23858558  0.42634597  6.22930298
  -2.83653359  7.80466471  6.82354186
  -2.83740537  5.57873329  6.70806790
   0.70641697  5.32883317  5.14995912
   1.08853741  8.27998134  9.27570376
  -0.99851938  7.86853990  8.29914619
   1.74085522  6.84451658  6.67620284
  -1.63955351  4.04405422  5.44233475
   8.11657426  4.91913648  4.54923827
   6.15534125  3.00719437  5.27800457
   7.09804330  1.92890448  7.04895818
   3.79002050  9.52339114  6.19791262
  -2.16924020  3.86661097  3.08186546
   7.13241206  3.32418965  3.15317901
  10.51481823  1.25007211  4.61564123
   8.02298347  0.50419242  8.68654525
   0.26682332  9.69107173  7.53997681
   3.02593995  8.28862942  8.06787375
   3.78203077  6.13189437  7.74085564
   5.82900465  5.01182003  4.25720851
  -4.22962358  9.24863093  7.87357603
   5.12016553  9.21219687  8.20419114
   6.99245084  6.63114896  5.65234523
   4.92137799  4.28172987  6.90741698
   2.87733939  4.93900964  5.91882687
  -0.85276431  5.86057599  7.57869468
  -0.19367717  4.98903212 12.18281407
   0.00614591  5.07977960  0.70497827



--------------------------------------------------------------------------------------------------------


 k-point  1 :   0.0000 0.0000 0.0000  plane waves:   29935
 k-point  2 :   0.3333 0.0000 0.0000  plane waves:   29943
 k-point  3 :   0.0000 0.3333 0.0000  plane waves:   29919
 k-point  4 :   0.3333 0.3333 0.0000  plane waves:   29929
 k-point  5 :  -0.3333 0.3333 0.0000  plane waves:   29928

 maximum and minimum number of plane-waves per node :      2516     2475

 maximum number of plane-waves:     29943
 maximum index in each direction: 
   IXMAX=   20   IYMAX=   19   IZMAX=   21
   IXMIN=  -20   IYMIN=  -19   IZMIN=  -21


 parallel 3D FFT for wavefunctions:
    minimum data exchange during FFTs selected (reduces bandwidth)
 parallel 3D FFT for charge:
    minimum data exchange during FFTs selected (reduces bandwidth)


 total amount of memory used by VASP MPI-rank0    68289. kBytes
=======================================================================

   base      :      30000. kBytes
   nonl-proj :      11323. kBytes
   fftplans  :       2315. kBytes
   grid      :       6994. kBytes
   one-center:        155. kBytes
   wavefun   :      17502. kBytes

     INWAV:  cpu time    0.0001: real time    0.0001
 Broyden mixing: mesh for mixing (old mesh)
   NGX = 39   NGY = 39   NGZ = 43
  (NGX  =120   NGY  =120   NGZ  =140)
  gives a total of  65403 points

 initial charge density was supplied:
 charge density of overlapping atoms calculated
 number of electron     280.0000000 magnetization       2.0000000
 keeping initial charge density in first step


--------------------------------------------------------------------------------------------------------


 Maximum index for augmentation-charges          181 (set IRDMAX)


--------------------------------------------------------------------------------------------------------


 First call to EWALD:  gamma=   0.157
 Maximum number of real-space cells 3x 3x 3
 Maximum number of reciprocal cells 3x 3x 3

    FEWALD:  cpu time    0.0020: real time    0.0020


--------------------------------------- Iteration      1(   1)  ---------------------------------------


    POTLOK:  cpu time    0.0700: real time    0.0856
    SETDIJ:  cpu time    0.0093: real time    0.0096
     EDDAV:  cpu time    6.1309: real time    6.1371
 BZINTS: Fermi energy: 12.323765;280.000000 electrons
         Band energy:-976.789469;  BLOECHL correction: -0.024368
       DOS:  cpu time    0.3456: real time    0.3456
    --------------------------------------------
      LOOP:  cpu time    6.5558: real time    6.5779

 eigenvalue-minimisations  :  3672
 total energy-change (2. order) : 0.2581434E+04  (-0.1136176E+05)
 number of electron     280.0000000 magnetization       2.0000000
 augmentation part      280.0000000 magnetization       2.0000000

 Free energy of the ion-electron system (eV)
  ---------------------------------------------------
  alpha Z        PSCENC =       261.00114946
  Ewald energy   TEWEN  =     14731.09655940
  -Hartree energ DENC   =    -27186.64556580
  -exchange      EXHF   =         0.00000000
  -V(xc)+E(xc)   XCENC  =      1070.10162331
  PAW double counting   =     11453.83848114   -11942.90478952
  entropy T*S    EENTRO =         0.00000000
  eigenvalues    EBANDS =      -976.78946888
  atomic energy  EATOM  =     15171.73615219
  Solvation  Ediel_sol  =         0.00000000
  ---------------------------------------------------
  free energy    TOTEN  =      2581.43414129 eV

  energy without entropy =     2581.43414129  energy(sigma->0) =     2581.43414129


--------------------------------------------------------------------------------------------------------




--------------------------------------- Iteration      1(   2)  ---------------------------------------


     EDDAV:  cpu time    7.1476: real time    7.1612
 BZINTS: Fermi energy: -0.671355;280.000000 electrons
         Band energy:***********;  BLOECHL correction:  0.000000
       DOS:  cpu time    0.0155: real time    0.0155
    --------------------------------------------
      LOOP:  cpu time    7.1631: real time    7.1767

 eigenvalue-minimisations  :  4520
 total energy-change (2. order) :-0.2692403E+04  (-0.2604654E+04)
 number of electron     280.0000000 magnetization       2.0000000
 augmentation part      280.0000000 magnetization       2.0000000

 Free energy of the ion-electron system (eV)
  ---------------------------------------------------
  alpha Z        PSCENC =       261.00114946
  Ewald energy   TEWEN  =     14731.09655940
  -Hartree energ DENC   =    -27186.64556580
  -exchange      EXHF   =         0.00000000
  -V(xc)+E(xc)   XCENC  =      1070.10162331
  PAW double counting   =     11453.83848114   -11942.90478952
  entropy T*S    EENTRO =         0.00000000
  eigenvalues    EBANDS =     -3669.19275692
  atomic energy  EATOM  =     15171.73615219
  Solvation  Ediel_sol  =         0.00000000
  ---------------------------------------------------
  free energy    TOTEN  =      -110.96914675 eV

  energy without entropy =     -110.96914675  energy(sigma->0) =     -110.96914675


--------------------------------------------------------------------------------------------------------




--------------------------------------- Iteration      1(   3)  ---------------------------------------


     EDDAV:  cpu time    6.4031: real time    6.4100
 BZINTS: Fermi energy: -3.746187;280.000000 electrons
         Band energy:***********;  BLOECHL correction:  0.000000
       DOS:  cpu time    0.0152: real time    0.0152
    --------------------------------------------
      LOOP:  cpu time    6.4183: real time    6.4252

 eigenvalue-minimisations  :  3956
 total energy-change (2. order) :-0.3905567E+03  (-0.3858974E+03)
 number of electron     280.0000000 magnetization       2.0000000
 augmentation part      280.0000000 magnetization       2.0000000

 Free energy of the ion-electron system (eV)
  ---------------------------------------------------
  alpha Z        PSCENC =       261.00114946
  Ewald energy   TEWEN  =     14731.09655940
  -Hartree energ DENC   =    -27186.64556580
  -exchange      EXHF   =         0.00000000
  -V(xc)+E(xc)   XCENC  =      1070.10162331
  PAW double counting   =     11453.83848114   -11942.90478952
  entropy T*S    EENTRO =         0.00000000
  eigenvalues    EBANDS =     -4059.74950503
  atomic energy  EATOM  =     15171.73615219
  Solvation  Ediel_sol  =         0.00000000
  ---------------------------------------------------
  free energy    TOTEN  =      -501.52589486 eV

  energy without entropy =     -501.52589486  energy(sigma->0) =     -501.52589486


--------------------------------------------------------------------------------------------------------




--------------------------------------- Iteration      1(   4)  ---------------------------------------


     EDDAV:  cpu time    6.8928: real time    6.8955
 BZINTS: Fermi energy: -4.041260;280.000000 electrons
         Band energy:***********;  BLOECHL correction:  0.000000
       DOS:  cpu time    0.0149: real time    0.0149
    --------------------------------------------
      LOOP:  cpu time    6.9077: real time    6.9105

 eigenvalue-minimisations  :  4336
 total energy-change (2. order) :-0.1620756E+02  (-0.1590895E+02)
 number of electron     280.0000000 magnetization       2.0000000
 augmentation part      280.0000000 magnetization       2.0000000

 Free energy of the ion-electron system (eV)
  ---------------------------------------------------
  alpha Z        PSCENC =       261.00114946
  Ewald energy   TEWEN  =     14731.09655940
  -Hartree energ DENC   =    -27186.64556580
  -exchange      EXHF   =         0.00000000
  -V(xc)+E(xc)   XCENC  =      1070.10162331
  PAW double counting   =     11453.83848114   -11942.90478952
  entropy T*S    EENTRO =         0.00000000
  eigenvalues    EBANDS =     -4075.95706098
  atomic energy  EATOM  =     15171.73615219
  Solvation  Ediel_sol  =         0.00000000
  ---------------------------------------------------
  free energy    TOTEN  =      -517.73345081 eV

  energy without entropy =     -517.73345081  energy(sigma->0) =     -517.73345081


--------------------------------------------------------------------------------------------------------




--------------------------------------- Iteration      1(   5)  ---------------------------------------


     EDDAV:  cpu time    7.3745: real time    7.3860
 BZINTS: Fermi energy: -4.051263;280.000000 electrons
         Band energy:***********;  BLOECHL correction:  0.000000
       DOS:  cpu time    0.0156: real time    0.0156
    CHARGE:  cpu time    0.1353: real time    0.1353
    MIXING:  cpu time    0.0021: real time    0.0021
    --------------------------------------------
      LOOP:  cpu time    7.5275: real time    7.5390

 eigenvalue-minimisations  :  4712
 total energy-change (2. order) :-0.5937357E+00  (-0.5901754E+00)
 number of electron     280.0000033 magnetization       0.0000002
 augmentation part       20.1497112 magnetization       0.0281581

 Broyden mixing:
  rms(total) = 0.42188E+01    rms(broyden)= 0.42157E+01
  rms(prec ) = 0.48171E+01
  weight for this iteration     100.00

 Free energy of the ion-electron system (eV)
  ---------------------------------------------------
  alpha Z        PSCENC =       261.00114946
  Ewald energy   TEWEN  =     14731.09655940
  -Hartree energ DENC   =    -27186.64556580
  -exchange      EXHF   =         0.00000000
  -V(xc)+E(xc)   XCENC  =      1070.10162331
  PAW double counting   =     11453.83848114   -11942.90478952
  entropy T*S    EENTRO =         0.00000000
  eigenvalues    EBANDS =     -4076.55079671
  atomic energy  EATOM  =     15171.73615219
  Solvation  Ediel_sol  =         0.00000000
  ---------------------------------------------------
  free energy    TOTEN  =      -518.32718654 eV

  energy without entropy =     -518.32718654  energy(sigma->0) =     -518.32718654


--------------------------------------------------------------------------------------------------------




--------------------------------------- Iteration      1(   6)  ---------------------------------------


    POTLOK:  cpu time    0.0647: real time    0.0678
    SETDIJ:  cpu time    0.0086: real time    0.0086
     EDDAV:  cpu time    6.8042: real time    6.8095
 BZINTS: Fermi energy: -2.889722;280.000000 electrons
         Band energy:***********;  BLOECHL correction:  0.000000
       DOS:  cpu time    0.0151: real time    0.0151
    CHARGE:  cpu time    0.1340: real time    0.1340
    MIXING:  cpu time    0.0017: real time    0.0019
    --------------------------------------------
      LOOP:  cpu time    7.0283: real time    7.0369

 eigenvalue-minimisations  :  4272
 total energy-change (2. order) : 0.2693414E+02  (-0.4534168E+01)
 number of electron     280.0000034 magnetization      -0.0000000
 augmentation part       19.0461634 magnetization       0.0070801

 Broyden mixing:
  rms(total) = 0.25701E+01    rms(broyden)= 0.25698E+01
  rms(prec ) = 0.27902E+01
  weight for this iteration     100.00

 eigenvalues of (default mixing * dielectric matrix)
  average eigenvalue GAMMA=   1.4632
  1.4632

 Free energy of the ion-electron system (eV)
  ---------------------------------------------------
  alpha Z        PSCENC =       261.00114946
  Ewald energy   TEWEN  =     14731.09655940
  -Hartree energ DENC   =    -27433.62983481
  -exchange      EXHF   =         0.00000000
  -V(xc)+E(xc)   XCENC  =      1084.73892546
  PAW double counting   =     15035.62986623   -15527.42833698
  entropy T*S    EENTRO =         0.00000000
  eigenvalues    EBANDS =     -3814.53752558
  atomic energy  EATOM  =     15171.73615219
  Solvation  Ediel_sol  =         0.00000000
  ---------------------------------------------------
  free energy    TOTEN  =      -491.39304463 eV

  energy without entropy =     -491.39304463  energy(sigma->0) =     -491.39304463


--------------------------------------------------------------------------------------------------------




--------------------------------------- Iteration      1(   7)  ---------------------------------------


    POTLOK:  cpu time    0.0671: real time    0.0676
    SETDIJ:  cpu time    0.0089: real time    0.0089
     EDDAV:  cpu time    6.9186: real time    6.9286
 BZINTS: Fermi energy: -2.160790;280.000000 electrons
         Band energy:***********;  BLOECHL correction:  0.000000
       DOS:  cpu time    0.0150: real time    0.0150
    CHARGE:  cpu time    0.1336: real time    0.1336
    MIXING:  cpu time    0.0012: real time    0.0012
    --------------------------------------------
      LOOP:  cpu time    7.1444: real time    7.1549

 eigenvalue-minimisations  :  4384
 total energy-change (2. order) : 0.5942082E+01  (-0.2420307E+01)
 number of electron     280.0000034 magnetization       0.0000000
 augmentation part       18.5480948 magnetization       0.0007959

 Broyden mixing:
  rms(total) = 0.15873E+01    rms(broyden)= 0.15870E+01
  rms(prec ) = 0.16587E+01
  weight for this iteration     100.00

 eigenvalues of (default mixing * dielectric matrix)
  average eigenvalue GAMMA=   1.8260
  1.1631  2.4889

 Free energy of the ion-electron system (eV)
  ---------------------------------------------------
  alpha Z        PSCENC =       261.00114946
  Ewald energy   TEWEN  =     14731.09655940
  -Hartree energ DENC   =    -27673.00797367
  -exchange      EXHF   =         0.00000000
  -V(xc)+E(xc)   XCENC  =      1096.70764580
  PAW double counting   =     20172.14140118   -20667.30668969
  entropy T*S    EENTRO =         0.00000000
  eigenvalues    EBANDS =     -3577.81920745
  atomic energy  EATOM  =     15171.73615219
  Solvation  Ediel_sol  =         0.00000000
  ---------------------------------------------------
  free energy    TOTEN  =      -485.45096278 eV

  energy without entropy =     -485.45096278  energy(sigma->0) =     -485.45096278


--------------------------------------------------------------------------------------------------------




--------------------------------------- Iteration      1(   8)  ---------------------------------------


    POTLOK:  cpu time    0.0690: real time    0.0697
    SETDIJ:  cpu time    0.0089: real time    0.0089
     EDDAV:  cpu time    6.4628: real time    6.4688
 BZINTS: Fermi energy: -1.920730;280.000000 electrons
         Band energy:***********;  BLOECHL correction:  0.000000
       DOS:  cpu time    0.0153: real time    0.0153
    CHARGE:  cpu time    0.1242: real time    0.1242
    MIXING:  cpu time    0.0013: real time    0.0013
    --------------------------------------------
      LOOP:  cpu time    6.6816: real time    6.6883

 eigenvalue-minimisations  :  4024
 total energy-change (2. order) : 0.1130660E+01  (-0.3410973E+00)
 number of electron     280.0000033 magnetization      -0.0000000
 augmentation part       18.5139303 magnetization       0.0006823

 Broyden mixing:
  rms(total) = 0.74976E+00    rms(broyden)= 0.74971E+00
  rms(prec ) = 0.77185E+00
  weight for this iteration     100.00

 eigenvalues of (default mixing * dielectric matrix)
  average eigenvalue GAMMA=   2.0387
  3.7392  1.0375  1.3393

 Free energy of the ion-electron system (eV)
  ---------------------------------------------------
  alpha Z        PSCENC =       261.00114946
  Ewald energy   TEWEN  =     14731.09655940
  -Hartree energ DENC   =    -27777.73403808
  -exchange      EXHF   =         0.00000000
  -V(xc)+E(xc)   XCENC  =      1101.66483407
  PAW double counting   =     25551.98818698   -26051.18800983
  entropy T*S    EENTRO =         0.00000000
  eigenvalues    EBANDS =     -3472.88513702
  atomic energy  EATOM  =     15171.73615219
  Solvation  Ediel_sol  =         0.00000000
  ---------------------------------------------------
  free energy    TOTEN  =      -484.32030284 eV

  energy without entropy =     -484.32030284  energy(sigma->0) =     -484.32030284


--------------------------------------------------------------------------------------------------------




--------------------------------------- Iteration      1(   9)  ---------------------------------------


    POTLOK:  cpu time    0.0672: real time    0.0681
    SETDIJ:  cpu time    0.0089: real time    0.0089
     EDDAV:  cpu time    6.4876: real time    6.4933
 BZINTS: Fermi energy: -1.765691;280.000000 electrons
         Band energy:***********;  BLOECHL correction:  0.000000
       DOS:  cpu time    0.0147: real time    0.0147
    CHARGE:  cpu time    0.1338: real time    0.1338
    MIXING:  cpu time    0.0013: real time    0.0013
    --------------------------------------------
      LOOP:  cpu time    6.7136: real time    6.7201

 eigenvalue-minimisations  :  4048
 total energy-change (2. order) : 0.2580982E-02  (-0.1068014E+00)
 number of electron     280.0000033 magnetization       0.0000000
 augmentation part       18.4526512 magnetization      -0.0005308

 Broyden mixing:
  rms(total) = 0.23006E+00    rms(broyden)= 0.23001E+00
  rms(prec ) = 0.25074E+00
  weight for this iteration     100.00

 eigenvalues of (default mixing * dielectric matrix)
  average eigenvalue GAMMA=   1.8922
  3.8467  1.0503  1.2302  1.4417

 Free energy of the ion-electron system (eV)
  ---------------------------------------------------
  alpha Z        PSCENC =       261.00114946
  Ewald energy   TEWEN  =     14731.09655940
  -Hartree energ DENC   =    -27809.56204451
  -exchange      EXHF   =         0.00000000
  -V(xc)+E(xc)   XCENC  =      1104.22710493
  PAW double counting   =     29612.78030867   -30114.15989284
  entropy T*S    EENTRO =         0.00000000
  eigenvalues    EBANDS =     -3441.43705916
  atomic energy  EATOM  =     15171.73615219
  Solvation  Ediel_sol  =         0.00000000
  ---------------------------------------------------
  free energy    TOTEN  =      -484.31772186 eV

  energy without entropy =     -484.31772186  energy(sigma->0) =     -484.31772186


--------------------------------------------------------------------------------------------------------




--------------------------------------- Iteration      1(  10)  ---------------------------------------


    POTLOK:  cpu time    0.0668: real time    0.0675
    SETDIJ:  cpu time    0.0089: real time    0.0089
     EDDAV:  cpu time    6.4906: real time    6.4936
 BZINTS: Fermi energy: -1.844461;280.000000 electrons
         Band energy:***********;  BLOECHL correction:  0.000000
       DOS:  cpu time    0.0145: real time    0.0145
    CHARGE:  cpu time    0.1358: real time    0.1358
    MIXING:  cpu time    0.0016: real time    0.0016
    --------------------------------------------
      LOOP:  cpu time    6.7181: real time    6.7219

 eigenvalue-minimisations  :  4016
 total energy-change (2. order) : 0.5304247E-01  (-0.1863461E-01)
 number of electron     280.0000034 magnetization      -0.0000000
 augmentation part       18.4687789 magnetization      -0.0001874

 Broyden mixing:
  rms(total) = 0.10469E+00    rms(broyden)= 0.10467E+00
  rms(prec ) = 0.11394E+00
  weight for this iteration     100.00

 eigenvalues of (default mixing * dielectric matrix)
  average eigenvalue GAMMA=   1.8917
  3.9088  2.1966  1.1646  1.1646  1.0242

 Free energy of the ion-electron system (eV)
  ---------------------------------------------------
  alpha Z        PSCENC =       261.00114946
  Ewald energy   TEWEN  =     14731.09655940
  -Hartree energ DENC   =    -27783.88412421
  -exchange      EXHF   =         0.00000000
  -V(xc)+E(xc)   XCENC  =      1103.39559480
  PAW double counting   =     30195.31043628   -30696.35500440
  entropy T*S    EENTRO =         0.00000000
  eigenvalues    EBANDS =     -3466.56544290
  atomic energy  EATOM  =     15171.73615219
  Solvation  Ediel_sol  =         0.00000000
  ---------------------------------------------------
  free energy    TOTEN  =      -484.26467939 eV

  energy without entropy =     -484.26467939  energy(sigma->0) =     -484.26467939


--------------------------------------------------------------------------------------------------------




--------------------------------------- Iteration      1(  11)  ---------------------------------------


    POTLOK:  cpu time    0.0594: real time    0.0675
    SETDIJ:  cpu time    0.0091: real time    0.0091
     EDDAV:  cpu time    6.3223: real time    6.3304
 BZINTS: Fermi energy: -1.884471;280.000000 electrons
         Band energy:***********;  BLOECHL correction:  0.000000
       DOS:  cpu time    0.0149: real time    0.0149
    CHARGE:  cpu time    0.1339: real time    0.1339
    MIXING:  cpu time    0.0015: real time    0.0015
    --------------------------------------------
      LOOP:  cpu time    6.5411: real time    6.5573

 eigenvalue-minimisations  :  3904
 total energy-change (2. order) : 0.1182461E-01  (-0.5484409E-02)
 number of electron     280.0000034 magnetization       0.0000000
 augmentation part       18.4818263 magnetization      -0.0000052

 Broyden mixing:
  rms(total) = 0.37423E-01    rms(broyden)= 0.37406E-01
  rms(prec ) = 0.41630E-01
  weight for this iteration     100.00

 eigenvalues of (default mixing * dielectric matrix)
  average eigenvalue GAMMA=   1.8201
  3.8622  2.5232  1.3081  1.0055  1.1106  1.1106

 Free energy of the ion-electron system (eV)
  ---------------------------------------------------
  alpha Z        PSCENC =       261.00114946
  Ewald energy   TEWEN  =     14731.09655940
  -Hartree energ DENC   =    -27770.81962945
  -exchange      EXHF   =         0.00000000
  -V(xc)+E(xc)   XCENC  =      1102.84938727
  PAW double counting   =     30495.34015175   -30996.15264548
  entropy T*S    EENTRO =         0.00000000
  eigenvalues    EBANDS =     -3479.30397993
  atomic energy  EATOM  =     15171.73615219
  Solvation  Ediel_sol  =         0.00000000
  ---------------------------------------------------
  free energy    TOTEN  =      -484.25285479 eV

  energy without entropy =     -484.25285479  energy(sigma->0) =     -484.25285479


--------------------------------------------------------------------------------------------------------




--------------------------------------- Iteration      1(  12)  ---------------------------------------


    POTLOK:  cpu time    0.0658: real time    0.0733
    SETDIJ:  cpu time    0.0090: real time    0.0090
     EDDAV:  cpu time    6.9444: real time    6.9491
 BZINTS: Fermi energy: -1.899475;280.000000 electrons
         Band energy:***********;  BLOECHL correction:  0.000000
       DOS:  cpu time    0.0150: real time    0.0150
    CHARGE:  cpu time    0.1337: real time    0.1337
    MIXING:  cpu time    0.0017: real time    0.0017
    --------------------------------------------
      LOOP:  cpu time    7.1699: real time    7.1820

 eigenvalue-minimisations  :  4392
 total energy-change (2. order) : 0.1726314E-02  (-0.8008929E-03)
 number of electron     280.0000033 magnetization       0.0000000
 augmentation part       18.4848258 magnetization       0.0000359

 Broyden mixing:
  rms(total) = 0.17776E-01    rms(broyden)= 0.17770E-01
  rms(prec ) = 0.18842E-01
  weight for this iteration     100.00

 eigenvalues of (default mixing * dielectric matrix)
  average eigenvalue GAMMA=   1.7974
  3.8527  2.7455  1.4463  0.9901  0.9901  1.2786  1.2786

 Free energy of the ion-electron system (eV)
  ---------------------------------------------------
  alpha Z        PSCENC =       261.00114946
  Ewald energy   TEWEN  =     14731.09655940
  -Hartree energ DENC   =    -27768.26582114
  -exchange      EXHF   =         0.00000000
  -V(xc)+E(xc)   XCENC  =      1102.70234390
  PAW double counting   =     30523.57291905   -31024.27107528
  entropy T*S    EENTRO =         0.00000000
  eigenvalues    EBANDS =     -3481.82335604
  atomic energy  EATOM  =     15171.73615219
  Solvation  Ediel_sol  =         0.00000000
  ---------------------------------------------------
  free energy    TOTEN  =      -484.25112847 eV

  energy without entropy =     -484.25112847  energy(sigma->0) =     -484.25112847


--------------------------------------------------------------------------------------------------------




--------------------------------------- Iteration      1(  13)  ---------------------------------------


    POTLOK:  cpu time    0.0614: real time    0.0679
    SETDIJ:  cpu time    0.0093: real time    0.0093
     EDDAV:  cpu time    6.2678: real time    6.2760
 BZINTS: Fermi energy: -1.895724;280.000000 electrons
         Band energy:***********;  BLOECHL correction:  0.000000
       DOS:  cpu time    0.0149: real time    0.0149
    CHARGE:  cpu time    0.1345: real time    0.1345
    MIXING:  cpu time    0.0017: real time    0.0017
    --------------------------------------------
      LOOP:  cpu time    6.4895: real time    6.5042

 eigenvalue-minimisations  :  3848
 total energy-change (2. order) :-0.6263403E-05  (-0.1765070E-03)
 number of electron     280.0000033 magnetization       0.0000000
 augmentation part       18.4832636 magnetization       0.0000185

 Broyden mixing:
  rms(total) = 0.89228E-02    rms(broyden)= 0.89197E-02
  rms(prec ) = 0.94444E-02
  weight for this iteration     100.00

 eigenvalues of (default mixing * dielectric matrix)
  average eigenvalue GAMMA=   1.7506
  3.8181  2.8915  1.4085  1.4085  1.4541  0.9862  0.9862  1.0515

 Free energy of the ion-electron system (eV)
  ---------------------------------------------------
  alpha Z        PSCENC =       261.00114946
  Ewald energy   TEWEN  =     14731.09655940
  -Hartree energ DENC   =    -27768.56694859
  -exchange      EXHF   =         0.00000000
  -V(xc)+E(xc)   XCENC  =      1102.69409045
  PAW double counting   =     30548.79924113   -31049.48017137
  entropy T*S    EENTRO =         0.00000000
  eigenvalues    EBANDS =     -3481.53120740
  atomic energy  EATOM  =     15171.73615219
  Solvation  Ediel_sol  =         0.00000000
  ---------------------------------------------------
  free energy    TOTEN  =      -484.25113474 eV

  energy without entropy =     -484.25113474  energy(sigma->0) =     -484.25113474


--------------------------------------------------------------------------------------------------------




--------------------------------------- Iteration      1(  14)  ---------------------------------------


    POTLOK:  cpu time    0.0599: real time    0.0674
    SETDIJ:  cpu time    0.0090: real time    0.0090
     EDDAV:  cpu time    4.2528: real time    4.2565
 BZINTS: Fermi energy: -1.895724;280.000000 electrons
         Band energy:***********;  BLOECHL correction:  0.000000
       DOS:  cpu time    0.0146: real time    0.0146
    --------------------------------------------
      LOOP:  cpu time    4.3363: real time    4.3476

 eigenvalue-minimisations  :  2224
 total energy-change (2. order) : 0.1397765E-04  (-0.1402025E-04)
 number of electron     280.0000033 magnetization       0.0000000
 augmentation part       18.4832636 magnetization       0.0000185

 Free energy of the ion-electron system (eV)
  ---------------------------------------------------
  alpha Z        PSCENC =       261.00114946
  Ewald energy   TEWEN  =     14731.09655940
  -Hartree energ DENC   =    -27768.90737679
  -exchange      EXHF   =         0.00000000
  -V(xc)+E(xc)   XCENC  =      1102.69751825
  PAW double counting   =     30550.72745675   -31051.41373718
  entropy T*S    EENTRO =         0.00000000
  eigenvalues    EBANDS =     -3481.18884284
  atomic energy  EATOM  =     15171.73615219
  Solvation  Ediel_sol  =         0.00000000
  ---------------------------------------------------
  free energy    TOTEN  =      -484.25112076 eV

  energy without entropy =     -484.25112076  energy(sigma->0) =     -484.25112076


--------------------------------------------------------------------------------------------------------




 average (electrostatic) potential at core
  the test charge radii are     0.6991  0.7089  0.9911  0.6991  0.7215
  (the norm of the test charge is              1.0000)
       1 -59.9308       2 -60.0105       3 -59.5331       4 -58.5844       5 -59.9290
       6 -59.7661       7 -59.6684       8 -58.0493       9 -59.4951      10 -60.1953
      11 -59.0623      12 -59.7878      13 -59.0482      14 -60.2746      15 -59.9698
      16 -59.8424      17 -59.8522      18 -59.1074      19 -60.0105      20 -59.5692
      21 -59.6021      22 -59.6909      23 -59.7241      24 -60.1700      25 -73.2471
      26 -71.4927      27 -70.1068      28 -71.5301      29 -71.4288      30 -70.5355
      31 -71.5193      32 -73.8651      33 -72.6643      34 -71.9135      35 -71.9282
      36 -70.8075      37 -70.8725      38 -71.9620      39 -71.3250      40 -73.4313
      41 -73.3525      42 -70.7466      43 -71.4449      44 -71.5008      45 -71.7050
      46 -71.5432      47 -70.8377      48 -72.5058      49 -73.0659      50 -71.7556
      51 -71.2071      52 -71.3210      53 -71.2900      54 -71.3345      55 -71.8457
      56 -74.3771      57 -80.7823      58 -58.1284      59 -79.9524



 E-fermi :  -1.8957     XC(G=0):  -4.9604     alpha+bet : -3.9201


 spin component 1

 k-point     1 :       0.0000    0.0000    0.0000
  band No.  band energies     occupation 
      1     -26.1885      1.00000
      2     -26.1765      1.00000
      3     -26.0434      1.00000
      4     -26.0352      1.00000
      5     -25.9644      1.00000
      6     -25.7282      1.00000
      7     -25.6725      1.00000
      8     -25.4523      1.00000
      9     -25.3009      1.00000
     10     -24.6653      1.00000
     11     -24.5022      1.00000
     12     -24.2693      1.00000
     13     -23.9986      1.00000
     14     -23.2609      1.00000
     15     -23.1786      1.00000
     16     -23.0842      1.00000
     17     -23.0311      1.00000
     18     -22.7511      1.00000
     19     -22.3983      1.00000
     20     -21.9863      1.00000
     21     -21.8302      1.00000
     22     -21.6485      1.00000
     23     -21.2502      1.00000
     24     -21.1266      1.00000
     25     -21.0879      1.00000
     26     -20.9131      1.00000
     27     -20.7644      1.00000
     28     -20.6549      1.00000
     29     -20.5041      1.00000
     30     -20.3966      1.00000
     31     -20.0797      1.00000
     32     -19.8845      1.00000
     33     -19.8083      1.00000
     34     -19.7503      1.00000
     35     -19.6162      1.00000
     36     -19.5026      1.00000
     37     -19.2967      1.00000
     38     -18.7531      1.00000
     39     -16.4354      1.00000
     40     -16.3200      1.00000
     41     -16.2109      1.00000
     42     -15.9986      1.00000
     43     -15.9090      1.00000
     44     -15.7310      1.00000
     45     -15.5054      1.00000
     46     -15.2765      1.00000
     47     -14.5418      1.00000
     48     -14.4373      1.00000
     49     -14.2688      1.00000
     50     -14.0119      1.00000
     51     -13.6346      1.00000
     52     -13.4725      1.00000
     53     -13.2566      1.00000
     54     -13.1687      1.00000
     55     -13.0317      1.00000
     56     -12.9389      1.00000
     57     -12.8402      1.00000
     58     -12.7754      1.00000
     59     -12.7443      1.00000
     60     -12.5487      1.00000
     61     -12.4664      1.00000
     62     -12.0077      1.00000
     63     -11.8883      1.00000
     64     -11.7772      1.00000
     65     -11.6452      1.00000
     66     -11.5476      1.00000
     67     -11.3577      1.00000
     68     -11.2415      1.00000
     69     -11.1532      1.00000
     70     -10.9864      1.00000
     71     -10.8232      1.00000
     72     -10.7332      1.00000
     73     -10.5238      1.00000
     74     -10.4877      1.00000
     75     -10.3971      1.00000
     76     -10.2899      1.00000
     77     -10.1161      1.00000
     78      -9.9503      1.00000
     79      -9.7166      1.00000
     80      -9.4204      1.00000
     81      -9.3481      1.00000
     82      -9.2608      1.00000
     83      -8.9597      1.00000
     84      -8.8485      1.00000
     85      -8.5927      1.00000
     86      -8.4860      1.00000
     87      -8.2553      1.00000
     88      -8.2188      1.00000
     89      -8.1646      1.00000
     90      -8.1545      1.00000
     91      -8.0338      1.00000
     92      -7.8625      1.00000
     93      -7.6916      1.00000
     94      -7.3748      1.00000
     95      -7.2436      1.00000
     96      -7.0783      1.00000
     97      -7.0214      1.00000
     98      -6.8634      1.00000
     99      -6.7715      1.00000
    100      -6.6349      1.00000
    101      -6.4757      1.00000
    102      -6.4479      1.00000
    103      -6.3004      1.00000
    104      -6.2359      1.00000
    105      -6.1785      1.00000
    106      -6.0950      1.00000
    107      -6.0191      1.00000
    108      -5.9563      1.00000
    109      -5.9433      1.00000
    110      -5.8647      1.00000
    111      -5.7579      1.00000
    112      -5.5791      1.00000
    113      -5.5265      1.00000
    114      -5.4726      1.00000
    115      -5.3902      1.00000
    116      -5.2791      1.00000
    117      -5.1979      1.00000
    118      -5.1179      1.00000
    119      -5.0494      1.00000
    120      -4.8068      1.00000
    121      -4.7674      1.00000
    122      -4.6810      1.00000
    123      -4.5695      1.00000
    124      -4.5010      1.00000
    125      -4.4330      1.00000
    126      -4.4046      1.00000
    127      -4.3107      1.00000
    128      -4.1817      1.00000
    129      -4.0809      1.00000
    130      -4.0688      1.00000
    131      -3.9921      1.00000
    132      -3.8347      1.00000
    133      -3.7141      1.00000
    134      -3.6196      1.00000
    135      -3.4714      1.00000
    136      -3.3402      1.00000
    137      -3.2247      1.00000
    138      -3.1209      1.00000
    139      -2.6605      1.00000
    140      -1.9182      1.00000
    141      -1.2823      0.00000
    142      -0.8944      0.00000
    143      -0.8310      0.00000
    144      -0.4655      0.00000
    145      -0.3626      0.00000
    146      -0.0833      0.00000
    147      -0.0250      0.00000
    148       0.0146      0.00000
    149       0.3063      0.00000
    150       0.4924      0.00000
    151       0.6032      0.00000
    152       0.7319      0.00000
    153       0.9795      0.00000
    154       1.4041      0.00000
    155       1.4343      0.00000
    156       1.4610      0.00000
    157       1.6593      0.00000
    158       1.7883      0.00000
    159       1.9515      0.00000
    160       2.0165      0.00000
    161       2.1250      0.00000
    162       2.2703      0.00000
    163       2.5914      0.00000
    164       2.8462      0.00000
    165       2.9194      0.00000
    166       3.0613      0.00000
    167       3.3876      0.00000
    168       3.4787      0.00000
    169       3.6365      0.00000
    170       3.8377      0.00000
    171       3.9512      0.00000
    172       4.0107      0.00000

 k-point     2 :       0.3333    0.0000    0.0000
  band No.  band energies     occupation 
      1     -26.1885      1.00000
      2     -26.1766      1.00000
      3     -26.0434      1.00000
      4     -26.0352      1.00000
      5     -25.9645      1.00000
      6     -25.6925      1.00000
      7     -25.6726      1.00000
      8     -25.5216      1.00000
      9     -25.2944      1.00000
     10     -24.6053      1.00000
     11     -24.4679      1.00000
     12     -24.3319      1.00000
     13     -23.8960      1.00000
     14     -23.5612      1.00000
     15     -23.1909      1.00000
     16     -23.0531      1.00000
     17     -22.8968      1.00000
     18     -22.7166      1.00000
     19     -22.3423      1.00000
     20     -22.0502      1.00000
     21     -21.7492      1.00000
     22     -21.6242      1.00000
     23     -21.2774      1.00000
     24     -21.1799      1.00000
     25     -21.0732      1.00000
     26     -20.9272      1.00000
     27     -20.7975      1.00000
     28     -20.6296      1.00000
     29     -20.5330      1.00000
     30     -20.3817      1.00000
     31     -20.1791      1.00000
     32     -19.9164      1.00000
     33     -19.7438      1.00000
     34     -19.6754      1.00000
     35     -19.6124      1.00000
     36     -19.5111      1.00000
     37     -19.2844      1.00000
     38     -18.7503      1.00000
     39     -16.4094      1.00000
     40     -16.3141      1.00000
     41     -16.2162      1.00000
     42     -16.0234      1.00000
     43     -15.8521      1.00000
     44     -15.6934      1.00000
     45     -15.6026      1.00000
     46     -15.3221      1.00000
     47     -14.6944      1.00000
     48     -14.3479      1.00000
     49     -14.2030      1.00000
     50     -14.1048      1.00000
     51     -13.4916      1.00000
     52     -13.3661      1.00000
     53     -13.2762      1.00000
     54     -13.1257      1.00000
     55     -13.0310      1.00000
     56     -12.9935      1.00000
     57     -12.8616      1.00000
     58     -12.7462      1.00000
     59     -12.6895      1.00000
     60     -12.5840      1.00000
     61     -12.4138      1.00000
     62     -12.1286      1.00000
     63     -11.9787      1.00000
     64     -11.7522      1.00000
     65     -11.6201      1.00000
     66     -11.5289      1.00000
     67     -11.4315      1.00000
     68     -11.2966      1.00000
     69     -11.0811      1.00000
     70     -10.9750      1.00000
     71     -10.8780      1.00000
     72     -10.7977      1.00000
     73     -10.6095      1.00000
     74     -10.4995      1.00000
     75     -10.3625      1.00000
     76     -10.1472      1.00000
     77     -10.0594      1.00000
     78      -9.9097      1.00000
     79      -9.6330      1.00000
     80      -9.5341      1.00000
     81      -9.3457      1.00000
     82      -9.2736      1.00000
     83      -8.9831      1.00000
     84      -8.8122      1.00000
     85      -8.6270      1.00000
     86      -8.4714      1.00000
     87      -8.3213      1.00000
     88      -8.1701      1.00000
     89      -8.1593      1.00000
     90      -8.1197      1.00000
     91      -8.0086      1.00000
     92      -7.8226      1.00000
     93      -7.6898      1.00000
     94      -7.4087      1.00000
     95      -7.3350      1.00000
     96      -7.0876      1.00000
     97      -6.9386      1.00000
     98      -6.8916      1.00000
     99      -6.6930      1.00000
    100      -6.6683      1.00000
    101      -6.4894      1.00000
    102      -6.4417      1.00000
    103      -6.3079      1.00000
    104      -6.2475      1.00000
    105      -6.1901      1.00000
[...]
   -.154E+02 0.130E+02 0.161E+03   0.154E+02 -.153E+02 -.163E+03   -.529E-01 0.231E+01 0.227E+01   0.554E-03 -.573E-03 -.238E-02
   -.612E+02 0.133E+01 0.119E+03   0.637E+02 -.760E+00 -.120E+03   -.251E+01 -.561E+00 0.151E+01   0.165E-02 0.271E-02 -.311E-02
   0.111E+03 -.197E+02 -.822E+02   -.111E+03 0.189E+02 0.797E+02   0.462E+00 0.751E+00 0.248E+01   -.434E-02 -.250E-02 -.677E-04
   0.262E+02 -.335E+02 -.154E+02   -.213E+02 0.266E+02 0.127E+02   -.485E+01 0.690E+01 0.275E+01   0.190E-02 0.633E-02 -.179E-02
   -.276E+02 -.734E+02 -.119E+03   0.247E+02 0.746E+02 0.119E+03   0.272E+01 -.115E+01 0.563E+00   0.282E-02 0.161E-03 -.132E-02
   -.158E+02 -.460E+02 0.741E+02   0.138E+02 0.481E+02 -.747E+02   0.205E+01 -.218E+01 0.508E+00   0.300E-02 0.387E-02 -.423E-02
   0.741E+02 -.679E+02 -.344E+03   -.750E+02 0.665E+02 0.345E+03   0.958E+00 0.138E+01 -.169E+01   -.643E-03 0.374E-03 0.314E-02
   0.101E+02 0.442E+02 -.127E+02   -.834E+01 -.457E+02 0.144E+02   -.172E+01 0.153E+01 -.170E+01   -.485E-02 -.556E-02 -.670E-03
   -.441E+02 0.924E+01 0.797E+02   0.447E+02 -.143E+02 -.775E+02   -.747E+00 0.493E+01 -.209E+01   0.541E-02 0.758E-03 -.268E-02
   0.117E+03 0.657E+02 0.333E+03   -.117E+03 -.639E+02 -.335E+03   -.676E+00 -.173E+01 0.231E+01   -.567E-03 -.491E-02 -.395E-02
   0.247E+02 0.645E+02 -.837E+02   -.272E+02 -.626E+02 0.842E+02   0.235E+01 -.191E+01 -.530E+00   0.185E-02 -.280E-02 0.626E-02
   0.656E+02 0.392E+02 0.110E+03   -.686E+02 -.394E+02 -.111E+03   0.305E+01 0.249E+00 0.109E+01   -.635E-02 -.975E-03 -.171E-02
   0.694E+01 -.126E+02 0.377E+03   -.573E+01 0.109E+02 -.380E+03   -.120E+01 0.167E+01 0.249E+01   0.400E-02 -.158E-02 -.258E-02
   0.736E+01 -.151E+03 -.236E+03   -.565E+01 0.153E+03 0.235E+03   -.171E+01 -.188E+01 0.590E+00   0.334E-02 0.759E-03 -.168E-02
   -.438E+02 0.371E+02 -.178E+03   0.437E+02 -.397E+02 0.177E+03   0.129E+00 0.252E+01 0.118E+01   0.330E-02 0.749E-02 -.820E-03
   -.315E+02 -.509E+01 -.138E+03   0.340E+02 0.685E+01 0.137E+03   -.245E+01 -.167E+01 0.128E+01   -.383E-02 -.242E-02 -.129E-02
   -.901E+02 -.274E+02 -.400E+03   0.862E+02 0.295E+02 0.401E+03   0.379E+01 -.208E+01 -.327E+00   0.107E-04 -.872E-03 0.443E-02
   0.815E+02 -.153E+03 0.194E+03   -.845E+02 0.154E+03 -.192E+03   0.306E+01 -.105E+01 -.173E+01   -.211E-02 0.372E-02 0.114E-02
   -.249E+02 -.730E+02 -.265E+03   0.251E+02 0.724E+02 0.268E+03   -.265E+00 0.478E+00 -.340E+01   -.388E-02 0.239E-02 0.237E-02
   -.251E+02 0.356E+02 -.203E+03   0.266E+02 -.357E+02 0.206E+03   -.154E+01 0.581E-01 -.298E+01   0.422E-02 0.149E-02 0.211E-02
   -.525E+02 0.230E+02 0.414E+03   0.541E+02 -.231E+02 -.430E+03   -.155E+01 0.897E-01 0.160E+02   -.271E-02 -.866E-03 -.576E-02
   -.184E+03 0.733E+02 0.387E+03   0.213E+03 -.643E+02 -.407E+03   -.288E+02 -.894E+01 0.206E+02   0.911E-02 0.394E-02 -.107E-01
   0.101E+02 0.580E+01 0.374E+03   -.187E+02 -.162E+02 -.406E+03   0.868E+01 0.104E+02 0.325E+02   -.439E-02 -.761E-02 -.842E-02
   0.527E+02 0.225E+03 0.237E+03   -.489E+02 -.256E+03 -.260E+03   -.380E+01 0.307E+02 0.226E+02   0.175E-02 -.201E-01 -.204E-02
   -.118E+03 0.310E+02 0.513E+03   0.125E+03 -.512E+02 -.545E+03   -.699E+01 0.202E+02 0.326E+02   0.531E-02 -.324E-02 -.213E-01
   0.268E+02 0.775E+02 0.411E+03   -.372E+02 -.809E+02 -.446E+03   0.104E+02 0.331E+01 0.349E+02   0.674E-02 -.745E-03 -.144E-01
   -.157E+03 -.518E+02 0.241E+03   0.184E+03 0.482E+02 -.264E+03   -.271E+02 0.363E+01 0.231E+02   0.123E-01 0.473E-02 -.113E-01
   -.620E+01 -.432E+02 -.492E+02   0.617E+01 0.459E+02 0.504E+02   0.493E-01 -.277E+01 -.132E+01   -.542E-02 0.193E-02 0.152E-02
   0.716E+02 -.559E+02 -.150E+03   -.660E+02 0.559E+02 0.158E+03   -.562E+01 -.101E+00 -.729E+01   0.235E-02 0.126E-02 -.189E-02
   0.108E+03 0.123E+03 -.323E+03   -.102E+03 -.129E+03 0.350E+03   -.618E+01 0.614E+01 -.266E+02   -.972E-02 -.791E-02 0.598E-02
   0.788E+02 -.142E+03 0.199E+03   -.109E+03 0.156E+03 -.197E+03   0.300E+02 -.141E+02 -.237E+01   -.137E-01 0.595E-02 -.950E-02
   0.749E+01 0.115E+03 -.616E+03   -.907E+01 -.141E+03 0.639E+03   0.156E+01 0.263E+02 -.236E+02   0.574E-02 -.252E-02 0.160E-01
   0.172E+03 -.386E+02 -.525E+03   -.191E+03 0.279E+02 0.543E+03   0.185E+02 0.107E+02 -.179E+02   -.510E-02 0.667E-02 0.692E-02
   0.376E+02 -.784E+02 0.215E+02   -.621E+02 0.102E+03 -.232E+02   0.245E+02 -.240E+02 0.171E+01   -.151E-02 0.221E-01 -.180E-02
   -.765E+02 0.135E+03 -.111E+03   0.986E+02 -.148E+03 0.136E+03   -.222E+02 0.127E+02 -.252E+02   0.278E-02 -.195E-01 0.291E-02
   -.154E+02 -.141E+03 0.298E+03   0.179E+02 0.149E+03 -.303E+03   -.245E+01 -.820E+01 0.533E+01   0.582E-02 0.250E-02 -.513E-04
   -.342E+02 0.921E+02 0.763E+02   0.442E+02 -.917E+02 -.708E+02   -.100E+02 -.399E+00 -.550E+01   0.124E-01 -.119E-02 0.475E-02
   -.981E+02 -.207E+03 -.264E+03   0.113E+03 0.236E+03 0.274E+03   -.152E+02 -.296E+02 -.990E+01   0.787E-02 0.114E-01 0.244E-04
   0.131E+03 0.376E+02 0.189E+03   -.163E+03 -.425E+02 -.205E+03   0.316E+02 0.502E+01 0.157E+02   -.183E-01 -.554E-02 -.789E-02
   -.277E+02 0.384E+02 0.584E+03   0.382E+02 -.471E+02 -.618E+03   -.105E+02 0.865E+01 0.342E+02   0.359E-02 -.118E-03 -.124E-01
   0.985E+02 0.202E+03 0.588E+03   -.102E+03 -.228E+03 -.615E+03   0.363E+01 0.255E+02 0.265E+02   -.578E-02 -.132E-01 -.123E-01
   0.189E+03 0.114E+03 0.331E+03   -.219E+03 -.107E+03 -.346E+03   0.302E+02 -.771E+01 0.148E+02   -.174E-01 0.132E-02 -.801E-02
   -.154E+03 -.265E+03 -.490E+03   0.178E+03 0.286E+03 0.503E+03   -.240E+02 -.215E+02 -.130E+02   0.112E-01 0.576E-02 0.829E-02
   0.113E+03 -.135E+03 -.215E+03   -.120E+03 0.139E+03 0.217E+03   0.765E+01 -.409E+01 -.124E+01   0.979E-03 0.229E-02 -.810E-03
   -.127E+03 0.657E+02 -.302E+03   0.131E+03 -.685E+02 0.306E+03   -.460E+01 0.285E+01 -.399E+01   0.372E-02 -.190E-02 -.980E-03
   -.175E+03 0.588E+02 -.422E+03   0.201E+03 -.525E+02 0.449E+03   -.253E+02 -.631E+01 -.268E+02   0.158E-01 0.837E-02 0.134E-01
   0.240E+03 -.207E+03 0.407E+03   -.272E+03 0.220E+03 -.414E+03   0.313E+02 -.128E+02 0.650E+01   -.156E-01 0.906E-02 -.556E-02
   -.530E+02 -.459E+02 -.522E+03   0.615E+02 0.328E+02 0.556E+03   -.853E+01 0.131E+02 -.343E+02   0.161E-02 0.262E-02 0.188E-01
   -.752E+02 -.153E+02 -.520E+03   0.760E+02 0.481E+01 0.556E+03   -.712E+00 0.106E+02 -.366E+02   -.626E-02 -.259E-02 0.161E-01
   0.209E+03 -.187E+03 0.894E+02   -.231E+03 0.212E+03 -.875E+02   0.222E+02 -.244E+02 -.196E+01   -.149E-01 0.785E-02 0.158E-02
   -.105E+03 0.190E+02 -.405E+03   0.133E+03 -.146E+02 0.430E+03   -.283E+02 -.443E+01 -.245E+02   0.179E-01 -.522E-02 0.119E-01
   -.193E+02 -.573E+01 0.299E+01   0.199E+02 0.605E+01 -.303E+01   -.575E+00 -.326E+00 0.275E-01   0.325E-02 0.280E-02 -.241E-02
   -.111E+03 0.533E+03 -.918E+03   0.127E+03 -.549E+03 0.921E+03   -.163E+02 0.161E+02 -.318E+01   0.464E-01 -.274E-01 -.794E-02
   0.309E+02 0.270E+02 0.216E+03   -.358E+02 -.293E+02 -.244E+03   0.491E+01 0.226E+01 0.276E+02   0.173E-03 -.662E-03 -.129E-02
   -.667E+02 -.546E+02 0.133E+02   0.769E+02 0.592E+02 0.447E+02   -.102E+02 -.463E+01 -.580E+02   0.327E-02 0.180E-02 0.162E-01
 -----------------------------------------------------------------------------------------------
   0.320E+02 -.435E+02 0.679E+01   0.114E-12 0.355E-12 -.853E-12   -.320E+02 0.435E+02 -.676E+01   0.646E-01 -.106E-01 -.364E-01


 POSITION                                       TOTAL-FORCE (eV/Angst)
 -----------------------------------------------------------------------------------
      0.04910      2.02425      4.28734         0.015960     -0.009646      0.057694
      0.93643      4.27267      4.33605        -0.013285      0.012933      0.001045
     -1.40098      3.80663      4.13754         0.008915      0.010179      0.007168
     -0.14252      9.51009      6.17294        -0.013118     -0.014579      0.012182
      2.99443      3.94436      4.94724        -0.018889     -0.020254     -0.010798
      1.36193      0.64429      5.41333         0.028848      0.027761      0.034996
     -3.51585      6.73809      6.39500        -0.036933     -0.053509      0.015829
     -1.36499      7.72916      6.90134        -0.022537     -0.038964     -0.003749
     -3.46478      9.04459      6.79232         0.033408      0.002413     -0.017508
      1.74107      5.75249      5.88733         0.004903      0.020271     -0.042285
      0.07264      8.60801      8.46892        -0.035074      0.038288     -0.000520
     -2.66655      4.85023      5.60460         0.004733     -0.026125      0.006946
      6.51114      1.73542      5.87068        -0.033626     -0.032565     -0.016495
      6.27542      3.69089      4.12740        -0.051014      0.003477     -0.036277
      4.93321      3.47402      5.86441        -0.014627     -0.041967      0.017992
     10.60711      0.40651      5.64003        -0.020148      0.018370      0.026889
      8.20792      3.98753      3.48154        -0.009904      0.018410     -0.015734
      7.08913      0.81403      7.80779         0.028667     -0.004145     -0.041474
      2.79873      6.98960      7.49311         0.001795      0.046229     -0.010440
      4.05027      9.08740      7.43891        -0.001168      0.043362      0.019722
      2.13138      8.96609      8.80496        -0.008602      0.007737      0.062644
      6.88537      5.58972      4.82009         0.000298     -0.011431     -0.032959
     -5.42215      9.70018      7.50024        -0.021209     -0.014545     -0.004991
      3.85334      5.08457      6.91845         0.024371     -0.013241      0.025804
     -0.07690      3.38608      3.92013         0.005504      0.031066      0.012465
      1.25656      1.50359      4.41445         0.068819      0.030824     -0.008012
     -0.83479      8.47004      5.84853         0.008491     -0.041427      0.018709
      3.97552      3.08228      5.03227        -0.013441      0.014827      0.020843
      2.12153      3.82394      3.95993         0.002831     -0.006625      0.012176
      5.98355      0.67661      5.29914        -0.018103     -0.043611      0.017979
     -3.38198      9.73547      5.66964         0.016066      0.029759      0.022875
      0.23859      0.42635      6.22930         0.016591     -0.009963     -0.040258
     -2.83653      7.80466      6.82354        -0.014777     -0.019953     -0.069729
     -2.83741      5.57873      6.70807        -0.008547     -0.026074      0.035799
      0.70642      5.32883      5.14996        -0.018101     -0.007186      0.026287
      1.08854      8.27998      9.27570        -0.017892      0.002339      0.000377
     -0.99852      7.86854      8.29915         0.002946      0.000873     -0.011238
      1.74086      6.84452      6.67620        -0.027929     -0.004042      0.032876
     -1.63955      4.04405      5.44233        -0.009999     -0.014243      0.030609
      8.11657      4.91914      4.54924         0.038150      0.027923     -0.022570
      6.15534      3.00719      5.27800        -0.003843      0.002635      0.008625
      7.09804      1.92890      7.04896         0.038051     -0.049647     -0.039719
      3.79002      9.52339      6.19791         0.008489      0.086257      0.029905
     -2.16924      3.86661      3.08187        -0.012064      0.006582     -0.026348
      7.13241      3.32419      3.15318        -0.010527     -0.031708     -0.023035
     10.51482      1.25007      4.61564        -0.026161     -0.009267     -0.009328
      8.02298      0.50419      8.68655         0.000388      0.006365     -0.000996
      0.26682      9.69107      7.53998         0.032351      0.020258     -0.024079
      3.02594      8.28863      8.06787        -0.032510      0.030952     -0.000999
      3.78203      6.13189      7.74086         0.000990      0.024931      0.016005
      5.82900      5.01182      4.25721         0.004536      0.000133      0.045996
     -4.22962      9.24863      7.87358        -0.021272     -0.039697     -0.071067
      5.12017      9.21220      8.20419         0.014559      0.038441      0.015392
      6.99245      6.63115      5.65235         0.001344      0.005655      0.009979
      4.92138      4.28173      6.90742         0.039262     -0.016144     -0.027004
      2.87734      4.93901      5.91883         0.021485     -0.001937     -0.018500
     -0.85276      5.86058      7.57869         0.053279     -0.011438     -0.024076
     -0.19368      4.98903     12.18281        -0.002499     -0.006970     -0.010063
      0.00615      5.07978      0.70498         0.011768      0.011655      0.014443
 -----------------------------------------------------------------------------------
    total drift:                                0.003520      0.006336     -0.004528


--------------------------------------------------------------------------------------------------------



  FREE ENERGIE OF THE ION-ELECTRON SYSTEM (eV)
  ---------------------------------------------------
  free  energy   TOTEN  =      -488.92724276 eV

  energy  without entropy=     -488.92724276  energy(sigma->0) =     -488.92724276



--------------------------------------------------------------------------------------------------------


    POTLOK:  cpu time    0.0761: real time    0.0761


--------------------------------------------------------------------------------------------------------


     LOOP+:  cpu time   99.3180: real time   99.4877
    4ORBIT:  cpu time    0.0000: real time    0.0000



 total charge     

# of ion       s       p       d       tot
------------------------------------------
    1        0.857   1.719   0.000   2.576
    2        0.858   1.726   0.000   2.583
    3        0.867   1.756   0.000   2.623
    4        0.866   1.729   0.000   2.595
    5        0.876   1.769   0.000   2.646
    6        0.867   1.752   0.000   2.620
    7        0.860   1.740   0.000   2.600
    8        0.830   1.671   0.000   2.502
    9        0.866   1.757   0.000   2.623
   10        0.855   1.728   0.000   2.583
   11        0.859   1.726   0.000   2.585
   12        0.875   1.775   0.000   2.651
   13        0.857   1.738   0.000   2.594
   14        0.870   1.695   0.000   2.565
   15        0.872   1.735   0.000   2.607
   16        0.859   1.726   0.000   2.585
   17        0.869   1.739   0.000   2.608
   18        0.859   1.727   0.000   2.586
   19        0.851   1.709   0.000   2.560
   20        0.857   1.720   0.000   2.577
   21        0.872   1.733   0.000   2.605
   22        0.856   1.717   0.000   2.573
   23        0.869   1.742   0.000   2.611
   24        0.863   1.730   0.000   2.593
   25        1.224   2.742   0.000   3.965
   26        1.274   2.670   0.000   3.943
   27        1.271   2.647   0.000   3.918
   28        1.294   2.664   0.000   3.958
   29        1.290   2.654   0.000   3.943
   30        1.272   2.641   0.000   3.914
   31        1.279   2.652   0.000   3.931
   32        1.229   2.761   0.000   3.990
   33        1.229   2.778   0.000   4.007
   34        1.255   2.669   0.000   3.924
   35        1.258   2.638   0.000   3.896
   36        1.266   2.655   0.000   3.921
   37        1.256   2.634   0.000   3.890
   38        1.265   2.631   0.000   3.896
   39        1.276   2.668   0.000   3.944
   40        1.230   2.770   0.000   4.000
   41        1.235   2.741   0.000   3.977
   42        1.266   2.646   0.000   3.913
   43        1.267   2.629   0.000   3.896
   44        1.280   2.644   0.000   3.923
   45        1.276   2.638   0.000   3.914
   46        1.262   2.646   0.000   3.908
   47        1.264   2.644   0.000   3.908
   48        1.217   2.729   0.000   3.947
   49        1.223   2.765   0.000   3.988
   50        1.281   2.636   0.000   3.917
   51        1.257   2.627   0.000   3.884
   52        1.283   2.628   0.000   3.912
   53        1.284   2.639   0.000   3.923
   54        1.251   2.658   0.000   3.910
   55        1.278   2.639   0.000   3.917
   56        1.231   2.747   0.000   3.978
   57        1.322   0.804  10.055  12.181
   58        1.040   1.433   0.000   2.473
   59        1.640   3.542   0.000   5.182
--------------------------------------------------
tot         65.018 132.868  10.055 207.942



 magnetization (x)

# of ion       s       p       d       tot
------------------------------------------
    1        0.000   0.000   0.000   0.000
    2        0.000   0.000   0.000   0.000
    3        0.000   0.000   0.000   0.000
    4       -0.000  -0.000   0.000  -0.000
    5        0.000   0.000   0.000   0.000
    6        0.000   0.000   0.000   0.000
    7        0.000   0.000   0.000   0.000
    8        0.000   0.000   0.000   0.000
    9        0.000   0.000   0.000   0.000
   10       -0.000   0.000   0.000  -0.000
   11        0.000   0.000   0.000   0.000
   12        0.000   0.000   0.000   0.000
   13        0.000   0.000   0.000   0.000
   14        0.000   0.000   0.000   0.000
   15        0.000   0.000   0.000   0.000
   16        0.000   0.000   0.000   0.000
   17        0.000   0.000   0.000   0.000
   18        0.000   0.000   0.000   0.000
   19        0.000   0.000   0.000   0.000
   20        0.000   0.000   0.000   0.000
   21        0.000   0.000   0.000   0.000
   22        0.000   0.000   0.000   0.000
   23        0.000   0.000   0.000   0.000
   24       -0.000  -0.000   0.000  -0.000
   25        0.000   0.000   0.000   0.000
   26        0.000  -0.000   0.000  -0.000
   27       -0.000   0.000   0.000   0.000
   28       -0.000  -0.000   0.000  -0.000
   29        0.000  -0.000   0.000  -0.000
   30        0.000   0.000   0.000   0.000
   31       -0.000  -0.000   0.000  -0.000
   32        0.000  -0.000   0.000  -0.000
   33        0.000  -0.000   0.000  -0.000
   34        0.000  -0.000   0.000   0.000
   35       -0.000  -0.000   0.000  -0.000
   36        0.000  -0.000   0.000  -0.000
   37       -0.000  -0.000   0.000  -0.000
   38       -0.000  -0.000   0.000  -0.000
   39       -0.000  -0.000   0.000  -0.000
   40        0.000  -0.000   0.000   0.000
   41       -0.000  -0.000   0.000  -0.000
   42       -0.000  -0.000   0.000  -0.000
   43       -0.000  -0.000   0.000  -0.000
   44        0.000  -0.000   0.000  -0.000
   45        0.000  -0.000   0.000  -0.000
   46        0.000  -0.000   0.000  -0.000
   47       -0.000  -0.000   0.000  -0.000
   48        0.000  -0.000   0.000  -0.000
   49       -0.000  -0.000   0.000  -0.000
   50       -0.000  -0.000   0.000  -0.000
   51       -0.000  -0.000   0.000  -0.000
   52        0.000  -0.000   0.000  -0.000
   53        0.000  -0.000   0.000  -0.000
   54       -0.000  -0.000   0.000  -0.000
   55        0.000  -0.000   0.000  -0.000
   56       -0.000   0.000   0.000   0.000
   57       -0.000  -0.000  -0.000  -0.000
   58       -0.000  -0.000   0.000  -0.000
   59       -0.000   0.000   0.000   0.000
--------------------------------------------------
tot          0.000  -0.000  -0.000  -0.000

 BZINTS: Fermi energy: -1.895724;280.000000 electrons
         Band energy:***********;  BLOECHL correction:  0.000000

 total amount of memory used by VASP MPI-rank0    68289. kBytes
=======================================================================

   base      :      30000. kBytes
   nonl-proj :      11323. kBytes
   fftplans  :       2315. kBytes
   grid      :       6994. kBytes
   one-center:        155. kBytes
   wavefun   :      17502. kBytes

  
  
 General timing and accounting informations for this job:
 ========================================================
  
                  Total CPU time used (sec):      109.494
                            User time (sec):      108.691
                          System time (sec):        0.803
                         Elapsed time (sec):      110.071
  
                   Maximum memory used (kb):      168008.
                   Average memory used (kb):           0.
  
                          Minor page faults:        36940
                          Major page faults:            0
                 Voluntary context switches:          901
