 vasp.5.4.4.18Apr17-6-g9f103f2a35 (build Jan 14 2022 15:04:31) complex          
  
 executed on             LinuxIFC date 2023.01.27  23:15:25
 running on   96 total cores
 distrk:  each k-point on   96 cores,    1 groups
 distr:  one band on NCORES_PER_BAND=  24 cores,    4 groups


--------------------------------------------------------------------------------------------------------


 INCAR:
 POTCAR:    PAW_PBE C 08Apr2002                   
 POTCAR:    PAW_PBE N 08Apr2002                   
 POTCAR:    PAW_PBE C 08Apr2002                   
 POTCAR:    PAW_PBE Cr_pv 02Aug2007               
 POTCAR:    PAW_PBE C 08Apr2002                   
 POTCAR:    PAW_PBE O 08Apr2002                   

 ----------------------------------------------------------------------------- 
|                                                                             |
|           W    W    AA    RRRRR   N    N  II  N    N   GGGG   !!!           |
|           W    W   A  A   R    R  NN   N  II  NN   N  G    G  !!!           |
|           W    W  A    A  R    R  N N  N  II  N N  N  G       !!!           |
|           W WW W  AAAAAA  RRRRR   N  N N  II  N  N N  G  GGG   !            |
|           WW  WW  A    A  R   R   N   NN  II  N   NN  G    G                |
|           W    W  A    A  R    R  N    N  II  N    N   GGGG   !!!           |
|                                                                             |
|      For optimal performance we recommend to set                            |
|        NCORE= 4 - approx SQRT( number of cores)                             |
|      NCORE specifies how many cores store one orbital (NPAR=cpu/NCORE).     |
|      This setting can  greatly improve the performance of VASP for DFT.     |
|      The default,   NCORE=1            might be grossly inefficient         |
|      on modern multi-core architectures or massively parallel machines.     |
|      Do your own testing !!!!                                               |
|      Unfortunately you need to use the default for GW and RPA calculations. |
|      (for HF NCORE is supported but not extensively tested yet)             |
|                                                                             |
 ----------------------------------------------------------------------------- 

 POTCAR:    PAW_PBE C 08Apr2002                   
   SHA256 =  253f7b50bb8d59471dbedb8285d89021f4a42ed1a2c5d38a03a736e69125dd95 C/
   COPYR  = (c) Copyright 08Apr2002 Georg Kresse                                
   COPYR  = This file is part of the software VASP. Any use, copying, and all ot
   COPYR  = If you do not have a valid VASP license, you may not use, copy or di
   VRHFIN =C: s2p2                                                              
   LEXCH  = PE                                                                  
   EATOM  =   147.1560 eV,   10.8157 Ry                                         
                                                                                
   TITEL  = PAW_PBE C 08Apr2002                                                 
   LULTRA =        F    use ultrasoft PP ?                                      
   IUNSCR =        1    unscreen: 0-lin 1-nonlin 2-no                           
   RPACOR =    1.200    partial core radius                                     
   POMASS =   12.011; ZVAL   =    4.000    mass and valenz                      
   RCORE  =    1.500    outmost cutoff radius                                   
   RWIGS  =    1.630; RWIGS  =    0.863    wigner-seitz radius (au A)           
   ENMAX  =  400.000; ENMIN  =  300.000 eV                                      
   ICORE  =        2    local potential                                         
   LCOR   =        T    correct aug charges                                     
   LPAW   =        T    paw PP                                                  
   EAUG   =  644.873                                                            
   DEXC   =    0.000                                                            
   RMAX   =    1.529    core radius for proj-oper                               
   RAUG   =    1.300    factor for augmentation sphere                          
   RDEP   =    1.501    radius for radial grids                                 
   RDEPT  =    1.300    core radius for aug-charge                              
                                                                                
   Atomic configuration                                                         
    4 entries                                                                   
     n  l   j            E        occ.                                          
     1  0  0.50      -273.3789   2.0000                                         
     2  0  0.50       -13.7508   2.0000                                         
     2  1  0.50        -5.2854   2.0000                                         
     3  2  1.50        -5.4423   0.0000                                         
   Description                                                                  
     l       E           TYP  RCUT    TYP  RCUT                                 
     0    -13.7508458     23  1.200                                             
     0     -8.2022199     23  1.200                                             
     1     -5.2854383     23  1.500                                             
     1     34.0145650     23  1.500                                             
     2     -5.4423304      7  1.500                                             
  local pseudopotential read in
  partial core-charges read in
  partial kinetic energy density read in
  atomic valenz-charges read in
  non local Contribution for L=           0  read in
    real space projection operators read in
  non local Contribution for L=           0  read in
    real space projection operators read in
  non local Contribution for L=           1  read in
    real space projection operators read in
  non local Contribution for L=           1  read in
    real space projection operators read in
    PAW grid and wavefunctions read in
 
   number of l-projection  operators is LMAX  =           4
   number of lm-projection operators is LMMAX =           8
 
 POTCAR:    PAW_PBE N 08Apr2002                   
   SHA256 =  e053789ff3a61a86a1b75d8a110fcc91f86041011e7b0817c7c99e4e8a6349d7 N/
   COPYR  = (c) Copyright 08Apr2002 Georg Kresse                                
   COPYR  = This file is part of the software VASP. Any use, copying, and all ot
   COPYR  = If you do not have a valid VASP license, you may not use, copy or di
   VRHFIN =N: s2p3                                                              
   LEXCH  = PE                                                                  
   EATOM  =   264.5486 eV,   19.4438 Ry                                         
                                                                                
   TITEL  = PAW_PBE N 08Apr2002                                                 
   LULTRA =        F    use ultrasoft PP ?                                      
   IUNSCR =        1    unscreen: 0-lin 1-nonlin 2-no                           
   RPACOR =    1.200    partial core radius                                     
   POMASS =   14.001; ZVAL   =    5.000    mass and valenz                      
   RCORE  =    1.500    outmost cutoff radius                                   
   RWIGS  =    1.400; RWIGS  =    0.741    wigner-seitz radius (au A)           
   ENMAX  =  400.000; ENMIN  =  300.000 eV                                      
   ICORE  =        2    local potential                                         
   LCOR   =        T    correct aug charges                                     
   LPAW   =        T    paw PP                                                  
   EAUG   =  627.112                                                            
   DEXC   =    0.000                                                            
   RMAX   =    1.529    core radius for proj-oper                               
   RAUG   =    1.300    factor for augmentation sphere                          
   RDEP   =    1.514    radius for radial grids                                 
   RDEPT  =    1.338    core radius for aug-charge                              
                                                                                
   Atomic configuration                                                         
    4 entries                                                                   
     n  l   j            E        occ.                                          
     1  0  0.50      -384.7179   2.0000                                         
     2  0  0.50       -18.5828   2.0000                                         
     2  1  0.50        -7.0898   3.0000                                         
     3  2  1.50        -6.8029   0.0000                                         
   Description                                                                  
     l       E           TYP  RCUT    TYP  RCUT                                 
     0    -18.5828119     23  1.200                                             
     0    -13.5018863     23  1.200                                             
     1     -7.0897853     23  1.500                                             
     1      9.5240782     23  1.500                                             
     2     -6.8029130      7  1.500                                             
  local pseudopotential read in
  partial core-charges read in
  partial kinetic energy density read in
  atomic valenz-charges read in
  non local Contribution for L=           0  read in
    real space projection operators read in
  non local Contribution for L=           0  read in
    real space projection operators read in
  non local Contribution for L=           1  read in
    real space projection operators read in
  non local Contribution for L=           1  read in
    real space projection operators read in
    PAW grid and wavefunctions read in
 
   number of l-projection  operators is LMAX  =           4
   number of lm-projection operators is LMMAX =           8
 
 POTCAR:    PAW_PBE C 08Apr2002                   
   SHA256 =  253f7b50bb8d59471dbedb8285d89021f4a42ed1a2c5d38a03a736e69125dd95 C/
   COPYR  = (c) Copyright 08Apr2002 Georg Kresse                                
   COPYR  = This file is part of the software VASP. Any use, copying, and all ot
   COPYR  = If you do not have a valid VASP license, you may not use, copy or di
   VRHFIN =C: s2p2                                                              
   LEXCH  = PE                                                                  
   EATOM  =   147.1560 eV,   10.8157 Ry                                         
                                                                                
   TITEL  = PAW_PBE C 08Apr2002                                                 
   LULTRA =        F    use ultrasoft PP ?                                      
   IUNSCR =        1    unscreen: 0-lin 1-nonlin 2-no                           
   RPACOR =    1.200    partial core radius                                     
   POMASS =   12.011; ZVAL   =    4.000    mass and valenz                      
   RCORE  =    1.500    outmost cutoff radius                                   
   RWIGS  =    1.630; RWIGS  =    0.863    wigner-seitz radius (au A)           
   ENMAX  =  400.000; ENMIN  =  300.000 eV                                      
   ICORE  =        2    local potential                                         
   LCOR   =        T    correct aug charges                                     
   LPAW   =        T    paw PP                                                  
   EAUG   =  644.873                                                            
   DEXC   =    0.000                                                            
   RMAX   =    1.529    core radius for proj-oper                               
   RAUG   =    1.300    factor for augmentation sphere                          
   RDEP   =    1.501    radius for radial grids                                 
   RDEPT  =    1.300    core radius for aug-charge                              
                                                                                
   Atomic configuration                                                         
    4 entries                                                                   
     n  l   j            E        occ.                                          
     1  0  0.50      -273.3789   2.0000                                         
     2  0  0.50       -13.7508   2.0000                                         
     2  1  0.50        -5.2854   2.0000                                         
     3  2  1.50        -5.4423   0.0000                                         
   Description                                                                  
     l       E           TYP  RCUT    TYP  RCUT                                 
     0    -13.7508458     23  1.200                                             
     0     -8.2022199     23  1.200                                             
     1     -5.2854383     23  1.500                                             
     1     34.0145650     23  1.500                                             
     2     -5.4423304      7  1.500                                             
  local pseudopotential read in
  partial core-charges read in
  partial kinetic energy density read in
  atomic valenz-charges read in
  non local Contribution for L=           0  read in
    real space projection operators read in
  non local Contribution for L=           0  read in
    real space projection operators read in
  non local Contribution for L=           1  read in
    real space projection operators read in
  non local Contribution for L=           1  read in
    real space projection operators read in
    PAW grid and wavefunctions read in
 
   number of l-projection  operators is LMAX  =           4
   number of lm-projection operators is LMMAX =           8
 
 POTCAR:    PAW_PBE Cr_pv 02Aug2007               
   SHA256 =  c9a7df34d3cdbacf1090e328ef39c0b420964e11c23f63548d1ac9dd218cdba0 Cr
   COPYR  = (c) Copyright 02Aug2007 Georg Kresse                                
   COPYR  = This file is part of the software VASP. Any use, copying, and all ot
   COPYR  = If you do not have a valid VASP license, you may not use, copy or di
   VRHFIN =Cr : p6d5s1                                                          
   LEXCH  = PE                                                                  
   EATOM  =  1647.9177 eV,  121.1185 Ry                                         
                                                                                
   TITEL  = PAW_PBE Cr_pv 02Aug2007                                             
   LULTRA =        F    use ultrasoft PP ?                                      
   IUNSCR =        1    unscreen: 0-lin 1-nonlin 2-no                           
   RPACOR =    2.080    partial core radius                                     
   POMASS =   51.996; ZVAL   =   12.000    mass and valenz                      
   RCORE  =    2.300    outmost cutoff radius                                   
   RWIGS  =    2.500; RWIGS  =    1.323    wigner-seitz radius (au A)           
   ENMAX  =  265.681; ENMIN  =  199.261 eV                                      
   ICORE  =        3    local potential                                         
   LCOR   =        T    correct aug charges                                     
   LPAW   =        T    paw PP                                                  
   EAUG   =  519.424                                                            
   DEXC   =    0.000                                                            
   RMAX   =    2.356    core radius for proj-oper                               
   RAUG   =    1.300    factor for augmentation sphere                          
   RDEP   =    2.447    radius for radial grids                                 
   RDEPT  =    1.882    core radius for aug-charge                              
                                                                                
   Atomic configuration                                                         
    8 entries                                                                   
     n  l   j            E        occ.                                          
     1  0  0.50     -5880.4963   2.0000                                         
     2  0  0.50      -667.0865   2.0000                                         
     2  1  1.50      -560.6250   6.0000                                         
     3  0  0.50       -73.9860   2.0000                                         
     3  1  1.50       -45.4378   6.0000                                         
     3  2  2.50        -2.9137   5.0000                                         
     4  0  0.50        -4.0071   1.0000                                         
     4  3  2.50        -1.3606   0.0000                                         
   Description                                                                  
     l       E           TYP  RCUT    TYP  RCUT                                 
     1    -45.4377911     23  2.000                                             
     1      1.3605826     23  2.000                                             
     2     -2.9136672     23  2.300                                             
     2     -4.2742498     23  2.300                                             
     0     -4.0071320     23  2.300                                             
     0      9.4498803     23  2.300                                             
     3      2.7211652     23  2.300                                             
  local pseudopotential read in
  partial core-charges read in
  partial kinetic energy density read in
  atomic valenz-charges read in
  non local Contribution for L=           1  read in
    real space projection operators read in
  non local Contribution for L=           1  read in
    real space projection operators read in
  non local Contribution for L=           2  read in
    real space projection operators read in
  non local Contribution for L=           2  read in
    real space projection operators read in
  non local Contribution for L=           0  read in
    real space projection operators read in
  non local Contribution for L=           0  read in
    real space projection operators read in
    PAW grid and wavefunctions read in
 
   number of l-projection  operators is LMAX  =           6
   number of lm-projection operators is LMMAX =          18
 
 POTCAR:    PAW_PBE C 08Apr2002                   
   SHA256 =  253f7b50bb8d59471dbedb8285d89021f4a42ed1a2c5d38a03a736e69125dd95 C/
   COPYR  = (c) Copyright 08Apr2002 Georg Kresse                                
   COPYR  = This file is part of the software VASP. Any use, copying, and all ot
   COPYR  = If you do not have a valid VASP license, you may not use, copy or di
   VRHFIN =C: s2p2                                                              
   LEXCH  = PE                                                                  
   EATOM  =   147.1560 eV,   10.8157 Ry                                         
                                                                                
   TITEL  = PAW_PBE C 08Apr2002                                                 
   LULTRA =        F    use ultrasoft PP ?                                      
   IUNSCR =        1    unscreen: 0-lin 1-nonlin 2-no                           
   RPACOR =    1.200    partial core radius                                     
   POMASS =   12.011; ZVAL   =    4.000    mass and valenz                      
   RCORE  =    1.500    outmost cutoff radius                                   
   RWIGS  =    1.630; RWIGS  =    0.863    wigner-seitz radius (au A)           
   ENMAX  =  400.000; ENMIN  =  300.000 eV                                      
   ICORE  =        2    local potential                                         
   LCOR   =        T    correct aug charges                                     
   LPAW   =        T    paw PP                                                  
   EAUG   =  644.873                                                            
   DEXC   =    0.000                                                            
   RMAX   =    1.529    core radius for proj-oper                               
   RAUG   =    1.300    factor for augmentation sphere                          
   RDEP   =    1.501    radius for radial grids                                 
   RDEPT  =    1.300    core radius for aug-charge                              
                                                                                
   Atomic configuration                                                         
    4 entries                                                                   
     n  l   j            E        occ.                                          
     1  0  0.50      -273.3789   2.0000                                         
     2  0  0.50       -13.7508   2.0000                                         
     2  1  0.50        -5.2854   2.0000                                         
     3  2  1.50        -5.4423   0.0000                                         
   Description                                                                  
     l       E           TYP  RCUT    TYP  RCUT                                 
     0    -13.7508458     23  1.200                                             
     0     -8.2022199     23  1.200                                             
     1     -5.2854383     23  1.500                                             
     1     34.0145650     23  1.500                                             
     2     -5.4423304      7  1.500                                             
  local pseudopotential read in
  partial core-charges read in
  partial kinetic energy density read in
  atomic valenz-charges read in
  non local Contribution for L=           0  read in
    real space projection operators read in
  non local Contribution for L=           0  read in
    real space projection operators read in
  non local Contribution for L=           1  read in
    real space projection operators read in
  non local Contribution for L=           1  read in
    real space projection operators read in
    PAW grid and wavefunctions read in
 
   number of l-projection  operators is LMAX  =           4
   number of lm-projection operators is LMMAX =           8
 
 POTCAR:    PAW_PBE O 08Apr2002                   
   SHA256 =  818f92134a0a090dccd8ba1447fa70422a3b330e708bb4f08108d8ae51209ddf O/
   COPYR  = (c) Copyright 08Apr2002 Georg Kresse                                
   COPYR  = This file is part of the software VASP. Any use, copying, and all ot
   COPYR  = If you do not have a valid VASP license, you may not use, copy or di
   VRHFIN =O: s2p4                                                              
   LEXCH  = PE                                                                  
   EATOM  =   432.3788 eV,   31.7789 Ry                                         
                                                                                
   TITEL  = PAW_PBE O 08Apr2002                                                 
   LULTRA =        F    use ultrasoft PP ?                                      
   IUNSCR =        1    unscreen: 0-lin 1-nonlin 2-no                           
   RPACOR =    1.200    partial core radius                                     
   POMASS =   16.000; ZVAL   =    6.000    mass and valenz                      
   RCORE  =    1.520    outmost cutoff radius                                   
   RWIGS  =    1.550; RWIGS  =    0.820    wigner-seitz radius (au A)           
   ENMAX  =  400.000; ENMIN  =  300.000 eV                                      
   ICORE  =        2    local potential                                         
   LCOR   =        T    correct aug charges                                     
   LPAW   =        T    paw PP                                                  
   EAUG   =  605.392                                                            
   DEXC   =    0.000                                                            
   RMAX   =    1.553    core radius for proj-oper                               
   RAUG   =    1.300    factor for augmentation sphere                          
   RDEP   =    1.550    radius for radial grids                                 
   RDEPT  =    1.329    core radius for aug-charge                              
                                                                                
   Atomic configuration                                                         
    4 entries                                                                   
     n  l   j            E        occ.                                          
     1  0  0.50      -514.6923   2.0000                                         
     2  0  0.50       -23.9615   2.0000                                         
     2  1  0.50        -9.0305   4.0000                                         
     3  2  1.50        -9.5241   0.0000                                         
   Description                                                                  
     l       E           TYP  RCUT    TYP  RCUT                                 
     0    -23.9615318     23  1.200                                             
     0     -9.5240782     23  1.200                                             
     1     -9.0304911     23  1.520                                             
     1      8.1634956     23  1.520                                             
     2     -9.5240782      7  1.500                                             
  local pseudopotential read in
  partial core-charges read in
  partial kinetic energy density read in
  kinetic energy density of atom read in
  atomic valenz-charges read in
  non local Contribution for L=           0  read in
    real space projection operators read in
  non local Contribution for L=           0  read in
    real space projection operators read in
  non local Contribution for L=           1  read in
    real space projection operators read in
  non local Contribution for L=           1  read in
    real space projection operators read in
    PAW grid and wavefunctions read in
 
   number of l-projection  operators is LMAX  =           4
   number of lm-projection operators is LMMAX =           8
 

 ----------------------------------------------------------------------------- 
|                                                                             |
|  ADVICE TO THIS USER RUNNING 'VASP/VAMP'   (HEAR YOUR MASTER'S VOICE ...):  |
|                                                                             |
|      You have a (more or less) 'large supercell' and for larger cells       |
|      it might be more efficient to use real space projection opertators     |
|      So try LREAL= Auto  in the INCAR   file.                               |
|      Mind:          For very  accurate calculation you might also keep the  |
|      reciprocal projection scheme          (i.e. LREAL=.FALSE.)             |
|                                                                             |
 ----------------------------------------------------------------------------- 

  PAW_PBE C 08Apr2002                   :
 energy of atom  1       EATOM= -147.1560
 kinetic energy error for atom=    0.0132 (will be added to EATOM!!)
  PAW_PBE N 08Apr2002                   :
 energy of atom  2       EATOM= -264.5486
 kinetic energy error for atom=    0.0298 (will be added to EATOM!!)
  PAW_PBE C 08Apr2002                   :
 energy of atom  3       EATOM= -147.1560
 kinetic energy error for atom=    0.0132 (will be added to EATOM!!)
  PAW_PBE Cr_pv 02Aug2007               :
 energy of atom  4       EATOM=-1647.9177
 kinetic energy error for atom=    0.0134 (will be added to EATOM!!)
  PAW_PBE C 08Apr2002                   :
 energy of atom  5       EATOM= -147.1560
 kinetic energy error for atom=    0.0132 (will be added to EATOM!!)
  PAW_PBE O 08Apr2002                   :
 energy of atom  6       EATOM= -432.3788
 kinetic energy error for atom=    0.0458 (will be added to EATOM!!)
 
 
 POSCAR: POSCAR-clean                            
  positions in direct lattice
  velocities in cartesian coordinates
 exchange correlation table for  LEXCH =        8
   RHO(1)=    0.500       N(1)  =     2000
   RHO(2)=  100.500       N(2)  =     4000

 VTST: version 3.2, (02/03/18)

 CHAIN: initializing optimizer
 
 OPT: Using VASP Dynamics algorithm
 CHAIN: Read ICHAIN            0
 
 POSCAR: POSCAR-clean                            
  positions in direct lattice
  velocities in cartesian coordinates
 


--------------------------------------------------------------------------------------------------------


 ion  position               nearest neighbor table
   1  0.001  0.000  0.489-   2 1.42  60 1.42  70 1.43
   2  0.056  0.112  0.489-  13 1.42   1 1.42  15 1.44
   3  0.168  0.002  0.490-   4 1.42  62 1.43  60 1.43
   4  0.223  0.113  0.491-   3 1.42  15 1.42  17 1.43
   5  0.334  0.002  0.490-  62 1.42   6 1.42  64 1.43
   6  0.390  0.114  0.491-  19 1.42   5 1.42  17 1.44
   7  0.500  1.000  0.490-  64 1.42   8 1.42  66 1.43
   8  0.556  0.112  0.490-  21 1.42   7 1.42  19 1.44
   9  0.666  0.998  0.491-  10 1.42  66 1.42  68 1.43
  10  0.721  0.109  0.490-   9 1.42  23 1.43  21 1.43
  11  0.832  0.998  0.491-  12 1.42  70 1.43  68 1.44
  12  0.888  0.109  0.490-  11 1.42  23 1.42  13 1.43
  13  0.999  0.166  0.489-  14 1.41   2 1.42  12 1.43
  14  0.054  0.276  0.490-  13 1.41  25 1.43  27 1.43
  15  0.168  0.168  0.491-  16 1.41   4 1.42   2 1.44
  16  0.223  0.279  0.493-  15 1.41  27 1.42  29 1.42
  17  0.335  0.171  0.493-  18 1.42   4 1.43   6 1.44
  18  0.390  0.282  0.498-  17 1.42  29 1.42  31 1.43
  19  0.501  0.169  0.491-  20 1.42   6 1.42   8 1.44
  20  0.556  0.280  0.493-  19 1.42  33 1.43  31 1.46
  21  0.666  0.166  0.490-  22 1.42   8 1.42  10 1.43
  22  0.722  0.277  0.490-  21 1.42  33 1.43  35 1.43
  23  0.832  0.165  0.490-  24 1.42  12 1.42  10 1.43
  24  0.888  0.276  0.490-  23 1.42  35 1.42  25 1.43
  25  0.999  0.332  0.490-  26 1.42  24 1.43  14 1.43
  26  0.054  0.444  0.490-  39 1.42  37 1.42  25 1.42
  27  0.166  0.333  0.492-  28 1.42  16 1.42  14 1.43
  28  0.219  0.443  0.493-  41 1.40  27 1.42  39 1.42
  29  0.333  0.337  0.500-  30 1.39  16 1.42  18 1.42
  30  0.386  0.445  0.508-  29 1.39  41 1.41  71 2.03
  31  0.501  0.339  0.498-  32 1.42  18 1.43  20 1.46
  32  0.561  0.450  0.504-  43 1.42  31 1.42  71 1.96
  33  0.667  0.333  0.492-  34 1.42  22 1.43  20 1.43
  34  0.724  0.445  0.493-  43 1.41  33 1.42  45 1.42
  35  0.833  0.333  0.490-  36 1.42  24 1.42  22 1.43
  36  0.889  0.444  0.490-  45 1.42  37 1.42  35 1.42
  37  1.000  0.500  0.490-  26 1.42  36 1.42  38 1.42
  38  0.056  0.611  0.490-  47 1.42  49 1.42  37 1.42
  39  0.164  0.499  0.492-  26 1.42  28 1.42  40 1.42
  40  0.221  0.611  0.492-  49 1.42  39 1.42  51 1.42
  41  0.328  0.497  0.498-  28 1.40  30 1.41  42 1.44
  42  0.385  0.610  0.498-  53 1.41  51 1.42  41 1.44
  43  0.671  0.501  0.498-  34 1.41  32 1.42  44 1.43
  44  0.728  0.613  0.499-  57 1.41  55 1.41  43 1.43
  45  0.835  0.500  0.492-  36 1.42  46 1.42  34 1.42
  46  0.891  0.612  0.491-  47 1.42  57 1.42  45 1.42
  47  0.002  0.668  0.490-  46 1.42  38 1.42  48 1.42
  48  0.057  0.779  0.490-  47 1.42  61 1.42  59 1.42
  49  0.167  0.667  0.491-  40 1.42  38 1.42  50 1.42
  50  0.223  0.779  0.491-  61 1.42  49 1.42  63 1.42
  51  0.331  0.666  0.494-  42 1.42  40 1.42  52 1.42
  52  0.388  0.777  0.493-  51 1.42  65 1.42  63 1.43
  53  0.495  0.661  0.504-  42 1.41  54 1.42  71 2.01
  54  0.553  0.772  0.498-  53 1.42  67 1.44  65 1.45
  55  0.670  0.665  0.509-  56 1.41  44 1.41  71 2.00
  56  0.722  0.774  0.500-  55 1.41  67 1.44  69 1.44
  57  0.837  0.668  0.493-  44 1.41  58 1.42  46 1.42
  58  0.891  0.779  0.492-  57 1.42  69 1.42  59 1.42
  59  0.002  0.835  0.490-  60 1.42  58 1.42  48 1.42
  60  0.057  0.946  0.490-  59 1.42   1 1.42   3 1.43
  61  0.168  0.835  0.490-  62 1.42  48 1.42  50 1.42
  62  0.224  0.946  0.490-   5 1.42  61 1.42   3 1.43
  63  0.334  0.834  0.491-  64 1.42  50 1.42  52 1.43
  64  0.389  0.946  0.490-  63 1.42   7 1.42   5 1.43
  65  0.499  0.831  0.494-  52 1.42  66 1.43  54 1.45
  66  0.555  0.943  0.491-   9 1.42  65 1.43   7 1.43
  67  0.665  0.830  0.498-  68 1.42  56 1.44  54 1.44
  68  0.721  0.941  0.493-  67 1.42   9 1.43  11 1.44
  69  0.834  0.833  0.493-  70 1.42  58 1.42  56 1.44
  70  0.889  0.944  0.491-  69 1.42  11 1.43   1 1.43
  71  0.529  0.555  0.552-  32 1.96  72 1.97  55 2.00  53 2.01  30 2.03
  72  0.509  0.533  0.681-  73 1.16  71 1.97
  73  0.495  0.519  0.758-  72 1.16
 

IMPORTANT INFORMATION: All symmetrisations will be switched off!
NOSYMM: (Re-)initialisation of all symmetry stuff for point group C_1.

 
 
 KPOINTS: K-Points                                

Automatic generation of k-mesh.
Space group operators:
 irot       det(A)        alpha          n_x          n_y          n_z        tau_x        tau_y        tau_z
    1     1.000000     0.000001     1.000000     0.000000     0.000000     0.000000     0.000000     0.000000
 
 Subroutine IBZKPT returns following result:
 ===========================================
 
 Found      5 irreducible k-points:
 
 Following reciprocal coordinates:
            Coordinates               Weight
  0.000000  0.000000  0.000000      1.000000
  0.333333 -0.000000  0.000000      2.000000
  0.000000  0.333333  0.000000      2.000000
  0.333333  0.333333  0.000000      2.000000
 -0.333333  0.333333  0.000000      2.000000
 
 Following cartesian coordinates:
            Coordinates               Weight
  0.000000  0.000000  0.000000      1.000000
  0.022421  0.013068  0.000000      2.000000
 -0.000041  0.026137  0.000000      2.000000
  0.022380  0.039205  0.000000      2.000000
 -0.022463  0.013068  0.000000      2.000000
 
 TETIRR: Found     24 inequivalent tetrahedra from       54


--------------------------------------------------------------------------------------------------------




 Dimension of arrays:
   k-points           NKPTS =      5   k-points in BZ     NKDIM =      5   number of bands    NBANDS=    192
   number of dos      NEDOS =   4000   number of ions     NIONS =     73
   non local maximal  LDIM  =      6   non local SUM 2l+1 LMDIM =     18
   total plane-waves  NPLWV = 512000
   max r-space proj   IRMAX =      1   max aug-charges    IRDMAX=   6469
   dimension x,y,z NGX =    80 NGY =   80 NGZ =   80
   dimension x,y,z NGXF=   160 NGYF=  160 NGZF=  160
   support grid    NGXF=   160 NGYF=  160 NGZF=  160
   ions per type =              28   1  41   1   1   1
   NGX,Y,Z   is equivalent  to a cutoff of   8.95,  9.02,  8.87 a.u.
   NGXF,Y,Z  is equivalent  to a cutoff of  17.91, 18.04, 17.73 a.u.

 SYSTEM =  unknown system                          
 POSCAR =  POSCAR-clean                            

 Startparameter for this run:
   NWRITE =      2    write-flag & timer
   PREC   = normal    normal or accurate (medium, high low for compatibility)
   ISTART =      0    job   : 0-new  1-cont  2-samecut
   ICHARG =      2    charge: 1-file 2-atom 10-const
   ISPIN  =      2    spin polarized calculation?
   LNONCOLLINEAR =      F non collinear calculations
   LSORBIT =      F    spin-orbit coupling
   INIWAV =      1    electr: 0-lowe 1-rand  2-diag
   LASPH  =      F    aspherical Exc in radial PAW
   METAGGA=      F    non-selfconsistent MetaGGA calc.

 Electronic Relaxation 1
   ENCUT  =  440.0 eV  32.34 Ry    5.69 a.u.  25.40 25.22 25.66*2*pi/ulx,y,z
   ENINI  =  440.0     initial cutoff
   ENAUG  =  644.9 eV  augmentation charge cutoff
   NELM   =    200;   NELMIN=  2; NELMDL= -5     # of ELM steps 
   EDIFF  = 0.1E-03   stopping-criterion for ELM
   LREAL  =      F    real-space projection
   NLSPLINE    = F    spline interpolate recip. space projectors
   LCOMPAT=      F    compatible to vasp.4.4
   GGA_COMPAT  = T    GGA compatible to vasp.4.4-vasp.4.6
   LMAXPAW     = -100 max onsite density
   LMAXMIX     =    2 max onsite mixed and CHGCAR
   VOSKOWN=      0    Vosko Wilk Nusair interpolation
   ROPT   =    0.00000   0.00000   0.00000   0.00000
   ROPT   =    0.00000   0.00000
 Ionic relaxation
   EDIFFG = -.1E-01   stopping-criterion for IOM
   NSW    =      0    number of steps for IOM
   NBLOCK =      1;   KBLOCK =      1    inner block; outer block 
   IBRION =     -1    ionic relax: 0-MD 1-quasi-New 2-CG
   NFREE  =      0    steps in history (QN), initial steepest desc. (CG)
   ISIF   =      2    stress and relaxation
   IWAVPR =     10    prediction:  0-non 1-charg 2-wave 3-comb
   ISYM   =      0    0-nonsym 1-usesym 2-fastsym
   LCORR  =      T    Harris-Foulkes like correction to forces

   POTIM  = 0.5000    time-step for ionic-motion
   TEIN   =    0.0    initial temperature
   TEBEG  =    0.0;   TEEND  =   0.0 temperature during run
   SMASS  =  -3.00    Nose mass-parameter (am)
   estimated Nose-frequenzy (Omega)   =  0.10E-29 period in steps =****** mass=  -0.504E-26a.u.
   SCALEE = 1.0000    scale energy and forces
   NPACO  =    256;   APACO  = 16.0  distance and # of slots for P.C.
   PSTRESS=    0.0 pullay stress

  Mass of Ions in am
   POMASS =  12.01 14.00 12.01 52.00 12.01 16.00
  Ionic Valenz
   ZVAL   =   4.00  5.00  4.00 12.00  4.00  6.00
  Atomic Wigner-Seitz radii
   RWIGS  =  -1.00 -1.00 -1.00 -1.00 -1.00 -1.00
  virtual crystal weights 
   VCA    =   1.00  1.00  1.00  1.00  1.00  1.00
   NELECT =     303.0000    total number of electrons
   NUPDOWN=      -1.0000    fix difference up-down

 DOS related values:
   EMIN   = -14.00;   EMAX   =  6.00  energy-range for DOS
   EFERMI =   0.00
   ISMEAR =    -5;   SIGMA  =   0.20  broadening in eV -4-tet -1-fermi 0-gaus

 Electronic relaxation 2 (details)
   IALGO  =     58    algorithm
   LDIAG  =      T    sub-space diagonalisation (order eigenvalues)
   LSUBROT=      F    optimize rotation matrix (better conditioning)
   TURBO    =      0    0=normal 1=particle mesh
   IRESTART =      0    0=no restart 2=restart with 2 vectors
   NREBOOT  =      0    no. of reboots
   NMIN     =      0    reboot dimension
   EREF     =   0.00    reference energy to select bands
   IMIX   =      4    mixing-type and parameters
     AMIX     =   0.20;   BMIX     =  0.00
     AMIX_MAG =   0.80;   BMIX_MAG =  0.00
     AMIN     =   0.10
     WC   =   100.;   INIMIX=   1;  MIXPRE=   1;  MAXMIX= -45

 Intra band minimization:
   WEIMIN = 0.0000     energy-eigenvalue tresh-hold
   EBREAK =  0.13E-06  absolut break condition
   DEPER  =   0.30     relativ break condition  

   TIME   =   0.40     timestep for ELM

  volume/ion in A,a.u.               =      38.92       262.67
  Fermi-wavevector in a.u.,A,eV,Ry     =   0.776326  1.467044  8.199996  0.602683
  Thomas-Fermi vector in A             =   1.878781
 
 Write flags
   LWAVE        =      F    write WAVECAR
   LDOWNSAMPLE  =      F    k-point downsampling of WAVECAR
   LCHARG       =      F    write CHGCAR
   LVTOT        =      F    write LOCPOT, total local potential
   LVHAR        =      F    write LOCPOT, Hartree potential only
   LELF         =      F    write electronic localiz. function (ELF)
   LORBIT       =     11    0 simple, 1 ext, 2 COOP (PROOUT), +10 PAW based schemes


 Dipole corrections
   LMONO  =      F    monopole corrections only (constant potential shift)
   LDIPOL =      F    correct potential (dipole corrections)
   IDIPOL =      0    1-x, 2-y, 3-z, 4-all directions 
   EPSILON=  1.0000000 bulk dielectric constant

 Exchange correlation treatment:
   GGA     =    --    GGA type
   LEXCH   =     8    internal setting for exchange type
   VOSKOWN=      0    Vosko Wilk Nusair interpolation
   LHFCALC =     F    Hartree Fock is set to
   LHFONE  =     F    Hartree Fock one center treatment
   AEXX    =    0.0000 exact exchange contribution

 Linear response parameters
   LEPSILON=     F    determine dielectric tensor
   LRPA    =     F    only Hartree local field effects (RPA)
   LNABLA  =     F    use nabla operator in PAW spheres
   LVEL    =     F    velocity operator in full k-point grid
   LINTERFAST=   F  fast interpolation
   KINTER  =     0    interpolate to denser k-point grid
   CSHIFT  =0.1000    complex shift for real part using Kramers Kronig
   OMEGAMAX=  -1.0    maximum frequency
   DEG_THRESHOLD= 0.2000000E-02 threshold for treating states as degnerate
   RTIME   =   -0.100 relaxation time in fs
  (WPLASMAI=    0.000 imaginary part of plasma frequency in eV, 0.658/RTIME)
   DFIELD  = 0.0000000 0.0000000 0.0000000 field for delta impulse in time
 
 Orbital magnetization related:
   ORBITALMAG=     F  switch on orbital magnetization
   LCHIMAG   =     F  perturbation theory with respect to B field
   DQ        =  0.001000  dq finite difference perturbation B field
   LLRAUG    =     F  two centre corrections for induced B field



--------------------------------------------------------------------------------------------------------


 Static calculation
 charge density and potential will be updated during run
 spin polarized calculation
 Conjugate gradient for all bands (Freysoldt, et al. PRB 79, 241103 (2009))
 preconditioned conjugated gradient                                        
 perform sub-space diagonalisation
    before iterative eigenvector-optimisation
 modified Broyden-mixing scheme, WC =      100.0
 initial mixing is a Kerker type mixing with AMIX =  0.2000 and BMIX =      0.0010
 Hartree-type preconditioning will be used
 using additional bands           40
 reciprocal scheme for non local part
 use partial core corrections
 no Harris-corrections to forces 
 use gradient corrections 
 use of overlap-Matrix (Vanderbilt PP)
 Fermi weights with tetrahedron method with Bloechl corrections


--------------------------------------------------------------------------------------------------------


  energy-cutoff  :      440.00
  volume of cell :     2841.41
      direct lattice vectors                 reciprocal lattice vectors
    14.853071780  0.023521220  0.000000000     0.067264056  0.039205183  0.000000000
    -7.426535890 12.741655181  0.000000000    -0.000124170  0.078410366  0.000000000
     0.000000000  0.000000000 15.000000000     0.000000000  0.000000000  0.066666667

  length of vectors
    14.853090404 14.747990103 15.000000000     0.077855633  0.078410464  0.066666667


 
 k-points in units of 2pi/SCALE and weight: K-Points                                
   0.00000000  0.00000000  0.00000000       0.111
   0.02242135  0.01306839  0.00000000       0.222
  -0.00004139  0.02613679  0.00000000       0.222
   0.02237996  0.03920518  0.00000000       0.222
  -0.02246274  0.01306839  0.00000000       0.222
 
 k-points in reciprocal lattice and weights: K-Points                                
   0.00000000  0.00000000  0.00000000       0.111
   0.33333333 -0.00000000  0.00000000       0.222
   0.00000000  0.33333333  0.00000000       0.222
   0.33333333  0.33333333  0.00000000       0.222
  -0.33333333  0.33333333  0.00000000       0.222
 
 position of ions in fractional coordinates (direct lattice) 
   0.00067655  0.00039209  0.48932096
   0.05605610  0.11185356  0.48933405
   0.16828159  0.00208812  0.48994911
   0.22344834  0.11309367  0.49135549
   0.33437670  0.00232166  0.49009067
   0.38991209  0.11404180  0.49143629
   0.50007576  0.99980957  0.48998867
   0.55554441  0.11152592  0.48988227
   0.66576159  0.99790465  0.49087736
   0.72128442  0.10927576  0.48964448
   0.83237058  0.99809352  0.49089415
   0.88758767  0.10925620  0.48968497
   0.99907009  0.16556975  0.48948803
   0.05435305  0.27637520  0.49022964
   0.16780336  0.16830839  0.49080223
   0.22271805  0.27915023  0.49317264
   0.33466119  0.17088513  0.49336314
   0.38962835  0.28219296  0.49783682
   0.50063164  0.16867179  0.49129730
   0.55564525  0.28008720  0.49338201
   0.66623351  0.16583343  0.48965677
   0.72180291  0.27710333  0.49029785
   0.83231658  0.16502014  0.48956557
   0.88798345  0.27645688  0.48964142
   0.99894128  0.33218178  0.49003489
   0.05425815  0.44360995  0.49040547
   0.16555006  0.33252461  0.49198787
   0.21898065  0.44345580  0.49288019
   0.33333973  0.33692375  0.49953064
   0.38570242  0.44540311  0.50804174
   0.50124783  0.33906733  0.49804678
   0.56079075  0.44987866  0.50399649
   0.66682425  0.33339508  0.49217863
   0.72446556  0.44467844  0.49339498
   0.83298836  0.33251618  0.49008248
   0.88928670  0.44397581  0.49039031
   0.99991431  0.49980998  0.49021899
   0.05609093  0.61134048  0.49021119
   0.16449728  0.49947789  0.49151197
   0.22073378  0.61080811  0.49220613
   0.32794085  0.49707644  0.49832735
   0.38542452  0.60987942  0.49836368
   0.67071127  0.50060046  0.49783326
   0.72754345  0.61290631  0.49948228
   0.83522887  0.50027899  0.49152121
   0.89136438  0.61162033  0.49123394
   0.00172611  0.66753434  0.49015530
   0.05725360  0.77905480  0.48995516
   0.16663346  0.66712529  0.49078609
   0.22291096  0.77873394  0.49050351
   0.33134401  0.66606937  0.49439370
   0.38846776  0.77747910  0.49289058
   0.49500385  0.66095014  0.50392119
   0.55336985  0.77228100  0.49838677
   0.66998116  0.66457173  0.50923720
   0.72208224  0.77449401  0.50015681
   0.83700148  0.66777089  0.49341222
   0.89116657  0.77889082  0.49223878
   0.00190140  0.83473892  0.49018401
   0.05700303  0.94588758  0.48954542
   0.16804721  0.83483120  0.48984249
   0.22365307  0.94635793  0.48988579
   0.33374742  0.83408703  0.49080797
   0.38933185  0.94553109  0.49001039
   0.49925846  0.83084154  0.49368186
   0.55483999  0.94271159  0.49118710
   0.66547853  0.82981856  0.49793649
   0.72066839  0.94108370  0.49277689
   0.83396264  0.83251005  0.49339591
   0.88911881  0.94375606  0.49060880
   0.52888103  0.55455197  0.55191585
   0.50888314  0.53315074  0.68140145
   0.49519484  0.51947960  0.75770991
 
 position of ions in cartesian coordinates  (Angst):
   0.00713701  0.00501178  7.33981444
   0.00192086  1.42651802  7.34001079
   2.48399108  0.03056427  7.34923664
   2.47900000  1.44625631  7.37033237
   4.94927914  0.03744679  7.35135998
   4.94445678  1.46225252  7.37154430
   0.00253945 12.75099119  7.34983009
   7.42328975  1.43409192  7.34823407
   2.47762997 12.73061643  7.36316034
   9.90174891  1.40931952  7.34466716
   4.95088267 12.73694183  7.36341220
  12.37200821  1.41298203  7.34527454
  13.60965008  2.13313207  7.34232051
  -1.24520063  3.52275591  7.35344454
   1.24244698  2.14847441  7.36203342
   1.23492792  3.56207458  7.39758959
   3.70166218  2.18523100  7.40044704
   3.69146177  3.60476992  7.46755225
   6.18327062  2.16093322  7.36945947
   6.17296110  3.58184391  7.40073022
   8.66404625  2.12866306  7.34485158
   8.66307260  3.54773279  7.35446779
  11.13692986  2.12220682  7.34348349
  11.13616506  3.54340465  7.34462124
  12.37038669  4.25604202  7.35052332
  -2.48858499  5.65360118  7.35608209
  -0.01057904  4.24080787  7.37981809
  -0.04080512  5.65551162  7.39320279
   2.44894264  4.30080682  7.49295967
   2.42106352  5.68424509  7.62062611
   4.92697425  4.33206897  7.47070163
   4.98842529  5.74538918  7.55994742
   7.42841782  4.26368973  7.38267942
   7.45811861  5.68297962  7.40092463
   9.90299254  4.25639936  7.35123720
   9.91143685  5.67790382  7.35585472
  11.13994226  6.39192560  7.35328492
  -3.70701948  7.79080893  7.35316785
  -1.26610058  6.36804417  7.37267962
  -1.25761369  7.78789821  7.38309189
   1.17937294  6.34129015  7.47491019
   1.19544676  7.77993887  7.47545523
   6.24439540  6.39425434  7.46749896
   6.25448440  7.82655361  7.49223415
   8.69037452  6.39402805  7.37281809
   8.69727879  7.81402137  7.36850905
  -4.93182969  8.50553300  7.35232952
  -4.93528663  9.92779434  7.34932745
  -2.47941121  8.50419978  7.36179136
  -2.47238309  9.92760254  7.35755272
  -0.02511176  8.49461987  7.41590552
  -0.00403701  9.91550789  7.39335874
   2.44375780  8.43324192  7.55881788
   2.48386950  9.85315409  7.47580158
   5.01581247  8.48350255  7.63855798
   4.97333180  9.88531986  7.50235216
   7.47281858  8.52819373  7.40118328
   7.45210043  9.94531955  7.38358168
  -6.17097686 10.63600017  7.35276017
  -6.17799797 12.05351421  7.34318135
  -3.70388656 10.64108400  7.34763739
  -3.70622603 12.06342698  7.34828688
  -1.23720283 10.63549951  7.36211960
  -1.23924662 12.05678867  7.35015580
   1.24524714 10.59803961  7.40522786
   1.23999678 12.02475649  7.36780646
   3.72172307 10.58891485  7.46904728
   3.71514751 12.00791497  7.39165340
   6.20424123 10.62717183  7.40093861
   6.19730716 12.04592750  7.35913201
   3.73710776  7.07834992  8.27873780
   3.59901478  6.80519238 10.22102172
   3.49723062  6.63067755 11.36564872
 


--------------------------------------------------------------------------------------------------------


 k-point  1 :   0.0000 0.0000 0.0000  plane waves:   59547
 k-point  2 :   0.3333-0.0000 0.0000  plane waves:   59529
 k-point  3 :   0.0000 0.3333 0.0000  plane waves:   59566
 k-point  4 :   0.3333 0.3333 0.0000  plane waves:   59594
 k-point  5 :  -0.3333 0.3333 0.0000  plane waves:   59526

 maximum and minimum number of plane-waves per node :      2500     2460

 maximum number of plane-waves:     59594
 maximum index in each direction: 
   IXMAX=   25   IYMAX=   25   IZMAX=   25
   IXMIN=  -25   IYMIN=  -25   IZMIN=  -25


 parallel 3D FFT for wavefunctions:
    minimum data exchange during FFTs selected (reduces bandwidth)
 parallel 3D FFT for charge:
    minimum data exchange during FFTs selected (reduces bandwidth)


 total amount of memory used by VASP MPI-rank0   112477. kBytes
=======================================================================

   base      :      30000. kBytes
   nonl-proj :      13698. kBytes
   fftplans  :       2466. kBytes
   grid      :       7854. kBytes
   one-center:        124. kBytes
   wavefun   :      58335. kBytes
 
     INWAV:  cpu time    0.0000: real time    0.0000
 Broyden mixing: mesh for mixing (old mesh)
   NGX = 51   NGY = 51   NGZ = 51
  (NGX  =160   NGY  =160   NGZ  =160)
  gives a total of 132651 points

 initial charge density was supplied:
 charge density of overlapping atoms calculated
 number of electron     303.0000000 magnetization       2.0000000
 keeping initial charge density in first step


--------------------------------------------------------------------------------------------------------


 BZINTS: Fermi energy:  8.119255;303.000000 electrons
         Band energy:1321.804925;  BLOECHL correction:**********
 Maximum index for augmentation-charges          179 (set IRDMAX)


--------------------------------------------------------------------------------------------------------


 First call to EWALD:  gamma=   0.125
 Maximum number of real-space cells 3x 3x 3
 Maximum number of reciprocal cells 3x 3x 3

    FEWALD:  cpu time    0.0035: real time    0.0037

 ----------------------------------------------------------------------------- 
|                                                                             |
|           W    W    AA    RRRRR   N    N  II  N    N   GGGG   !!!           |
|           W    W   A  A   R    R  NN   N  II  NN   N  G    G  !!!           |
|           W    W  A    A  R    R  N N  N  II  N N  N  G       !!!           |
|           W WW W  AAAAAA  RRRRR   N  N N  II  N  N N  G  GGG   !            |
|           WW  WW  A    A  R   R   N   NN  II  N   NN  G    G                |
|           W    W  A    A  R    R  N    N  II  N    N   GGGG   !!!           |
|                                                                             |
|      ALGO=A and IALGO=5X tend to fail with the tetrahedron method           |
|      (e.g. Bloechls method ISMEAR=-5 is not variational)                    |
|      please switch to IMSEAR=0-n, except for DOS calculations               |
|      For DOS calculations use IALGO=53 after preconverging with ISMEAR>=0   |
|          I HOPE YOU KNOW, WHAT YOU ARE  DOING                               |
|                                                                             |
 ----------------------------------------------------------------------------- 



--------------------------------------- Iteration      1(   1)  ---------------------------------------


    POTLOK:  cpu time    0.0785: real time    0.0827
    SETDIJ:  cpu time    0.0062: real time    0.0067
 BZINTS: Fermi energy:  8.057281;303.000000 electrons
         Band energy:***********;  BLOECHL correction: -0.008350
    TRIAL :  cpu time    6.1303: real time    6.1939
 BZINTS: Fermi energy:  8.057281;303.000000 electrons
         Band energy:***********;  BLOECHL correction: -0.008350
    CORREC:  cpu time    0.1111: real time    0.1112
    --------------------------------------------
      LOOP:  cpu time    6.3456: real time    6.4382

 eigenvalue-minimisations  :  4384
 total energy-change (2. order) : 0.2530942E+04  (-0.1163579E+05)
 number of electron     303.0000000 magnetization       2.0000000
 augmentation part      303.0000000 magnetization       2.0000000

 Free energy of the ion-electron system (eV)
  ---------------------------------------------------
  alpha Z        PSCENC =       167.35502620
  Ewald energy   TEWEN  =     30631.69337856
  -Hartree energ DENC   =    -40301.80308802
  -exchange      EXHF   =         0.00000000
  -V(xc)+E(xc)   XCENC  =      1023.20770120
  PAW double counting   =      9455.23336183    -9546.47664214
  entropy T*S    EENTRO =         0.00000000
  eigenvalues    EBANDS =     -1543.02063022
  atomic energy  EATOM  =     12644.75315347
  ---------------------------------------------------
  free energy    TOTEN  =      2530.94226089 eV

  energy without entropy =     2530.94226089  energy(sigma->0) =     2530.94226089


--------------------------------------------------------------------------------------------------------




--------------------------------------- Iteration      1(   2)  ---------------------------------------


 BZINTS: Fermi energy: -1.604629;303.000000 electrons
         Band energy:***********;  BLOECHL correction: -0.020540
    TRIAL :  cpu time    7.1178: real time    7.1662
 BZINTS: Fermi energy: -1.604629;303.000000 electrons
         Band energy:***********;  BLOECHL correction: -0.020540
    CORREC:  cpu time    0.0114: real time    0.0116
    --------------------------------------------
      LOOP:  cpu time    7.1444: real time    7.1941

 eigenvalue-minimisations  :  5456
 total energy-change (2. order) :-0.2772421E+04  (-0.2646010E+04)
 number of electron     303.0000000 magnetization       2.0000000
 augmentation part      303.0000000 magnetization       2.0000000

 Free energy of the ion-electron system (eV)
  ---------------------------------------------------
  alpha Z        PSCENC =       167.35502620
  Ewald energy   TEWEN  =     30631.69337856
  -Hartree energ DENC   =    -40301.80308802
  -exchange      EXHF   =         0.00000000
  -V(xc)+E(xc)   XCENC  =      1023.20770120
  PAW double counting   =      9455.23336183    -9546.47664214
  entropy T*S    EENTRO =         0.00000000
  eigenvalues    EBANDS =     -4315.44187533
  atomic energy  EATOM  =     12644.75315347
  ---------------------------------------------------
  free energy    TOTEN  =      -241.47898422 eV

  energy without entropy =     -241.47898422  energy(sigma->0) =     -241.47898422


--------------------------------------------------------------------------------------------------------




--------------------------------------- Iteration      1(   3)  ---------------------------------------


 BZINTS: Fermi energy: -4.538406;303.000000 electrons
         Band energy:***********;  BLOECHL correction: -0.046853
    TRIAL :  cpu time    6.2232: real time    6.2670
 BZINTS: Fermi energy: -4.538406;303.000000 electrons
         Band energy:***********;  BLOECHL correction: -0.046853
    CORREC:  cpu time    0.0112: real time    0.0113
    --------------------------------------------
      LOOP:  cpu time    6.2371: real time    6.2820

 eigenvalue-minimisations  :  4576
 total energy-change (2. order) :-0.4598533E+03  (-0.4559366E+03)
 number of electron     303.0000000 magnetization       2.0000000
 augmentation part      303.0000000 magnetization       2.0000000

 Free energy of the ion-electron system (eV)
  ---------------------------------------------------
  alpha Z        PSCENC =       167.35502620
  Ewald energy   TEWEN  =     30631.69337856
  -Hartree energ DENC   =    -40301.80308802
  -exchange      EXHF   =         0.00000000
  -V(xc)+E(xc)   XCENC  =      1023.20770120
  PAW double counting   =      9455.23336183    -9546.47664214
  entropy T*S    EENTRO =         0.00000000
  eigenvalues    EBANDS =     -4775.29519918
  atomic energy  EATOM  =     12644.75315347
  ---------------------------------------------------
  free energy    TOTEN  =      -701.33230807 eV

  energy without entropy =     -701.33230807  energy(sigma->0) =     -701.33230807


--------------------------------------------------------------------------------------------------------




--------------------------------------- Iteration      1(   4)  ---------------------------------------


 BZINTS: Fermi energy: -4.694480;303.000000 electrons
         Band energy:***********;  BLOECHL correction: -0.043427
    TRIAL :  cpu time    6.2369: real time    6.2824
 BZINTS: Fermi energy: -4.694480;303.000000 electrons
         Band energy:***********;  BLOECHL correction: -0.043427
    CORREC:  cpu time    0.0112: real time    0.0116
    --------------------------------------------
      LOOP:  cpu time    6.2492: real time    6.2962

 eigenvalue-minimisations  :  4616
 total energy-change (2. order) :-0.1661227E+02  (-0.1648311E+02)
 number of electron     303.0000000 magnetization       2.0000000
 augmentation part      303.0000000 magnetization       2.0000000

 Free energy of the ion-electron system (eV)
  ---------------------------------------------------
  alpha Z        PSCENC =       167.35502620
  Ewald energy   TEWEN  =     30631.69337856
  -Hartree energ DENC   =    -40301.80308802
  -exchange      EXHF   =         0.00000000
  -V(xc)+E(xc)   XCENC  =      1023.20770120
  PAW double counting   =      9455.23336183    -9546.47664214
  entropy T*S    EENTRO =         0.00000000
  eigenvalues    EBANDS =     -4791.90746751
  atomic energy  EATOM  =     12644.75315347
  ---------------------------------------------------
  free energy    TOTEN  =      -717.94457639 eV

  energy without entropy =     -717.94457639  energy(sigma->0) =     -717.94457639


--------------------------------------------------------------------------------------------------------




--------------------------------------- Iteration      1(   5)  ---------------------------------------


 BZINTS: Fermi energy: -4.702744;303.000000 electrons
         Band energy:***********;  BLOECHL correction: -0.043157
    TRIAL :  cpu time    6.9178: real time    6.9632
 BZINTS: Fermi energy: -4.702744;303.000000 electrons
         Band energy:***********;  BLOECHL correction: -0.043157
    CORREC:  cpu time    0.0099: real time    0.0100
    CHARGE:  cpu time    0.0983: real time    0.0990
    --------------------------------------------
      LOOP:  cpu time    7.0414: real time    7.0883

 eigenvalue-minimisations  :  5312
 total energy-change (2. order) :-0.5432989E+00  (-0.5417541E+00)
 number of electron     302.9999966 magnetization       0.0207585
 augmentation part       12.4346679 magnetization       0.0773349

 Free energy of the ion-electron system (eV)
  ---------------------------------------------------
  alpha Z        PSCENC =       167.35502620
  Ewald energy   TEWEN  =     30631.69337856
  -Hartree energ DENC   =    -40301.80308802
  -exchange      EXHF   =         0.00000000
  -V(xc)+E(xc)   XCENC  =      1023.20770120
  PAW double counting   =      9455.23336183    -9546.47664214
  entropy T*S    EENTRO =         0.00000000
  eigenvalues    EBANDS =     -4792.45076640
  atomic energy  EATOM  =     12644.75315347
  ---------------------------------------------------
  free energy    TOTEN  =      -718.48787529 eV

  energy without entropy =     -718.48787529  energy(sigma->0) =     -718.48787529


--------------------------------------------------------------------------------------------------------




--------------------------------------- Iteration      1(   6)  ---------------------------------------


    POTLOK:  cpu time    0.0792: real time    0.0800
    SETDIJ:  cpu time    0.0055: real time    0.0055
    TRIAL :  cpu time    2.9521: real time    3.7324
 BZINTS: Fermi energy: -5.902663;303.000000 electrons
         Band energy:***********;  BLOECHL correction:  0.000000
 BZINTS: Fermi energy: -4.602800;303.000000 electrons
         Band energy:***********;  BLOECHL correction: -0.036874
    CORREC:  cpu time    0.8303: real time    0.8364
    CHARGE:  cpu time    0.0995: real time    0.1016
    --------------------------------------------
      LOOP:  cpu time    3.9678: real time    4.7583

 eigenvalue-minimisations  :     0
 total energy-change (2. order) : 0.1647206E+03  (-0.2553171E+02)
 number of electron     302.9999969 magnetization       0.5066858
 augmentation part       12.9573658 magnetization       0.2016856

 Free energy of the ion-electron system (eV)
  ---------------------------------------------------
  alpha Z        PSCENC =       167.35502620
  Ewald energy   TEWEN  =     30631.69337856
  -Hartree energ DENC   =    -41901.46154489
  -exchange      EXHF   =         0.00000000
  -V(xc)+E(xc)   XCENC  =      1082.18551851
  PAW double counting   =     29769.35896709   -29861.21227560
  entropy T*S    EENTRO =         0.00000000
  eigenvalues    EBANDS =     -3086.43945261
  atomic energy  EATOM  =     12644.75315347
  ---------------------------------------------------
  free energy    TOTEN  =      -553.76722927 eV

  energy without entropy =     -553.76722927  energy(sigma->0) =     -553.76722927


--------------------------------------------------------------------------------------------------------




--------------------------------------- Iteration      1(   7)  ---------------------------------------


    POTLOK:  cpu time    0.0634: real time    0.0641
    SETDIJ:  cpu time    0.0054: real time    0.0055
    TRIAL :  cpu time    2.9077: real time    2.9218
 BZINTS: Fermi energy: -5.584398;303.000000 electrons
         Band energy:***********;  BLOECHL correction: -0.005581
 BZINTS: Fermi energy: -5.001500;303.000000 electrons
         Band energy:***********;  BLOECHL correction:  0.000000
    CORREC:  cpu time    0.7873: real time    0.7918
    CHARGE:  cpu time    0.0984: real time    0.0987
    --------------------------------------------
      LOOP:  cpu time    3.8633: real time    3.8841

 eigenvalue-minimisations  :     0
 total energy-change (2. order) :-0.5695465E+02  (-0.2341446E+02)
 number of electron     302.9999973 magnetization       1.0000001
 augmentation part       13.5819475 magnetization       0.5057583

 Free energy of the ion-electron system (eV)
  ---------------------------------------------------
  alpha Z        PSCENC =       167.35502620
  Ewald energy   TEWEN  =     30631.69337856
  -Hartree energ DENC   =    -41799.74289004
  -exchange      EXHF   =         0.00000000
  -V(xc)+E(xc)   XCENC  =      1077.73306379
  PAW double counting   =     29892.90774039   -29992.34723332
  entropy T*S    EENTRO =         0.00000000
  eigenvalues    EBANDS =     -3233.07411735
  atomic energy  EATOM  =     12644.75315347
  ---------------------------------------------------
  free energy    TOTEN  =      -610.72187830 eV

  energy without entropy =     -610.72187830  energy(sigma->0) =     -610.72187830


--------------------------------------------------------------------------------------------------------




--------------------------------------- Iteration      1(   8)  ---------------------------------------


    POTLOK:  cpu time    0.0621: real time    0.0641
    SETDIJ:  cpu time    0.0055: real time    0.0055
    TRIAL :  cpu time    2.8210: real time    2.8357
 BZINTS: Fermi energy: -4.934294;303.000000 electrons
         Band energy:***********;  BLOECHL correction: -0.020054
 BZINTS: Fermi energy: -4.973501;303.000000 electrons
         Band energy:***********;  BLOECHL correction: -0.006466
    CORREC:  cpu time    0.7979: real time    0.8015
    CHARGE:  cpu time    0.0965: real time    0.0967
    --------------------------------------------
      LOOP:  cpu time    3.7840: real time    3.8057

 eigenvalue-minimisations  :     0
 total energy-change (2. order) :-0.3519419E+02  (-0.1003625E+02)
 number of electron     302.9999975 magnetization       2.3399199
 augmentation part       14.0580580 magnetization       1.0338379

 Free energy of the ion-electron system (eV)
  ---------------------------------------------------
  alpha Z        PSCENC =       167.35502620
  Ewald energy   TEWEN  =     30631.69337856
  -Hartree energ DENC   =    -41776.21578845
  -exchange      EXHF   =         0.00000000
  -V(xc)+E(xc)   XCENC  =      1075.73455500
  PAW double counting   =     30140.78964026   -30248.32625509
  entropy T*S    EENTRO =         0.00000000
  eigenvalues    EBANDS =     -3281.69978173
  atomic energy  EATOM  =     12644.75315347
  ---------------------------------------------------
  free energy    TOTEN  =      -645.91607178 eV

  energy without entropy =     -645.91607178  energy(sigma->0) =     -645.91607178


--------------------------------------------------------------------------------------------------------




--------------------------------------- Iteration      1(   9)  ---------------------------------------


    POTLOK:  cpu time    0.0629: real time    0.0637
    SETDIJ:  cpu time    0.0057: real time    0.0057
    TRIAL :  cpu time    2.7411: real time    2.7546
 BZINTS: Fermi energy: -4.094866;303.000000 electrons
         Band energy:***********;  BLOECHL correction: -0.003527
 BZINTS: Fermi energy: -4.275003;303.000000 electrons
         Band energy:***********;  BLOECHL correction: -0.003415
    CORREC:  cpu time    0.7971: real time    0.8018
    CHARGE:  cpu time    0.0967: real time    0.0969
    --------------------------------------------
      LOOP:  cpu time    3.7040: real time    3.7249

 eigenvalue-minimisations  :     0
 total energy-change (2. order) :-0.8349571E+01  (-0.6887406E+01)
 number of electron     302.9999975 magnetization       2.7602200
 augmentation part       13.4672814 magnetization       1.0236467

 Free energy of the ion-electron system (eV)
  ---------------------------------------------------
  alpha Z        PSCENC =       167.35502620
  Ewald energy   TEWEN  =     30631.69337856
  -Hartree energ DENC   =    -41763.42503492
  -exchange      EXHF   =         0.00000000
  -V(xc)+E(xc)   XCENC  =      1073.94311249
  PAW double counting   =     30543.01922687   -30655.71220966
  entropy T*S    EENTRO =         0.00000000
  eigenvalues    EBANDS =     -3295.89229577
  atomic energy  EATOM  =     12644.75315347
  ---------------------------------------------------
  free energy    TOTEN  =      -654.26564276 eV

  energy without entropy =     -654.26564276  energy(sigma->0) =     -654.26564276


--------------------------------------------------------------------------------------------------------




--------------------------------------- Iteration      1(  10)  ---------------------------------------


    POTLOK:  cpu time    0.0633: real time    0.0640
    SETDIJ:  cpu time    0.0055: real time    0.0056
    TRIAL :  cpu time    2.7596: real time    2.7812
 BZINTS: Fermi energy: -3.926136;303.000000 electrons
         Band energy:***********;  BLOECHL correction: -0.002563
 BZINTS: Fermi energy: -3.774071;303.000000 electrons
         Band energy:***********;  BLOECHL correction: -0.002374
    CORREC:  cpu time    0.7598: real time    0.7647
    CHARGE:  cpu time    0.1314: real time    0.1318
    --------------------------------------------
      LOOP:  cpu time    3.7202: real time    3.7490

 eigenvalue-minimisations  :     0
 total energy-change (2. order) :-0.6909656E+01  (-0.1306166E+01)
 number of electron     302.9999976 magnetization       2.9516668
 augmentation part       13.4646241 magnetization       1.1052028

 Free energy of the ion-electron system (eV)
  ---------------------------------------------------
  alpha Z        PSCENC =       167.35502620
  Ewald energy   TEWEN  =     30631.69337856
  -Hartree energ DENC   =    -41439.05583142
  -exchange      EXHF   =         0.00000000
  -V(xc)+E(xc)   XCENC  =      1064.27694393
  PAW double counting   =     31015.92046864   -31119.08700935
  entropy T*S    EENTRO =         0.00000000
  eigenvalues    EBANDS =     -3627.03142923
  atomic energy  EATOM  =     12644.75315347
  ---------------------------------------------------
  free energy    TOTEN  =      -661.17529920 eV

  energy without entropy =     -661.17529920  energy(sigma->0) =     -661.17529920


--------------------------------------------------------------------------------------------------------




--------------------------------------- Iteration      1(  11)  ---------------------------------------


    POTLOK:  cpu time    0.0633: real time    0.0638
    SETDIJ:  cpu time    0.0056: real time    0.0056
    TRIAL :  cpu time    2.8409: real time    2.8546
 BZINTS: Fermi energy: -3.392149;303.000000 electrons
         Band energy:***********;  BLOECHL correction: -0.001577
 BZINTS: Fermi energy: -3.408486;303.000000 electrons
         Band energy:***********;  BLOECHL correction: -0.001609
    CORREC:  cpu time    0.8252: real time    0.8306
    CHARGE:  cpu time    0.0959: real time    0.0960
    --------------------------------------------
      LOOP:  cpu time    3.8320: real time    3.8529

 eigenvalue-minimisations  :     0
 total energy-change (2. order) :-0.1346763E+01  (-0.3501646E+00)
 number of electron     302.9999976 magnetization       2.9865498
 augmentation part       13.3699066 magnetization       1.1066694

 Free energy of the ion-electron system (eV)
  ---------------------------------------------------
  alpha Z        PSCENC =       167.35502620
  Ewald energy   TEWEN  =     30631.69337856
  -Hartree energ DENC   =    -41456.49126902
  -exchange      EXHF   =         0.00000000
  -V(xc)+E(xc)   XCENC  =      1064.32227877
  PAW double counting   =     31567.50333416   -31670.14330817
  entropy T*S    EENTRO =         0.00000000
  eigenvalues    EBANDS =     -3611.51465588
  atomic energy  EATOM  =     12644.75315347
  ---------------------------------------------------
  free energy    TOTEN  =      -662.52206191 eV

  energy without entropy =     -662.52206191  energy(sigma->0) =     -662.52206191


--------------------------------------------------------------------------------------------------------




--------------------------------------- Iteration      1(  12)  ---------------------------------------


    POTLOK:  cpu time    0.0624: real time    0.0630
    SETDIJ:  cpu time    0.0055: real time    0.0055
    TRIAL :  cpu time    2.8169: real time    2.8372
 BZINTS: Fermi energy: -3.032102;303.000000 electrons
         Band energy:***********;  BLOECHL correction:  0.000000
 BZINTS: Fermi energy: -3.050568;303.000000 electrons
         Band energy:***********;  BLOECHL correction:  0.000000
    CORREC:  cpu time    0.8156: real time    0.8194
    CHARGE:  cpu time    0.0964: real time    0.0969
    --------------------------------------------
      LOOP:  cpu time    3.7979: real time    3.8243

 eigenvalue-minimisations  :     0
 total energy-change (2. order) :-0.3501106E+00  (-0.1905395E+00)
 number of electron     302.9999976 magnetization       3.0000002
 augmentation part       13.4064158 magnetization       1.1449906

 Free energy of the ion-electron system (eV)
  ---------------------------------------------------
  alpha Z        PSCENC =       167.35502620
  Ewald energy   TEWEN  =     30631.69337856
  -Hartree energ DENC   =    -41454.66265581
  -exchange      EXHF   =         0.00000000
  -V(xc)+E(xc)   XCENC  =      1064.30531318
  PAW double counting   =     31801.78577100   -31902.88804778
  entropy T*S    EENTRO =         0.00000000
  eigenvalues    EBANDS =     -3615.21411130
  atomic energy  EATOM  =     12644.75315347
  ---------------------------------------------------
  free energy    TOTEN  =      -662.87217249 eV

  energy without entropy =     -662.87217249  energy(sigma->0) =     -662.87217249


--------------------------------------------------------------------------------------------------------




--------------------------------------- Iteration      1(  13)  ---------------------------------------


    POTLOK:  cpu time    0.0627: real time    0.0635
    SETDIJ:  cpu time    0.0058: real time    0.0058
    TRIAL :  cpu time    2.8864: real time    2.9004
 BZINTS: Fermi energy: -2.782117;303.000000 electrons
         Band energy:***********;  BLOECHL correction:  0.000000
 BZINTS: Fermi energy: -2.697096;303.000000 electrons
         Band energy:***********;  BLOECHL correction:  0.000000
    CORREC:  cpu time    0.7471: real time    0.7518
    CHARGE:  cpu time    0.1295: real time    0.1297
    --------------------------------------------
      LOOP:  cpu time    3.8320: real time    3.8535

 eigenvalue-minimisations  :     0
 total energy-change (2. order) :-0.1885869E+00  (-0.1019059E+00)
 number of electron     302.9999976 magnetization       3.0000003
 augmentation part       13.3776472 magnetization       1.1617456

 Free energy of the ion-electron system (eV)
  ---------------------------------------------------
  alpha Z        PSCENC =       167.35502620
  Ewald energy   TEWEN  =     30631.69337856
  -Hartree energ DENC   =    -41469.36674485
  -exchange      EXHF   =         0.00000000
  -V(xc)+E(xc)   XCENC  =      1064.70720837
  PAW double counting   =     31978.78840881   -32080.19426009
  entropy T*S    EENTRO =         0.00000000
  eigenvalues    EBANDS =     -3600.79692990
  atomic energy  EATOM  =     12644.75315347
  ---------------------------------------------------
  free energy    TOTEN  =      -663.06075941 eV

  energy without entropy =     -663.06075941  energy(sigma->0) =     -663.06075941


--------------------------------------------------------------------------------------------------------




--------------------------------------- Iteration      1(  14)  ---------------------------------------


    POTLOK:  cpu time    0.0624: real time    0.0633
    SETDIJ:  cpu time    0.0055: real time    0.0055
    TRIAL :  cpu time    2.7355: real time    2.7493
 BZINTS: Fermi energy: -2.477041;303.000000 electrons
         Band energy:***********;  BLOECHL correction:  0.000000
 BZINTS: Fermi energy: -2.377055;303.000000 electrons
         Band energy:***********;  BLOECHL correction:  0.000000
    CORREC:  cpu time    0.7789: real time    0.7828
    CHARGE:  cpu time    0.0970: real time    0.0973
    --------------------------------------------
      LOOP:  cpu time    3.6800: real time    3.7008

 eigenvalue-minimisations  :     0
 total energy-change (2. order) :-0.1026282E+00  (-0.5954831E-01)
 number of electron     302.9999976 magnetization       3.0000003
 augmentation part       13.3691313 magnetization       1.1905735

 Free energy of the ion-electron system (eV)
  ---------------------------------------------------
  alpha Z        PSCENC =       167.35502620
  Ewald energy   TEWEN  =     30631.69337856
  -Hartree energ DENC   =    -41459.36173136
  -exchange      EXHF   =         0.00000000
  -V(xc)+E(xc)   XCENC  =      1064.53213276
  PAW double counting   =     32034.19894829   -32135.33670514
  entropy T*S    EENTRO =         0.00000000
  eigenvalues    EBANDS =     -3610.99759042
  atomic energy  EATOM  =     12644.75315347
  ---------------------------------------------------
  free energy    TOTEN  =      -663.16338764 eV

  energy without entropy =     -663.16338764  energy(sigma->0) =     -663.16338764


--------------------------------------------------------------------------------------------------------




--------------------------------------- Iteration      1(  15)  ---------------------------------------


    POTLOK:  cpu time    0.0624: real time    0.0629
    SETDIJ:  cpu time    0.0055: real time    0.0056
    TRIAL :  cpu time    2.8008: real time    2.8157
 BZINTS: Fermi energy: -2.272029;303.000000 electrons
         Band energy:***********;  BLOECHL correction:  0.000000
 BZINTS: Fermi energy: -2.227018;303.000000 electrons
         Band energy:***********;  BLOECHL correction:  0.000000
    CORREC:  cpu time    0.7786: real time    0.7836
    CHARGE:  cpu time    0.0965: real time    0.0970
    --------------------------------------------
      LOOP:  cpu time    3.7444: real time    3.7670

 eigenvalue-minimisations  :     0
 total energy-change (2. order) :-0.6113836E-01  (-0.2430948E-01)
 number of electron     302.9999976 magnetization       3.0000003
 augmentation part       13.3747303 magnetization       1.2148459

 Free energy of the ion-electron system (eV)
  ---------------------------------------------------
  alpha Z        PSCENC =       167.35502620
  Ewald energy   TEWEN  =     30631.69337856
  -Hartree energ DENC   =    -41454.21223979
  -exchange      EXHF   =         0.00000000
  -V(xc)+E(xc)   XCENC  =      1064.45662535
  PAW double counting   =     32029.14638773   -32130.32729356
  entropy T*S    EENTRO =         0.00000000
  eigenvalues    EBANDS =     -3616.08956396
  atomic energy  EATOM  =     12644.75315347
  ---------------------------------------------------
  free energy    TOTEN  =      -663.22452600 eV

  energy without entropy =     -663.22452600  energy(sigma->0) =     -663.22452600


--------------------------------------------------------------------------------------------------------




--------------------------------------- Iteration      1(  16)  ---------------------------------------


    POTLOK:  cpu time    0.0622: real time    0.0632
    SETDIJ:  cpu time    0.0056: real time    0.0056
    TRIAL :  cpu time    2.8565: real time    2.8719
 BZINTS: Fermi energy: -2.167022;303.000000 electrons
         Band energy:***********;  BLOECHL correction:  0.000000
 BZINTS: Fermi energy: -2.157000;303.000000 electrons
         Band energy:***********;  BLOECHL correction:  0.000000
    CORREC:  cpu time    0.7517: real time    0.7560
    CHARGE:  cpu time    0.0954: real time    0.0957
    --------------------------------------------
      LOOP:  cpu time    3.7723: real time    3.7947

 eigenvalue-minimisations  :     0
 total energy-change (2. order) :-0.2512116E-01  (-0.1012607E-01)
 number of electron     302.9999976 magnetization       3.0000003
 augmentation part       13.3667385 magnetization       1.2263827

 Free energy of the ion-electron system (eV)
  ---------------------------------------------------
  alpha Z        PSCENC =       167.35502620
  Ewald energy   TEWEN  =     30631.69337856
  -Hartree energ DENC   =    -41456.84653214
  -exchange      EXHF   =         0.00000000
  -V(xc)+E(xc)   XCENC  =      1064.55011164
[...]
   0.739E+01 0.446E+02 0.296E+02   -.696E+01 -.431E+02 -.294E+02   -.502E+00 -.164E+01 -.119E+00
   0.868E+01 0.142E+02 0.314E+02   -.202E+00 -.332E+01 -.293E+02   -.858E+01 -.110E+02 -.214E+01
   -.201E+02 0.346E+02 0.301E+02   0.209E+02 -.331E+02 -.303E+02   -.829E+00 -.165E+01 0.202E+00
   -.198E+02 0.451E+02 0.630E+02   0.139E+02 -.408E+02 -.614E+02   0.601E+01 -.418E+01 -.153E+01
   -.140E+02 0.156E+02 0.183E+02   0.139E+02 -.156E+02 -.183E+02   0.764E-01 -.464E-01 -.305E-01
   -.258E+02 0.109E+02 0.230E+02   0.256E+02 -.108E+02 -.231E+02   0.275E+00 -.208E+00 0.133E+00
   -.305E+01 0.576E+01 0.111E+02   0.292E+01 -.581E+01 -.111E+02   0.656E-01 0.151E-02 -.369E-01
   -.654E+01 0.461E+01 0.123E+02   0.646E+01 -.459E+01 -.124E+02   0.978E-01 0.192E-01 0.309E-01
   0.192E+01 0.262E+00 0.113E+02   -.202E+01 -.237E+00 -.113E+02   0.976E-01 -.413E-01 0.539E-02
   0.250E+00 -.121E+01 0.116E+02   -.278E+00 0.122E+01 -.116E+02   0.433E-01 -.309E-01 0.249E-01
   0.176E+02 -.674E+00 0.180E+02   -.179E+02 0.837E+00 -.180E+02   0.259E+00 -.215E+00 0.911E-02
   0.146E+02 -.553E+01 0.143E+02   -.145E+02 0.571E+01 -.142E+02   -.904E-01 -.131E+00 -.923E-01
   0.429E+02 -.104E+01 0.436E+02   -.424E+02 0.132E+01 -.440E+02   -.407E+00 -.341E+00 0.436E+00
   0.404E+02 -.201E+02 0.399E+02   -.393E+02 0.208E+02 -.405E+02   -.108E+01 -.754E+00 0.553E+00
   -.431E+02 0.113E+02 0.430E+02   0.424E+02 -.112E+02 -.437E+02   0.635E+00 -.198E-01 0.700E+00
   -.410E+02 -.160E+02 0.331E+02   0.399E+02 0.168E+02 -.332E+02   0.975E+00 -.685E+00 0.132E+00
   -.135E+02 0.241E+01 0.163E+02   0.133E+02 -.240E+01 -.162E+02   0.939E-01 -.697E-01 -.782E-01
   -.143E+02 -.230E+01 0.182E+02   0.142E+02 0.240E+01 -.182E+02   0.178E+00 -.318E-01 0.431E-01
   -.611E+01 -.472E+01 0.136E+02   0.598E+01 0.470E+01 -.136E+02   0.996E-01 -.129E-01 0.131E-01
   -.413E+01 -.389E+01 0.119E+02   0.405E+01 0.390E+01 -.119E+02   0.517E-01 0.140E-01 -.301E-01
   0.711E+01 -.600E+01 0.115E+02   -.711E+01 0.607E+01 -.115E+02   0.210E-01 -.828E-01 0.173E-01
   0.357E+01 -.457E+01 0.101E+02   -.348E+01 0.465E+01 -.101E+02   -.746E-01 -.484E-01 -.411E-01
   0.220E+02 -.148E+02 0.184E+02   -.217E+02 0.148E+02 -.185E+02   -.354E+00 0.142E-01 0.104E+00
   0.116E+02 -.158E+02 0.152E+02   -.114E+02 0.159E+02 -.152E+02   -.263E+00 -.874E-01 -.419E-01
   0.327E+01 -.531E+02 0.562E+02   0.312E+01 0.495E+02 -.552E+02   -.648E+01 0.356E+01 -.102E+01
   0.501E+01 -.325E+02 0.227E+02   -.469E+01 0.315E+02 -.229E+02   -.305E+00 0.101E+01 0.147E+00
   -.701E+01 -.533E+02 0.194E+02   -.289E-01 0.492E+02 -.180E+02   0.713E+01 0.407E+01 -.142E+01
   -.431E+01 -.342E+02 0.143E+02   0.417E+01 0.329E+02 -.142E+02   0.190E+00 0.128E+01 -.492E-01
   -.224E+02 -.115E+02 0.236E+02   0.220E+02 0.114E+02 -.238E+02   0.452E+00 0.163E+00 0.189E+00
   -.111E+02 -.140E+02 0.171E+02   0.108E+02 0.139E+02 -.169E+02   0.309E+00 0.383E-01 -.127E+00
   -.631E+01 -.405E+01 0.143E+02   0.616E+01 0.390E+01 -.143E+02   0.172E+00 0.137E+00 0.212E-01
   -.311E+01 -.178E+01 0.142E+02   0.309E+01 0.166E+01 -.142E+02   0.775E-01 0.152E+00 -.553E-02
   -.655E+00 -.187E+01 0.110E+02   0.674E+00 0.183E+01 -.111E+02   -.123E-01 0.440E-01 0.363E-01
   -.942E+00 0.250E+01 0.111E+02   0.104E+01 -.260E+01 -.111E+02   -.934E-01 0.803E-01 -.274E-01
   0.415E+01 -.585E+01 0.128E+02   -.407E+01 0.585E+01 -.128E+02   -.131E+00 -.148E-02 0.248E-01
   0.307E+01 -.331E+01 0.133E+02   -.304E+01 0.331E+01 -.133E+02   -.732E-01 0.400E-01 0.828E-02
   0.277E+01 -.165E+02 0.176E+02   -.223E+01 0.162E+02 -.176E+02   -.537E+00 0.247E+00 0.575E-01
   0.435E+01 -.863E+01 0.150E+02   -.426E+01 0.847E+01 -.150E+02   -.691E-01 0.204E+00 0.783E-02
   0.208E+01 -.211E+02 0.107E+02   -.194E+01 0.203E+02 -.103E+02   -.158E+00 0.834E+00 -.399E+00
   0.952E+00 -.133E+02 0.138E+02   -.986E+00 0.128E+02 -.139E+02   0.524E-01 0.492E+00 0.433E-01
   -.321E+01 -.146E+02 0.195E+02   0.262E+01 0.142E+02 -.196E+02   0.562E+00 0.404E+00 0.128E+00
   -.261E+01 -.963E+01 0.176E+02   0.248E+01 0.936E+01 -.176E+02   0.131E+00 0.320E+00 0.534E-01
   -.167E+02 -.591E+02 -.371E+03   0.165E+02 0.592E+02 0.363E+03   0.201E+00 -.765E-01 0.731E+01
   -.114E+02 -.172E+02 -.246E+03   0.132E+02 0.203E+02 0.226E+03   -.180E+01 -.313E+01 0.198E+02
   0.222E+02 0.388E+02 -.656E+03   -.273E+02 -.476E+02 0.714E+03   0.508E+01 0.877E+01 -.582E+02
 -----------------------------------------------------------------------------------------------
   -.287E+01 -.622E+01 0.344E+02   0.853E-13 -.405E-12 -.682E-12   0.288E+01 0.623E+01 -.344E+02
 
 
 POSITION                                       TOTAL-FORCE (eV/Angst)
 -----------------------------------------------------------------------------------
      0.00714      0.00501      7.33981        -0.025132     -0.004714      0.006822
      0.00192      1.42652      7.34001         0.013719      0.002745      0.009572
      2.48399      0.03056      7.34924        -0.042480     -0.048537     -0.002994
      2.47900      1.44626      7.37033        -0.004599      0.045197      0.000908
      4.94928      0.03745      7.35136         0.042503     -0.045688      0.005251
      4.94446      1.46225      7.37154         0.013226      0.048219      0.006336
      0.00254     12.75099      7.34983        -0.005785      0.002590      0.014870
      7.42329      1.43409      7.34823         0.007528      0.003855      0.015435
      2.47763     12.73062      7.36316        -0.023706     -0.059341      0.011213
      9.90175      1.40932      7.34467        -0.050630      0.060053     -0.001585
      4.95088     12.73694      7.36341         0.009859     -0.075639      0.002759
     12.37201      1.41298      7.34527         0.066583      0.067628     -0.012615
     13.60965      2.13313      7.34232        -0.045402     -0.036054      0.002446
     -1.24520      3.52276      7.35344        -0.051277      0.048075     -0.013907
      1.24245      2.14847      7.36203         0.013574     -0.053402      0.009306
      1.23493      3.56207      7.39759         0.023083      0.074790      0.002535
      3.70166      2.18523      7.40045        -0.007868     -0.037209      0.014828
      3.69146      3.60477      7.46755         0.041408      0.018664      0.004328
      6.18327      2.16093      7.36946        -0.031625     -0.054511      0.011029
      6.17296      3.58184      7.40073        -0.005406      0.062078     -0.001252
      8.66405      2.12866      7.34485         0.030315     -0.052202      0.005930
      8.66307      3.54773      7.35447         0.040212      0.055624     -0.005593
     11.13693      2.12221      7.34348        -0.011884     -0.007677      0.001407
     11.13617      3.54340      7.34462         0.021040      0.018921      0.001723
     12.37039      4.25604      7.35052         0.047209     -0.051193     -0.012496
     -2.48858      5.65360      7.35608         0.017189      0.037402     -0.016230
     -0.01058      4.24081      7.37982         0.026778      0.011043      0.007317
     -0.04081      5.65551      7.39320        -0.038031     -0.018789      0.006607
      2.44894      4.30081      7.49296        -0.069989     -0.045111     -0.004674
      2.42106      5.68425      7.62063        -0.081238     -0.006904     -0.012596
      4.92697      4.33207      7.47070        -0.038131     -0.068794     -0.013279
      4.98843      5.74539      7.55995         0.041886      0.048357      0.031826
      7.42842      4.26369      7.38268        -0.013497      0.001698      0.009374
      7.45812      5.68298      7.40092         0.051606     -0.042618      0.015656
      9.90299      4.25640      7.35124        -0.059005     -0.046501     -0.019006
      9.91144      5.67790      7.35585         0.005966      0.036927     -0.011666
     11.13994      6.39193      7.35328        -0.009507     -0.019083     -0.004408
     -3.70702      7.79081      7.35317         0.014613     -0.015062     -0.009539
     -1.26610      6.36804      7.37268        -0.017885     -0.054221     -0.002254
     -1.25761      7.78790      7.38309        -0.017288      0.049172      0.001309
      1.17937      6.34129      7.47491         0.079344     -0.070491      0.008957
      1.19545      7.77994      7.47546         0.055746      0.051684     -0.011571
      6.24440      6.39425      7.46750        -0.083542      0.002881     -0.006039
      6.25448      7.82655      7.49223        -0.046133      0.068999     -0.000528
      8.69037      6.39403      7.37282        -0.007497     -0.064658      0.003853
      8.69728      7.81402      7.36851         0.040216      0.068176      0.001111
     -4.93183      8.50553      7.35233        -0.034263     -0.031353     -0.006159
     -4.93529      9.92779      7.34933        -0.027893      0.025058     -0.008383
     -2.47941      8.50420      7.36179         0.014915     -0.018956     -0.013125
     -2.47238      9.92760      7.35755         0.022122      0.024919     -0.018773
     -0.02511      8.49462      7.41591        -0.004210      0.025294      0.007198
     -0.00404      9.91551      7.39336         0.009948     -0.008796      0.011713
      2.44376      8.43324      7.55882        -0.079051     -0.080858     -0.008455
      2.48387      9.85315      7.47580         0.026330      0.047286      0.002143
      5.01581      8.48350      7.63856         0.076254     -0.023491      0.024256
      4.97333      9.88532      7.50235         0.028482      0.041220      0.004176
      7.47282      8.52819      7.40118         0.006238      0.035132     -0.011404
      7.45210      9.94532      7.38358         0.023820     -0.012471      0.007706
     -6.17098     10.63600      7.35276         0.018982     -0.013865     -0.006585
     -6.17800     12.05351      7.34318         0.056671      0.032167     -0.000977
     -3.70389     10.64108      7.34764         0.006590      0.006678     -0.000496
     -3.70623     12.06343      7.34829         0.004953     -0.021742      0.007182
     -1.23720     10.63550      7.36212        -0.056241     -0.002470     -0.003439
     -1.23925     12.05679      7.35016        -0.042113      0.031379      0.010346
      1.24525     10.59804      7.40523        -0.002518     -0.042802      0.008846
      1.24000     12.02476      7.36781         0.032492      0.045265      0.006051
      3.72172     10.58891      7.46905        -0.014975     -0.011315      0.013298
      3.71515     12.00791      7.39165         0.017461      0.028344      0.020358
      6.20424     10.62717      7.40094        -0.032702     -0.045899      0.006427
      6.19731     12.04593      7.35913        -0.013838      0.044688      0.014115
      3.73711      7.07835      8.27874         0.035228      0.022719     -0.193974
      3.59901      6.80519     10.22102         0.026501      0.008286      0.134710
      3.49723      6.63068     11.36565        -0.015249     -0.010796     -0.057234
 -----------------------------------------------------------------------------------
    total drift:                                0.003499      0.007981      0.035053


--------------------------------------------------------------------------------------------------------



  FREE ENERGIE OF THE ION-ELECTRON SYSTEM (eV)
  ---------------------------------------------------
  free  energy   TOTEN  =      -669.82868915 eV

  energy  without entropy=     -669.82868915  energy(sigma->0) =     -669.82868915
 


--------------------------------------------------------------------------------------------------------


    POTLOK:  cpu time    0.0747: real time    0.0748


--------------------------------------------------------------------------------------------------------


 stress matrix after NEB project (eV)
     -1.93492      2.65222      0.03149
      2.65222     -1.03759     -0.01983
      0.03149     -0.01983     -3.60341
  FORCES: max atom, RMS     0.198452    0.063593
  FORCE total and by dimension    0.543342    0.193974
  Stress total and by dimension    5.645920    3.603412
     LOOP+:  cpu time  115.4541: real time  116.9947
    4ORBIT:  cpu time    0.0000: real time    0.0000
 


 total charge     
 
# of ion       s       p       d       tot
------------------------------------------
    1        0.865   1.784   0.000   2.648
    2        0.864   1.784   0.000   2.647
    3        0.865   1.789   0.000   2.654
    4        0.865   1.790   0.000   2.655
    5        0.863   1.781   0.000   2.644
    6        0.862   1.780   0.000   2.642
    7        0.864   1.778   0.000   2.642
    8        0.863   1.779   0.000   2.642
    9        0.864   1.782   0.000   2.646
   10        0.864   1.783   0.000   2.647
   11        0.864   1.783   0.000   2.647
   12        0.865   1.786   0.000   2.650
   13        0.866   1.792   0.000   2.658
   14        0.865   1.790   0.000   2.655
   15        0.863   1.792   0.000   2.655
   16        0.854   1.749   0.000   2.603
   17        0.861   1.778   0.000   2.638
   18        0.850   1.736   0.000   2.586
   19        0.864   1.780   0.000   2.644
   20        0.861   1.763   0.000   2.623
   21        0.865   1.787   0.000   2.652
   22        0.865   1.785   0.000   2.650
   23        0.865   1.787   0.000   2.652
   24        0.865   1.787   0.000   2.652
   25        0.864   1.788   0.000   2.653
   26        0.868   1.797   0.000   2.665
   27        0.865   1.799   0.000   2.664
   28        0.874   1.807   0.000   2.681
   29        1.213   2.680   0.000   3.893
   30        0.873   1.644   0.000   2.517
   31        0.858   1.757   0.000   2.615
   32        0.876   1.681   0.000   2.558
   33        0.865   1.783   0.000   2.648
   34        0.871   1.800   0.000   2.671
   35        0.865   1.787   0.000   2.651
   36        0.868   1.795   0.000   2.663
   37        0.867   1.796   0.000   2.663
   38        0.868   1.794   0.000   2.661
   39        0.868   1.803   0.000   2.671
   40        0.869   1.794   0.000   2.663
   41        0.875   1.797   0.000   2.672
   42        0.874   1.778   0.000   2.652
   43        0.876   1.784   0.000   2.660
   44        0.876   1.791   0.000   2.667
   45        0.868   1.797   0.000   2.664
   46        0.869   1.797   0.000   2.666
   47        0.868   1.797   0.000   2.665
   48        0.866   1.788   0.000   2.654
   49        0.867   1.796   0.000   2.663
   50        0.865   1.789   0.000   2.654
   51        0.869   1.796   0.000   2.665
   52        0.866   1.786   0.000   2.651
   53        0.874   1.673   0.000   2.547
   54        0.860   1.750   0.000   2.610
   55        0.879   1.690   0.000   2.568
   56        0.864   1.768   0.000   2.632
   57        0.872   1.805   0.000   2.677
   58        0.867   1.794   0.000   2.662
   59        0.867   1.792   0.000   2.658
   60        0.866   1.789   0.000   2.655
   61        0.866   1.789   0.000   2.654
   62        0.865   1.789   0.000   2.655
   63        0.865   1.786   0.000   2.651
   64        0.864   1.784   0.000   2.648
   65        0.863   1.767   0.000   2.630
   66        0.863   1.777   0.000   2.640
   67        0.865   1.765   0.000   2.630
   68        0.863   1.774   0.000   2.637
   69        0.865   1.778   0.000   2.644
   70        0.865   1.783   0.000   2.647
   71        0.406   6.431   4.243  11.080
   72        0.986   1.538   0.000   2.524
   73        1.629   3.520   0.000   5.149
--------------------------------------------------
tot         63.993 136.867   4.243 205.103
 


 magnetization (x)
 
# of ion       s       p       d       tot
------------------------------------------
    1        0.000   0.004   0.000   0.004
    2       -0.000  -0.001   0.000  -0.002
    3        0.000   0.002   0.000   0.002
    4        0.000   0.002   0.000   0.002
    5        0.000   0.002   0.000   0.002
    6       -0.000  -0.000   0.000  -0.000
    7        0.000   0.003   0.000   0.004
    8       -0.000  -0.001   0.000  -0.001
    9        0.000   0.006   0.000   0.006
   10       -0.000  -0.002   0.000  -0.002
   11        0.000   0.007   0.000   0.007
   12       -0.000  -0.002   0.000  -0.002
   13        0.000   0.003   0.000   0.004
   14       -0.000  -0.003   0.000  -0.003
   15        0.000   0.005   0.000   0.005
   16       -0.000  -0.002   0.000  -0.002
   17        0.000   0.006   0.000   0.006
   18        0.000   0.005   0.000   0.005
   19        0.000   0.003   0.000   0.003
   20       -0.001  -0.005   0.000  -0.005
   21        0.000   0.003   0.000   0.004
   22       -0.000  -0.001   0.000  -0.002
   23        0.001   0.010   0.000   0.011
   24       -0.000  -0.004   0.000  -0.004
   25        0.001   0.013   0.000   0.014
   26       -0.000  -0.001   0.000  -0.001
   27        0.001   0.013   0.000   0.014
   28       -0.000  -0.006   0.000  -0.006
   29        0.001   0.013   0.000   0.014
   30       -0.008  -0.021   0.000  -0.028
   31        0.001   0.006   0.000   0.007
   32       -0.011  -0.041   0.000  -0.052
   33        0.001   0.011   0.000   0.011
   34       -0.001  -0.006   0.000  -0.007
   35        0.001   0.011   0.000   0.012
   36       -0.000  -0.001   0.000  -0.002
   37        0.000   0.002   0.000   0.002
   38       -0.000  -0.002   0.000  -0.002
   39        0.001   0.008   0.000   0.009
   40        0.000   0.001   0.000   0.001
   41        0.004   0.033   0.000   0.037
   42        0.003   0.018   0.000   0.021
   43        0.003   0.028   0.000   0.031
   44        0.002   0.028   0.000   0.031
   45        0.000   0.007   0.000   0.008
   46        0.000   0.006   0.000   0.006
   47        0.000   0.002   0.000   0.002
   48        0.000   0.009   0.000   0.009
   49        0.000   0.003   0.000   0.003
   50        0.000   0.006   0.000   0.006
   51       -0.000  -0.001   0.000  -0.001
   52        0.000   0.006   0.000   0.006
   53       -0.008  -0.023   0.000  -0.032
   54       -0.000   0.000   0.000   0.000
   55       -0.003   0.012   0.000   0.009
   56        0.001   0.005   0.000   0.006
   57       -0.000  -0.001   0.000  -0.001
   58        0.000   0.008   0.000   0.009
   59       -0.000   0.002   0.000   0.002
   60       -0.000  -0.000   0.000  -0.000
   61       -0.000   0.001   0.000   0.001
   62        0.000   0.005   0.000   0.005
   63        0.000   0.002   0.000   0.002
   64       -0.000   0.000   0.000   0.000
   65       -0.000   0.000   0.000  -0.000
   66       -0.000  -0.000   0.000  -0.001
   67        0.001   0.013   0.000   0.014
   68       -0.000  -0.000   0.000  -0.001
   69        0.000   0.002   0.000   0.002
   70       -0.000  -0.001   0.000  -0.001
   71        0.020   0.060   1.875   1.955
   72       -0.003   0.066   0.000   0.063
   73        0.002   0.094   0.000   0.096
--------------------------------------------------
tot          0.008   0.434   1.875   2.316
 
 BZINTS: Fermi energy: -2.222016;303.000000 electrons
         Band energy:***********;  BLOECHL correction:  0.000000

 total amount of memory used by VASP MPI-rank0   112477. kBytes
=======================================================================

   base      :      30000. kBytes
   nonl-proj :      13698. kBytes
   fftplans  :       2466. kBytes
   grid      :       7854. kBytes
   one-center:        124. kBytes
   wavefun   :      58335. kBytes
 
  
  
 General timing and accounting informations for this job:
 ========================================================
  
                  Total CPU time used (sec):      132.251
                            User time (sec):      128.919
                          System time (sec):        3.332
                         Elapsed time (sec):      137.381
  
                   Maximum memory used (kb):      381524.
                   Average memory used (kb):           0.
  
                          Minor page faults:       234654
                          Major page faults:            0
                 Voluntary context switches:         5189
