 vasp.5.4.4.18Apr17-6-g9f103f2a35 (build Oct 04 2021 15:34:47) complex          
  
 executed on             LinuxIFC date 2023.04.04  15:04:16
 running on   56 total cores
 distrk:  each k-point on   56 cores,    1 groups
 distr:  one band on NCORES_PER_BAND=  14 cores,    4 groups


--------------------------------------------------------------------------------------------------------


 INCAR:
 POTCAR:    PAW_PBE C 08Apr2002                   
 POTCAR:    PAW_PBE Cr_pv 02Aug2007               
 POTCAR:    PAW_PBE C 08Apr2002                   
   SHA256 =  253f7b50bb8d59471dbedb8285d89021f4a42ed1a2c5d38a03a736e69125dd95 C/
   COPYR  = (c) Copyright 08Apr2002 Georg Kresse                                
   COPYR  = This file is part of the software VASP. Any use, copying, and all ot
   COPYR  = If you do not have a valid VASP license, you may not use, copy or di
   VRHFIN =C: s2p2                                                              
   LEXCH  = PE                                                                  
   EATOM  =   147.1560 eV,   10.8157 Ry                                         
                                                                                
   TITEL  = PAW_PBE C 08Apr2002                                                 
   LULTRA =        F    use ultrasoft PP ?                                      
   IUNSCR =        1    unscreen: 0-lin 1-nonlin 2-no                           
   RPACOR =    1.200    partial core radius                                     
   POMASS =   12.011; ZVAL   =    4.000    mass and valenz                      
   RCORE  =    1.500    outmost cutoff radius                                   
   RWIGS  =    1.630; RWIGS  =    0.863    wigner-seitz radius (au A)           
   ENMAX  =  400.000; ENMIN  =  300.000 eV                                      
   ICORE  =        2    local potential                                         
   LCOR   =        T    correct aug charges                                     
   LPAW   =        T    paw PP                                                  
   EAUG   =  644.873                                                            
   DEXC   =    0.000                                                            
   RMAX   =    1.529    core radius for proj-oper                               
   RAUG   =    1.300    factor for augmentation sphere                          
   RDEP   =    1.501    radius for radial grids                                 
   RDEPT  =    1.300    core radius for aug-charge                              
                                                                                
   Atomic configuration                                                         
    4 entries                                                                   
     n  l   j            E        occ.                                          
     1  0  0.50      -273.3789   2.0000                                         
     2  0  0.50       -13.7508   2.0000                                         
     2  1  0.50        -5.2854   2.0000                                         
     3  2  1.50        -5.4423   0.0000                                         
   Description                                                                  
     l       E           TYP  RCUT    TYP  RCUT                                 
     0    -13.7508458     23  1.200                                             
     0     -8.2022199     23  1.200                                             
     1     -5.2854383     23  1.500                                             
     1     34.0145650     23  1.500                                             
     2     -5.4423304      7  1.500                                             
  local pseudopotential read in
  partial core-charges read in
  partial kinetic energy density read in
  atomic valenz-charges read in
  non local Contribution for L=           0  read in
    real space projection operators read in
  non local Contribution for L=           0  read in
    real space projection operators read in
  non local Contribution for L=           1  read in
    real space projection operators read in
  non local Contribution for L=           1  read in
    real space projection operators read in
    PAW grid and wavefunctions read in
 
   number of l-projection  operators is LMAX  =           4
   number of lm-projection operators is LMMAX =           8
 
 POTCAR:    PAW_PBE Cr_pv 02Aug2007               
   SHA256 =  c9a7df34d3cdbacf1090e328ef39c0b420964e11c23f63548d1ac9dd218cdba0 Cr
   COPYR  = (c) Copyright 02Aug2007 Georg Kresse                                
   COPYR  = This file is part of the software VASP. Any use, copying, and all ot
   COPYR  = If you do not have a valid VASP license, you may not use, copy or di
   VRHFIN =Cr : p6d5s1                                                          
   LEXCH  = PE                                                                  
   EATOM  =  1647.9177 eV,  121.1185 Ry                                         
                                                                                
   TITEL  = PAW_PBE Cr_pv 02Aug2007                                             
   LULTRA =        F    use ultrasoft PP ?                                      
   IUNSCR =        1    unscreen: 0-lin 1-nonlin 2-no                           
   RPACOR =    2.080    partial core radius                                     
   POMASS =   51.996; ZVAL   =   12.000    mass and valenz                      
   RCORE  =    2.300    outmost cutoff radius                                   
   RWIGS  =    2.500; RWIGS  =    1.323    wigner-seitz radius (au A)           
   ENMAX  =  265.681; ENMIN  =  199.261 eV                                      
   ICORE  =        3    local potential                                         
   LCOR   =        T    correct aug charges                                     
   LPAW   =        T    paw PP                                                  
   EAUG   =  519.424                                                            
   DEXC   =    0.000                                                            
   RMAX   =    2.356    core radius for proj-oper                               
   RAUG   =    1.300    factor for augmentation sphere                          
   RDEP   =    2.447    radius for radial grids                                 
   RDEPT  =    1.882    core radius for aug-charge                              
                                                                                
   Atomic configuration                                                         
    8 entries                                                                   
     n  l   j            E        occ.                                          
     1  0  0.50     -5880.4963   2.0000                                         
     2  0  0.50      -667.0865   2.0000                                         
     2  1  1.50      -560.6250   6.0000                                         
     3  0  0.50       -73.9860   2.0000                                         
     3  1  1.50       -45.4378   6.0000                                         
     3  2  2.50        -2.9137   5.0000                                         
     4  0  0.50        -4.0071   1.0000                                         
     4  3  2.50        -1.3606   0.0000                                         
   Description                                                                  
     l       E           TYP  RCUT    TYP  RCUT                                 
     1    -45.4377911     23  2.000                                             
     1      1.3605826     23  2.000                                             
     2     -2.9136672     23  2.300                                             
     2     -4.2742498     23  2.300                                             
     0     -4.0071320     23  2.300                                             
     0      9.4498803     23  2.300                                             
     3      2.7211652     23  2.300                                             
  local pseudopotential read in
  partial core-charges read in
  partial kinetic energy density read in
  atomic valenz-charges read in
  non local Contribution for L=           1  read in
    real space projection operators read in
  non local Contribution for L=           1  read in
    real space projection operators read in
  non local Contribution for L=           2  read in
    real space projection operators read in
  non local Contribution for L=           2  read in
    real space projection operators read in
  non local Contribution for L=           0  read in
    real space projection operators read in
  non local Contribution for L=           0  read in
    real space projection operators read in
    PAW grid and wavefunctions read in
 
   number of l-projection  operators is LMAX  =           6
   number of lm-projection operators is LMMAX =          18
 

 ----------------------------------------------------------------------------- 
|                                                                             |
|  ADVICE TO THIS USER RUNNING 'VASP/VAMP'   (HEAR YOUR MASTER'S VOICE ...):  |
|                                                                             |
|      You have a (more or less) 'large supercell' and for larger cells       |
|      it might be more efficient to use real space projection opertators     |
|      So try LREAL= Auto  in the INCAR   file.                               |
|      Mind:          For very  accurate calculation you might also keep the  |
|      reciprocal projection scheme          (i.e. LREAL=.FALSE.)             |
|                                                                             |
 ----------------------------------------------------------------------------- 

  PAW_PBE C 08Apr2002                   :
 energy of atom  1       EATOM= -147.1560
 kinetic energy error for atom=    0.0132 (will be added to EATOM!!)
  PAW_PBE Cr_pv 02Aug2007               :
 energy of atom  2       EATOM=-1647.9177
 kinetic energy error for atom=    0.0134 (will be added to EATOM!!)
 
 
 POSCAR: POSCAR-clean                            
  positions in cartesian coordinates
  No initial velocities read in
 exchange correlation table for  LEXCH =        8
   RHO(1)=    0.500       N(1)  =     2000
   RHO(2)=  100.500       N(2)  =     4000
 


--------------------------------------------------------------------------------------------------------


 ion  position               nearest neighbor table
   1  0.000  1.000  0.498-   2 1.42  60 1.42  70 1.43
   2  0.056  0.111  0.498-   1 1.42  13 1.42  15 1.43
   3  0.168  0.002  0.498-   4 1.42  62 1.43  60 1.43
   4  0.224  0.113  0.498-   3 1.42  15 1.42  17 1.44
   5  0.334  0.002  0.498-   6 1.42  62 1.43  64 1.43
   6  0.390  0.113  0.498-   5 1.42  19 1.42  17 1.44
   7  0.500  1.000  0.498-   8 1.42  64 1.42  66 1.43
   8  0.556  0.111  0.498-   7 1.42  21 1.42  19 1.43
   9  0.666  0.998  0.498-  10 1.42  66 1.42  68 1.44
  10  0.722  0.109  0.498-   9 1.42  23 1.43  21 1.43
  11  0.832  0.998  0.498-  12 1.42  70 1.42  68 1.44
  12  0.888  0.109  0.498-  11 1.42  23 1.43  13 1.43
  13  0.999  0.165  0.498-  14 1.42   2 1.42  12 1.43
  14  0.054  0.277  0.499-  13 1.42  25 1.42  27 1.43
  15  0.167  0.168  0.498-  16 1.42   4 1.42   2 1.43
  16  0.223  0.280  0.500-  15 1.42  27 1.43  29 1.44
  17  0.335  0.170  0.499-  18 1.42   4 1.44   6 1.44
  18  0.391  0.281  0.503-  17 1.42  31 1.44  29 1.44
  19  0.501  0.168  0.498-  20 1.42   6 1.42   8 1.43
  20  0.557  0.280  0.500-  19 1.42  33 1.43  31 1.44
  21  0.667  0.165  0.498-  22 1.42   8 1.42  10 1.43
  22  0.723  0.277  0.498-  21 1.42  35 1.42  33 1.43
  23  0.833  0.165  0.498-  24 1.42  10 1.43  12 1.43
  24  0.888  0.276  0.498-  23 1.42  25 1.42  35 1.43
  25  0.999  0.332  0.498-  14 1.42  26 1.42  24 1.42
  26  0.054  0.444  0.499-  39 1.42  37 1.42  25 1.42
  27  0.165  0.333  0.500-  28 1.42  16 1.43  14 1.43
  28  0.219  0.444  0.502-  41 1.41  27 1.42  39 1.42
  29  0.335  0.338  0.503-  30 1.41  18 1.44  16 1.44
  30  0.387  0.448  0.510-  41 1.41  29 1.41  71 2.00
  31  0.503  0.338  0.504-  32 1.41  18 1.44  20 1.44
  32  0.562  0.448  0.510-  43 1.41  31 1.41  71 2.00
  33  0.668  0.333  0.500-  34 1.42  20 1.43  22 1.43
  34  0.725  0.444  0.501-  43 1.41  33 1.42  45 1.42
  35  0.833  0.332  0.498-  22 1.42  36 1.42  24 1.43
  36  0.890  0.444  0.498-  45 1.42  37 1.42  35 1.42
  37  0.000  0.500  0.498-  36 1.42  26 1.42  38 1.42
  38  0.056  0.611  0.498-  47 1.42  49 1.42  37 1.42
  39  0.165  0.500  0.500-  26 1.42  28 1.42  40 1.42
  40  0.220  0.611  0.500-  49 1.42  51 1.42  39 1.42
  41  0.329  0.499  0.505-  30 1.41  28 1.41  42 1.44
  42  0.385  0.612  0.505-  53 1.41  51 1.41  41 1.44
  43  0.671  0.499  0.505-  32 1.41  34 1.41  44 1.44
  44  0.727  0.612  0.505-  55 1.41  57 1.41  43 1.44
  45  0.836  0.500  0.499-  36 1.42  34 1.42  46 1.42
  46  0.891  0.611  0.499-  47 1.42  57 1.42  45 1.42
  47  0.001  0.667  0.498-  46 1.42  38 1.42  48 1.42
  48  0.057  0.779  0.498-  59 1.42  47 1.42  61 1.43
  49  0.166  0.667  0.499-  40 1.42  38 1.42  50 1.42
  50  0.222  0.779  0.498-  63 1.42  49 1.42  61 1.42
  51  0.331  0.667  0.502-  42 1.41  52 1.42  40 1.42
  52  0.388  0.778  0.500-  51 1.42  65 1.43  63 1.43
  53  0.494  0.663  0.510-  42 1.41  54 1.41  71 2.00
  54  0.553  0.773  0.503-  53 1.41  67 1.44  65 1.44
  55  0.669  0.663  0.510-  44 1.41  56 1.41  71 2.00
  56  0.721  0.773  0.504-  55 1.41  67 1.44  69 1.44
  57  0.837  0.667  0.501-  44 1.41  58 1.42  46 1.42
  58  0.891  0.778  0.500-  57 1.42  69 1.42  59 1.43
  59  0.002  0.835  0.498-  60 1.42  48 1.42  58 1.43
  60  0.057  0.946  0.498-  59 1.42   1 1.42   3 1.43
  61  0.168  0.835  0.498-  62 1.42  50 1.42  48 1.43
  62  0.223  0.946  0.498-  61 1.42   3 1.43   5 1.43
  63  0.333  0.835  0.499-  64 1.42  50 1.42  52 1.43
  64  0.389  0.946  0.498-  63 1.42   7 1.42   5 1.43
  65  0.499  0.832  0.500-  66 1.42  52 1.43  54 1.44
  66  0.555  0.943  0.498-  65 1.42   9 1.42   7 1.43
  67  0.665  0.830  0.503-  68 1.42  56 1.44  54 1.44
  68  0.721  0.941  0.499-  67 1.42   9 1.44  11 1.44
  69  0.833  0.832  0.500-  70 1.42  58 1.42  56 1.44
  70  0.889  0.943  0.498-  69 1.42  11 1.42   1 1.43
  71  0.528  0.556  0.554-  55 2.00  32 2.00  53 2.00  30 2.00
 

IMPORTANT INFORMATION: All symmetrisations will be switched off!
NOSYMM: (Re-)initialisation of all symmetry stuff for point group C_1.

 
 
 KPOINTS: K-Points                                

Automatic generation of k-mesh.
Space group operators:
 irot       det(A)        alpha          n_x          n_y          n_z        tau_x        tau_y        tau_z
    1     1.000000     0.000000     1.000000     0.000000     0.000000     0.000000     0.000000     0.000000
 
 Subroutine IBZKPT returns following result:
 ===========================================
 
 Found      5 irreducible k-points:
 
 Following reciprocal coordinates:
            Coordinates               Weight
  0.000000  0.000000  0.000000      1.000000
  0.333333  0.000000  0.000000      2.000000
  0.000000  0.333333  0.000000      2.000000
  0.333333  0.333333  0.000000      2.000000
 -0.333333  0.333333  0.000000      2.000000
 
 Following cartesian coordinates:
            Coordinates               Weight
  0.000000  0.000000  0.000000      1.000000
  0.022404  0.013059  0.000000      2.000000
 -0.000000  0.026119  0.000000      2.000000
  0.022404  0.039178  0.000000      2.000000
 -0.022404  0.013059  0.000000      2.000000
 
 TETIRR: Found     24 inequivalent tetrahedra from       54


--------------------------------------------------------------------------------------------------------




 Dimension of arrays:
   k-points           NKPTS =      5   k-points in BZ     NKDIM =      5   number of bands    NBANDS=    184
   number of dos      NEDOS =   4000   number of ions     NIONS =     71
   non local maximal  LDIM  =      6   non local SUM 2l+1 LMDIM =     18
   total plane-waves  NPLWV = 512000
   max r-space proj   IRMAX =      1   max aug-charges    IRDMAX=   6454
   dimension x,y,z NGX =    80 NGY =   80 NGZ =   80
   dimension x,y,z NGXF=   160 NGYF=  160 NGZF=  160
   support grid    NGXF=   160 NGYF=  160 NGZF=  160
   ions per type =              70   1
   NGX,Y,Z   is equivalent  to a cutoff of   8.94,  9.00,  8.87 a.u.
   NGXF,Y,Z  is equivalent  to a cutoff of  17.88, 18.01, 17.73 a.u.

 SYSTEM =  unknown system                          
 POSCAR =  POSCAR-clean                            

 Startparameter for this run:
   NWRITE =      2    write-flag & timer
   PREC   = normal    normal or accurate (medium, high low for compatibility)
   ISTART =      0    job   : 0-new  1-cont  2-samecut
   ICHARG =      2    charge: 1-file 2-atom 10-const
   ISPIN  =      2    spin polarized calculation?
   LNONCOLLINEAR =      F non collinear calculations
   LSORBIT =      F    spin-orbit coupling
   INIWAV =      1    electr: 0-lowe 1-rand  2-diag
   LASPH  =      F    aspherical Exc in radial PAW
   METAGGA=      F    non-selfconsistent MetaGGA calc.

 Electronic Relaxation 1
   ENCUT  =  440.0 eV  32.34 Ry    5.69 a.u.  25.45 25.27 25.66*2*pi/ulx,y,z
   ENINI  =  440.0     initial cutoff
   ENAUG  =  644.9 eV  augmentation charge cutoff
   NELM   =    100;   NELMIN=  2; NELMDL= -5     # of ELM steps 
   EDIFF  = 0.1E-03   stopping-criterion for ELM
   LREAL  =      F    real-space projection
   NLSPLINE    = F    spline interpolate recip. space projectors
   LCOMPAT=      F    compatible to vasp.4.4
   GGA_COMPAT  = T    GGA compatible to vasp.4.4-vasp.4.6
   LMAXPAW     = -100 max onsite density
   LMAXMIX     =    2 max onsite mixed and CHGCAR
   VOSKOWN=      0    Vosko Wilk Nusair interpolation
   ROPT   =    0.00000   0.00000
 Ionic relaxation
   EDIFFG = -.1E-01   stopping-criterion for IOM
   NSW    =      0    number of steps for IOM
   NBLOCK =      1;   KBLOCK =      1    inner block; outer block 
   IBRION =     -1    ionic relax: 0-MD 1-quasi-New 2-CG
   NFREE  =      0    steps in history (QN), initial steepest desc. (CG)
   ISIF   =      2    stress and relaxation
   IWAVPR =     10    prediction:  0-non 1-charg 2-wave 3-comb
   ISYM   =      0    0-nonsym 1-usesym 2-fastsym
   LCORR  =      T    Harris-Foulkes like correction to forces

   POTIM  = 0.5000    time-step for ionic-motion
   TEIN   =    0.0    initial temperature
   TEBEG  =    0.0;   TEEND  =   0.0 temperature during run
   SMASS  =  -3.00    Nose mass-parameter (am)
   estimated Nose-frequenzy (Omega)   =  0.10E-29 period in steps =****** mass=  -0.506E-26a.u.
   SCALEE = 1.0000    scale energy and forces
   NPACO  =    256;   APACO  = 16.0  distance and # of slots for P.C.
   PSTRESS=    0.0 pullay stress

  Mass of Ions in am
   POMASS =  12.01 52.00
  Ionic Valenz
   ZVAL   =   4.00 12.00
  Atomic Wigner-Seitz radii
   RWIGS  =  -1.00 -1.00
  virtual crystal weights 
   VCA    =   1.00  1.00
   NELECT =     292.0000    total number of electrons
   NUPDOWN=      -1.0000    fix difference up-down

 DOS related values:
   EMIN   = -14.00;   EMAX   =  6.00  energy-range for DOS
   EFERMI =   0.00
   ISMEAR =    -5;   SIGMA  =   0.20  broadening in eV -4-tet -1-fermi 0-gaus

 Electronic relaxation 2 (details)
   IALGO  =     38    algorithm
   LDIAG  =      T    sub-space diagonalisation (order eigenvalues)
   LSUBROT=      F    optimize rotation matrix (better conditioning)
   TURBO    =      0    0=normal 1=particle mesh
   IRESTART =      0    0=no restart 2=restart with 2 vectors
   NREBOOT  =      0    no. of reboots
   NMIN     =      0    reboot dimension
   EREF     =   0.00    reference energy to select bands
   IMIX   =      4    mixing-type and parameters
     AMIX     =   0.25;   BMIX     =  0.00
     AMIX_MAG =   1.00;   BMIX_MAG =  0.00
     AMIN     =   0.10
     WC   =   100.;   INIMIX=   1;  MIXPRE=   1;  MAXMIX= -45

 Intra band minimization:
   WEIMIN = 0.0000     energy-eigenvalue tresh-hold
   EBREAK =  0.14E-06  absolut break condition
   DEPER  =   0.30     relativ break condition  

   TIME   =   0.40     timestep for ELM

  volume/ion in A,a.u.               =      40.12       270.71
  Fermi-wavevector in a.u.,A,eV,Ry     =   0.766205  1.447918  7.987579  0.587070
  Thomas-Fermi vector in A             =   1.866493
 
 Write flags
   LWAVE        =      F    write WAVECAR
   LDOWNSAMPLE  =      F    k-point downsampling of WAVECAR
   LCHARG       =      F    write CHGCAR
   LVTOT        =      F    write LOCPOT, total local potential
   LVHAR        =      F    write LOCPOT, Hartree potential only
   LELF         =      F    write electronic localiz. function (ELF)
   LORBIT       =     11    0 simple, 1 ext, 2 COOP (PROOUT), +10 PAW based schemes


 Dipole corrections
   LMONO  =      F    monopole corrections only (constant potential shift)
   LDIPOL =      F    correct potential (dipole corrections)
   IDIPOL =      0    1-x, 2-y, 3-z, 4-all directions 
   EPSILON=  1.0000000 bulk dielectric constant

 Exchange correlation treatment:
   GGA     =    --    GGA type
   LEXCH   =     8    internal setting for exchange type
   VOSKOWN=      0    Vosko Wilk Nusair interpolation
   LHFCALC =     F    Hartree Fock is set to
   LHFONE  =     F    Hartree Fock one center treatment
   AEXX    =    0.0000 exact exchange contribution

 Linear response parameters
   LEPSILON=     F    determine dielectric tensor
   LRPA    =     F    only Hartree local field effects (RPA)
   LNABLA  =     F    use nabla operator in PAW spheres
   LVEL    =     F    velocity operator in full k-point grid
   LINTERFAST=   F  fast interpolation
   KINTER  =     0    interpolate to denser k-point grid
   CSHIFT  =0.1000    complex shift for real part using Kramers Kronig
   OMEGAMAX=  -1.0    maximum frequency
   DEG_THRESHOLD= 0.2000000E-02 threshold for treating states as degnerate
   RTIME   =   -0.100 relaxation time in fs
  (WPLASMAI=    0.000 imaginary part of plasma frequency in eV, 0.658/RTIME)
   DFIELD  = 0.0000000 0.0000000 0.0000000 field for delta impulse in time
 
 Orbital magnetization related:
   ORBITALMAG=     F  switch on orbital magnetization
   LCHIMAG   =     F  perturbation theory with respect to B field
   DQ        =  0.001000  dq finite difference perturbation B field
   LLRAUG    =     F  two centre corrections for induced B field



--------------------------------------------------------------------------------------------------------


 Static calculation
 charge density and potential will be updated during run
 spin polarized calculation
 Variant of blocked Davidson
 Davidson routine will perform the subspace rotation
 perform sub-space diagonalisation
    after iterative eigenvector-optimisation
 modified Broyden-mixing scheme, WC =      100.0
 initial mixing is a Kerker type mixing with AMIX =  0.2500 and BMIX =      0.0001
 Hartree-type preconditioning will be used
 using additional bands           38
 reciprocal scheme for non local part
 use partial core corrections
 calculate Harris-corrections to forces 
   (improved forces if not selfconsistent)
 use gradient corrections 
 use of overlap-Matrix (Vanderbilt PP)
 Fermi weights with tetrahedron method with Bloechl corrections


--------------------------------------------------------------------------------------------------------


  energy-cutoff  :      440.00
  volume of cell :     2848.21
      direct lattice vectors                 reciprocal lattice vectors
    14.878307727  0.000105424  0.000000000     0.067211667  0.039178051  0.000000000
    -7.439153864 12.762195204  0.000000000    -0.000000555  0.078356102  0.000000000
     0.000000000  0.000000000 15.000000000     0.000000000  0.000000000  0.066666667

  length of vectors
    14.878307728 14.772089786 15.000000000     0.077796709  0.078356102  0.066666667


 
 k-points in units of 2pi/SCALE and weight: K-Points                                
   0.00000000  0.00000000  0.00000000       0.111
   0.02240389  0.01305935  0.00000000       0.222
  -0.00000019  0.02611870  0.00000000       0.222
   0.02240370  0.03917805  0.00000000       0.222
  -0.02240407  0.01305935  0.00000000       0.222
 
 k-points in reciprocal lattice and weights: K-Points                                
   0.00000000  0.00000000  0.00000000       0.111
   0.33333333  0.00000000  0.00000000       0.222
   0.00000000  0.33333333  0.00000000       0.222
   0.33333333  0.33333333  0.00000000       0.222
  -0.33333333  0.33333333  0.00000000       0.222
 
 position of ions in fractional coordinates (direct lattice) 
   0.00014703  0.99993181  0.49766807
   0.05571316  0.11129367  0.49774774
   0.16803225  0.00210520  0.49753985
   0.22355821  0.11343998  0.49825115
   0.33432830  0.00207694  0.49777234
   0.39014706  0.11341551  0.49841838
   0.50002407  0.99989044  0.49775648
   0.55582710  0.11125266  0.49767590
   0.66571506  0.99774295  0.49825147
   0.72152612  0.10907882  0.49753824
   0.83231512  0.99776674  0.49841003
   0.88783929  0.10910686  0.49776801
   0.99908442  0.16549374  0.49784405
   0.05430809  0.27667161  0.49853746
   0.16734775  0.16806595  0.49834347
   0.22284185  0.27957445  0.49997583
   0.33528932  0.17029644  0.49941211
   0.39084341  0.28141813  0.50254970
   0.50097822  0.16802960  0.49842000
   0.55697129  0.27954076  0.49998817
   0.66664919  0.16545038  0.49752014
   0.72257294  0.27663324  0.49802908
   0.83255361  0.16485921  0.49764969
   0.88821716  0.27620991  0.49780056
   0.99906908  0.33222521  0.49838447
   0.05442247  0.44382388  0.49884723
   0.16531768  0.33288444  0.50001215
   0.21898612  0.44382270  0.50165224
   0.33514858  0.33773328  0.50339031
   0.38694525  0.44827387  0.50958670
   0.50284791  0.33770682  0.50360105
   0.56160602  0.44823797  0.50998391
   0.66778145  0.33285443  0.49963749
   0.72504010  0.44380782  0.50114295
   0.83335701  0.33221195  0.49791518
   0.88957865  0.44380677  0.49825237
   0.00003314  0.49990030  0.49835048
   0.05573614  0.61130743  0.49834565
   0.16452790  0.49985599  0.50032235
   0.22027264  0.61134265  0.50031499
   0.32877881  0.49923631  0.50514604
   0.38513300  0.61194665  0.50514739
   0.67071104  0.49923365  0.50517220
   0.72707059  0.61195035  0.50517224
   0.83551700  0.49986026  0.49948453
   0.89125350  0.61133457  0.49948422
   0.00136430  0.66739252  0.49824937
   0.05673614  0.77898562  0.49790902
   0.16620335  0.66738054  0.49883406
   0.22244721  0.77897560  0.49837060
   0.33076298  0.66736579  0.50164604
   0.38803591  0.77830247  0.50000539
   0.49425975  0.66291375  0.50958718
   0.55300964  0.77344715  0.50338828
   0.66896610  0.66295341  0.50998288
   0.72073432  0.77348097  0.50359479
   0.83682433  0.66738081  0.50114212
   0.89051054  0.77833045  0.49963539
   0.00151950  0.83455528  0.49802741
   0.05677874  0.94573836  0.49751926
   0.16759972  0.83498348  0.49779087
   0.22328727  0.94632847  0.49764984
   0.33324173  0.83452222  0.49853136
   0.38919606  0.94569806  0.49784785
   0.49886656  0.83160652  0.49997424
   0.55488261  0.94311446  0.49834783
   0.66501623  0.82976534  0.50254304
   0.72058356  0.94088512  0.49940688
   0.83301728  0.83164625  0.49998031
   0.88852543  0.94315192  0.49840894
   0.52788678  0.55561308  0.55407295
 
 position of ions in cartesian coordinates  (Angst):
  -7.43645893 12.76132490  7.46502101
   0.00098677  1.42035737  7.46621609
   2.48437460  0.02688469  7.46309769
   2.48227038  1.44776676  7.47376727
   4.95878870  0.02654158  7.46658504
   4.96101252  1.44747206  7.47627575
   0.00117320 12.76084966  7.46634727
   7.44214093  1.41988678  7.46513856
   2.48235028 12.73346045  7.47377203
   9.92363354  1.39216125  7.46307356
   4.96090025 12.73378160  7.47615045
  12.39788345  1.39253665  7.46652020
  13.63355202  2.11216869  7.46766080
  -1.25019027  3.53094287  7.47806186
   1.23958287  2.14490807  7.47515208
   1.23571236  3.56800714  7.49963746
   3.72167632  2.17339173  7.49118168
   3.72157576  3.59155433  7.53824552
   6.20371007  2.14447940  7.47630003
   6.20724356  3.56761241  7.49982262
   8.68780104  2.11158030  7.46280215
   8.69274532  3.53052356  7.47043619
  11.16057575  2.10405319  7.46474541
  11.16040021  3.52513843  7.46700843
  12.39298273  4.24002833  7.47576708
  -2.49195986  5.66417272  7.48270852
  -0.01673121  4.24835367  7.50018218
  -0.04352248  5.66417505  7.52478359
   2.47399392  4.31025334  7.55085470
   2.42231217  5.72099937  7.64380057
   4.96927299  4.30993342  7.55401582
   5.02123589  5.72055973  7.64975858
   7.45930259  4.24802358  7.49456242
   7.48581505  5.66403852  7.51714419
   9.92756627  4.23984160  7.46872767
   9.93387816  5.66404236  7.47378561
  -3.71834223  6.37982525  7.47525727
  -3.71835051  7.80163060  7.47518475
  -1.27060894  6.37927707  7.50483528
  -1.27058799  7.80209747  7.50472492
   1.17777658  6.37138591  7.57719062
   1.17776199  7.80982318  7.57721079
   6.26516932  6.37138797  7.57758296
   6.26518706  7.80990654  7.57758361
   8.71254167  6.37940228  7.49226792
   8.71253189  7.80206507  7.49226324
  -4.94453714  8.51739379  7.47374059
  -4.95085604  9.94157246  7.46863529
  -2.49192199  8.51725823  7.48251084
  -2.48528121  9.94146208  7.47555906
  -0.04344336  8.51708741  7.52469062
  -0.01659412  9.93288892  7.50008080
   2.42223119  8.46028680  7.64380763
   2.47405524  9.87094181  7.55082413
   5.02127100  8.46081135  7.64974323
   4.96926315  9.87139105  7.55392179
   7.48578134  8.51733237  7.51713176
   7.45916989  9.93329897  7.49453080
  -6.18577746 10.65075751  7.47041111
  -6.19072161 12.06970350  7.46278894
  -3.71797037 10.65623981  7.46686302
  -3.71774635 12.07725221  7.46474766
  -1.25006613 10.65037063  7.47797042
  -1.24461459 12.06922431  7.46771775
   1.23584141 10.61317732  7.49961357
   1.23974067 12.03626939  7.47521740
   3.72156413 10.58969736  7.53814562
   3.72167477 12.00783549  7.49110317
   6.20714301 10.61371955  7.49970466
   6.20350242 12.03678263  7.47613410
   3.72077071  7.09089829  8.31109430
 


--------------------------------------------------------------------------------------------------------


 k-point  1 :   0.0000 0.0000 0.0000  plane waves:   59641
 k-point  2 :   0.3333 0.0000 0.0000  plane waves:   59674
 k-point  3 :   0.0000 0.3333 0.0000  plane waves:   59734
 k-point  4 :   0.3333 0.3333 0.0000  plane waves:   59724
 k-point  5 :  -0.3333 0.3333 0.0000  plane waves:   59674

 maximum and minimum number of plane-waves per node :      4282     4239

 maximum number of plane-waves:     59734
 maximum index in each direction: 
   IXMAX=   25   IYMAX=   25   IZMAX=   25
   IXMIN=  -25   IYMIN=  -25   IZMIN=  -25


 parallel 3D FFT for wavefunctions:
    minimum data exchange during FFTs selected (reduces bandwidth)
 parallel 3D FFT for charge:
    minimum data exchange during FFTs selected (reduces bandwidth)


 total amount of memory used by VASP MPI-rank0    86190. kBytes
=======================================================================

   base      :      30000. kBytes
   nonl-proj :      11014. kBytes
   fftplans  :       3786. kBytes
   grid      :       9292. kBytes
   one-center:        186. kBytes
   wavefun   :      31912. kBytes
 
     INWAV:  cpu time    0.0001: real time    0.0001
 Broyden mixing: mesh for mixing (old mesh)
   NGX = 51   NGY = 51   NGZ = 51
  (NGX  =160   NGY  =160   NGZ  =160)
  gives a total of 132651 points

 initial charge density was supplied:
 charge density of overlapping atoms calculated
 number of electron     292.0000000 magnetization       1.0000000
 keeping initial charge density in first step


--------------------------------------------------------------------------------------------------------


 Maximum index for augmentation-charges          179 (set IRDMAX)


--------------------------------------------------------------------------------------------------------


 First call to EWALD:  gamma=   0.125
 Maximum number of real-space cells 3x 3x 3
 Maximum number of reciprocal cells 3x 3x 3

    FEWALD:  cpu time    0.0021: real time    0.0021


--------------------------------------- Iteration      1(   1)  ---------------------------------------


    POTLOK:  cpu time    0.1104: real time    0.1116
    SETDIJ:  cpu time    0.0133: real time    0.0149
     EDDAV:  cpu time   10.1626: real time   10.2165
 BZINTS: Fermi energy:  7.991900;292.000000 electrons
         Band energy:***********;  BLOECHL correction: -0.007424
       DOS:  cpu time    0.1654: real time    0.1658
    --------------------------------------------
      LOOP:  cpu time   10.4517: real time   10.5088

 eigenvalue-minimisations  :  4208
 total energy-change (2. order) : 0.2452765E+04  (-0.1071585E+05)
 number of electron     292.0000000 magnetization       1.0000000
 augmentation part      292.0000000 magnetization       1.0000000

 Free energy of the ion-electron system (eV)
  ---------------------------------------------------
  alpha Z        PSCENC =       156.31093555
  Ewald energy   TEWEN  =     30168.87168425
  -Hartree energ DENC   =    -39227.29430377
  -exchange      EXHF   =         0.00000000
  -V(xc)+E(xc)   XCENC  =       975.62292066
  PAW double counting   =      8903.89460644    -8992.15300994
  entropy T*S    EENTRO =         0.00000000
  eigenvalues    EBANDS =     -1480.38955000
  atomic energy  EATOM  =     11947.90134889
  Solvation  Ediel_sol  =         0.00000000
  ---------------------------------------------------
  free energy    TOTEN  =      2452.76463209 eV

  energy without entropy =     2452.76463209  energy(sigma->0) =     2452.76463209


--------------------------------------------------------------------------------------------------------




--------------------------------------- Iteration      1(   2)  ---------------------------------------


     EDDAV:  cpu time   12.1327: real time   12.1904
 BZINTS: Fermi energy: -1.931944;292.000000 electrons
         Band energy:***********;  BLOECHL correction:  0.000000
       DOS:  cpu time    0.0367: real time    0.0368
    --------------------------------------------
      LOOP:  cpu time   12.1693: real time   12.2271

 eigenvalue-minimisations  :  5288
 total energy-change (2. order) :-0.2687599E+04  (-0.2567417E+04)
 number of electron     292.0000000 magnetization       1.0000000
 augmentation part      292.0000000 magnetization       1.0000000

 Free energy of the ion-electron system (eV)
  ---------------------------------------------------
  alpha Z        PSCENC =       156.31093555
  Ewald energy   TEWEN  =     30168.87168425
  -Hartree energ DENC   =    -39227.29430377
  -exchange      EXHF   =         0.00000000
  -V(xc)+E(xc)   XCENC  =       975.62292066
  PAW double counting   =      8903.89460644    -8992.15300994
  entropy T*S    EENTRO =         0.00000000
  eigenvalues    EBANDS =     -4167.98814683
  atomic energy  EATOM  =     11947.90134889
  Solvation  Ediel_sol  =         0.00000000
  ---------------------------------------------------
  free energy    TOTEN  =      -234.83396474 eV

  energy without entropy =     -234.83396474  energy(sigma->0) =     -234.83396474


--------------------------------------------------------------------------------------------------------




--------------------------------------- Iteration      1(   3)  ---------------------------------------


     EDDAV:  cpu time   10.6090: real time   10.6693
 BZINTS: Fermi energy: -5.070485;292.000000 electrons
         Band energy:***********;  BLOECHL correction: -0.018322
       DOS:  cpu time    0.0468: real time    0.0469
    --------------------------------------------
      LOOP:  cpu time   10.6558: real time   10.7162

 eigenvalue-minimisations  :  4464
 total energy-change (2. order) :-0.4546930E+03  (-0.4519625E+03)
 number of electron     292.0000000 magnetization       1.0000000
 augmentation part      292.0000000 magnetization       1.0000000

 Free energy of the ion-electron system (eV)
  ---------------------------------------------------
  alpha Z        PSCENC =       156.31093555
  Ewald energy   TEWEN  =     30168.87168425
  -Hartree energ DENC   =    -39227.29430377
  -exchange      EXHF   =         0.00000000
  -V(xc)+E(xc)   XCENC  =       975.62292066
  PAW double counting   =      8903.89460644    -8992.15300994
  entropy T*S    EENTRO =         0.00000000
  eigenvalues    EBANDS =     -4622.68117405
  atomic energy  EATOM  =     11947.90134889
  Solvation  Ediel_sol  =         0.00000000
  ---------------------------------------------------
  free energy    TOTEN  =      -689.52699196 eV

  energy without entropy =     -689.52699196  energy(sigma->0) =     -689.52699196


--------------------------------------------------------------------------------------------------------




--------------------------------------- Iteration      1(   4)  ---------------------------------------


     EDDAV:  cpu time   11.0790: real time   11.1430
 BZINTS: Fermi energy: -5.279901;292.000000 electrons
         Band energy:***********;  BLOECHL correction: -0.010377
       DOS:  cpu time    0.0473: real time    0.0474
    --------------------------------------------
      LOOP:  cpu time   11.1263: real time   11.1904

 eigenvalue-minimisations  :  4464
 total energy-change (2. order) :-0.1662726E+02  (-0.1650535E+02)
 number of electron     292.0000000 magnetization       1.0000000
 augmentation part      292.0000000 magnetization       1.0000000

 Free energy of the ion-electron system (eV)
  ---------------------------------------------------
  alpha Z        PSCENC =       156.31093555
  Ewald energy   TEWEN  =     30168.87168425
  -Hartree energ DENC   =    -39227.29430377
  -exchange      EXHF   =         0.00000000
  -V(xc)+E(xc)   XCENC  =       975.62292066
  PAW double counting   =      8903.89460644    -8992.15300994
  entropy T*S    EENTRO =         0.00000000
  eigenvalues    EBANDS =     -4639.30843204
  atomic energy  EATOM  =     11947.90134889
  Solvation  Ediel_sol  =         0.00000000
  ---------------------------------------------------
  free energy    TOTEN  =      -706.15424995 eV

  energy without entropy =     -706.15424995  energy(sigma->0) =     -706.15424995


--------------------------------------------------------------------------------------------------------




--------------------------------------- Iteration      1(   5)  ---------------------------------------


     EDDAV:  cpu time   11.8499: real time   11.9198
 BZINTS: Fermi energy: -5.288752;292.000000 electrons
         Band energy:***********;  BLOECHL correction: -0.010122
       DOS:  cpu time    0.0476: real time    0.0480
    CHARGE:  cpu time    0.1727: real time    0.1733
    MIXING:  cpu time    0.0043: real time    0.0043
    --------------------------------------------
      LOOP:  cpu time   12.0745: real time   12.1455

 eigenvalue-minimisations  :  4944
 total energy-change (2. order) :-0.5247487E+00  (-0.5234841E+00)
 number of electron     291.9999973 magnetization       0.0099181
 augmentation part       11.4895980 magnetization       0.0375710

 Broyden mixing:
  rms(total) = 0.46878E+01    rms(broyden)= 0.46873E+01
  rms(prec ) = 0.54469E+01
  weight for this iteration     100.00

 Free energy of the ion-electron system (eV)
  ---------------------------------------------------
  alpha Z        PSCENC =       156.31093555
  Ewald energy   TEWEN  =     30168.87168425
  -Hartree energ DENC   =    -39227.29430377
  -exchange      EXHF   =         0.00000000
  -V(xc)+E(xc)   XCENC  =       975.62292066
  PAW double counting   =      8903.89460644    -8992.15300994
  entropy T*S    EENTRO =         0.00000000
  eigenvalues    EBANDS =     -4639.83318078
  atomic energy  EATOM  =     11947.90134889
  Solvation  Ediel_sol  =         0.00000000
  ---------------------------------------------------
  free energy    TOTEN  =      -706.67899869 eV

  energy without entropy =     -706.67899869  energy(sigma->0) =     -706.67899869


--------------------------------------------------------------------------------------------------------




--------------------------------------- Iteration      1(   6)  ---------------------------------------


    POTLOK:  cpu time    0.1040: real time    0.1104
    SETDIJ:  cpu time    0.0103: real time    0.0103
     EDDAV:  cpu time   10.8984: real time   10.9532
 BZINTS: Fermi energy: -5.733433;292.000000 electrons
         Band energy:***********;  BLOECHL correction: -0.052373
       DOS:  cpu time    0.0485: real time    0.0487
    CHARGE:  cpu time    0.1737: real time    0.1742
    MIXING:  cpu time    0.0034: real time    0.0035
    --------------------------------------------
      LOOP:  cpu time   11.2384: real time   11.3002

 eigenvalue-minimisations  :  4624
 total energy-change (2. order) :-0.2203809E+00  (-0.9487678E+01)
 number of electron     291.9999994 magnetization       0.0051140
 augmentation part       17.1978596 magnetization       0.0373256

 Broyden mixing:
  rms(total) = 0.74201E+01    rms(broyden)= 0.74198E+01
  rms(prec ) = 0.85054E+01
  weight for this iteration     100.00

 eigenvalues of (default mixing * dielectric matrix)
  average eigenvalue GAMMA=   0.2728
  0.2728

 Free energy of the ion-electron system (eV)
  ---------------------------------------------------
  alpha Z        PSCENC =       156.31093555
  Ewald energy   TEWEN  =     30168.87168425
  -Hartree energ DENC   =    -39600.86089298
  -exchange      EXHF   =         0.00000000
  -V(xc)+E(xc)   XCENC  =       988.02679187
  PAW double counting   =     12593.73057981   -12681.80325169
  entropy T*S    EENTRO =         0.00000000
  eigenvalues    EBANDS =     -4279.07657526
  atomic energy  EATOM  =     11947.90134889
  Solvation  Ediel_sol  =         0.00000000
  ---------------------------------------------------
  free energy    TOTEN  =      -706.89937956 eV

  energy without entropy =     -706.89937956  energy(sigma->0) =     -706.89937956


--------------------------------------------------------------------------------------------------------




--------------------------------------- Iteration      1(   7)  ---------------------------------------


    POTLOK:  cpu time    0.1020: real time    0.1099
    SETDIJ:  cpu time    0.0101: real time    0.0101
     EDDAV:  cpu time   10.9838: real time   11.0388
 BZINTS: Fermi energy: -4.449896;292.000000 electrons
         Band energy:***********;  BLOECHL correction: -0.048631
       DOS:  cpu time    0.0481: real time    0.0482
    CHARGE:  cpu time    0.1723: real time    0.1727
    MIXING:  cpu time    0.0033: real time    0.0033
    --------------------------------------------
      LOOP:  cpu time   11.3196: real time   11.3830

 eigenvalue-minimisations  :  4688
 total energy-change (2. order) : 0.4666187E+02  (-0.5655574E+01)
 number of electron     291.9999994 magnetization       0.5289763
 augmentation part       13.4307983 magnetization       0.3598801

 Broyden mixing:
  rms(total) = 0.25665E+01    rms(broyden)= 0.25660E+01
  rms(prec ) = 0.28095E+01
  weight for this iteration     100.00

 eigenvalues of (default mixing * dielectric matrix)
  average eigenvalue GAMMA=   0.6641
  1.0269  0.3013

 Free energy of the ion-electron system (eV)
  ---------------------------------------------------
  alpha Z        PSCENC =       156.31093555
  Ewald energy   TEWEN  =     30168.87168425
  -Hartree energ DENC   =    -39739.16857521
  -exchange      EXHF   =         0.00000000
  -V(xc)+E(xc)   XCENC  =       992.42060452
  PAW double counting   =     13795.77316554   -13888.34511433
  entropy T*S    EENTRO =         0.00000000
  eigenvalues    EBANDS =     -4094.00156006
  atomic energy  EATOM  =     11947.90134889
  Solvation  Ediel_sol  =         0.00000000
  ---------------------------------------------------
  free energy    TOTEN  =      -660.23751084 eV

  energy without entropy =     -660.23751084  energy(sigma->0) =     -660.23751084


--------------------------------------------------------------------------------------------------------




--------------------------------------- Iteration      1(   8)  ---------------------------------------


    POTLOK:  cpu time    0.1007: real time    0.1099
    SETDIJ:  cpu time    0.0101: real time    0.0102
     EDDAV:  cpu time   10.8042: real time   10.8570
 BZINTS: Fermi energy: -3.004751;292.000000 electrons
         Band energy:***********;  BLOECHL correction:  0.000000
       DOS:  cpu time    0.0362: real time    0.0363
    CHARGE:  cpu time    0.1724: real time    0.1749
    MIXING:  cpu time    0.0041: real time    0.0041
    --------------------------------------------
      LOOP:  cpu time   11.1278: real time   11.1923

 eigenvalue-minimisations  :  4576
 total energy-change (2. order) : 0.6115701E+01  (-0.3616171E+01)
 number of electron     291.9999982 magnetization       0.0150685
 augmentation part       11.6281914 magnetization       0.0824988

 Broyden mixing:
  rms(total) = 0.23530E+01    rms(broyden)= 0.23527E+01
  rms(prec ) = 0.27207E+01
  weight for this iteration     100.00

 eigenvalues of (default mixing * dielectric matrix)
  average eigenvalue GAMMA=   1.2502
  2.9271  0.4591  0.3643

 Free energy of the ion-electron system (eV)
  ---------------------------------------------------
  alpha Z        PSCENC =       156.31093555
  Ewald energy   TEWEN  =     30168.87168425
  -Hartree energ DENC   =    -40045.19335280
  -exchange      EXHF   =         0.00000000
  -V(xc)+E(xc)   XCENC  =      1002.73568882
  PAW double counting   =     17727.98657763   -17823.95213231
  entropy T*S    EENTRO =         0.00000000
  eigenvalues    EBANDS =     -3788.78256015
  atomic energy  EATOM  =     11947.90134889
  Solvation  Ediel_sol  =         0.00000000
  ---------------------------------------------------
  free energy    TOTEN  =      -654.12181012 eV

  energy without entropy =     -654.12181012  energy(sigma->0) =     -654.12181012


--------------------------------------------------------------------------------------------------------




--------------------------------------- Iteration      1(   9)  ---------------------------------------


    POTLOK:  cpu time    0.1081: real time    0.1097
    SETDIJ:  cpu time    0.0103: real time    0.0103
     EDDAV:  cpu time   10.9311: real time   10.9914
 BZINTS: Fermi energy: -2.851764;292.000000 electrons
         Band energy:***********;  BLOECHL correction: -0.083830
       DOS:  cpu time    0.0444: real time    0.0445
    CHARGE:  cpu time    0.1865: real time    0.1870
    MIXING:  cpu time    0.0038: real time    0.0038
    --------------------------------------------
      LOOP:  cpu time   11.2841: real time   11.3468

 eigenvalue-minimisations  :  4376
 total energy-change (2. order) : 0.2148748E+01  (-0.6956836E+01)
 number of electron     291.9999993 magnetization      -0.1497575
 augmentation part       14.4185947 magnetization      -0.1411298

 Broyden mixing:
  rms(total) = 0.23388E+01    rms(broyden)= 0.23375E+01
  rms(prec ) = 0.29857E+01
  weight for this iteration     100.00

 eigenvalues of (default mixing * dielectric matrix)
  average eigenvalue GAMMA=   1.0613
  2.9087  0.6772  0.3296  0.3296

 Free energy of the ion-electron system (eV)
  ---------------------------------------------------
  alpha Z        PSCENC =       156.31093555
  Ewald energy   TEWEN  =     30168.87168425
  -Hartree energ DENC   =    -40491.37172049
  -exchange      EXHF   =         0.00000000
  -V(xc)+E(xc)   XCENC  =      1018.66096205
  PAW double counting   =     26104.68838822   -26204.15420124
  entropy T*S    EENTRO =         0.00000000
  eigenvalues    EBANDS =     -3352.88045900
  atomic energy  EATOM  =     11947.90134889
  Solvation  Ediel_sol  =         0.00000000
  ---------------------------------------------------
  free energy    TOTEN  =      -651.97306177 eV

  energy without entropy =     -651.97306177  energy(sigma->0) =     -651.97306177


--------------------------------------------------------------------------------------------------------




--------------------------------------- Iteration      1(  10)  ---------------------------------------


    POTLOK:  cpu time    0.1030: real time    0.1104
    SETDIJ:  cpu time    0.0102: real time    0.0102
     EDDAV:  cpu time   11.9171: real time   11.9989
 BZINTS: Fermi energy: -1.851953;292.000000 electrons
         Band energy:***********;  BLOECHL correction:  0.000000
       DOS:  cpu time    0.0380: real time    0.0381
    CHARGE:  cpu time    0.1738: real time    0.1743
    MIXING:  cpu time    0.0038: real time    0.0039
    --------------------------------------------
      LOOP:  cpu time   12.2459: real time   12.3357

 eigenvalue-minimisations  :  4992
 total energy-change (2. order) : 0.3456696E+01  (-0.1118744E+01)
 number of electron     291.9999992 magnetization      -0.0996960
 augmentation part       11.9703060 magnetization      -0.0798784

 Broyden mixing:
  rms(total) = 0.98863E+00    rms(broyden)= 0.98653E+00
  rms(prec ) = 0.11433E+01
  weight for this iteration     100.00

 eigenvalues of (default mixing * dielectric matrix)
  average eigenvalue GAMMA=   1.2227
  3.4445  1.4045  0.6273  0.3185  0.3185

 Free energy of the ion-electron system (eV)
  ---------------------------------------------------
  alpha Z        PSCENC =       156.31093555
  Ewald energy   TEWEN  =     30168.87168425
  -Hartree energ DENC   =    -40475.62724690
  -exchange      EXHF   =         0.00000000
  -V(xc)+E(xc)   XCENC  =      1018.19715995
  PAW double counting   =     26975.45598815   -27075.02248749
  entropy T*S    EENTRO =         0.00000000
  eigenvalues    EBANDS =     -3364.60374835
  atomic energy  EATOM  =     11947.90134889
  Solvation  Ediel_sol  =         0.00000000
  ---------------------------------------------------
  free energy    TOTEN  =      -648.51636594 eV

  energy without entropy =     -648.51636594  energy(sigma->0) =     -648.51636594


--------------------------------------------------------------------------------------------------------




--------------------------------------- Iteration      1(  11)  ---------------------------------------


    POTLOK:  cpu time    0.1031: real time    0.1106
    SETDIJ:  cpu time    0.0101: real time    0.0101
     EDDAV:  cpu time   10.8292: real time   10.9034
 BZINTS: Fermi energy: -1.981839;292.000000 electrons
         Band energy:***********;  BLOECHL correction:  0.000000
       DOS:  cpu time    0.0365: real time    0.0366
    CHARGE:  cpu time    0.1727: real time    0.1731
    MIXING:  cpu time    0.0039: real time    0.0039
    --------------------------------------------
      LOOP:  cpu time   11.1555: real time   11.2377

 eigenvalue-minimisations  :  4592
 total energy-change (2. order) :-0.2499070E+00  (-0.1337183E+00)
 number of electron     291.9999988 magnetization       0.0259443
 augmentation part       11.7522273 magnetization       0.0092919

 Broyden mixing:
  rms(total) = 0.10329E+01    rms(broyden)= 0.10328E+01
  rms(prec ) = 0.13113E+01
  weight for this iteration     100.00

 eigenvalues of (default mixing * dielectric matrix)
  average eigenvalue GAMMA=   1.3705
  3.7454  2.1608  0.9828  0.6901  0.3221  0.3221

 Free energy of the ion-electron system (eV)
  ---------------------------------------------------
  alpha Z        PSCENC =       156.31093555
  Ewald energy   TEWEN  =     30168.87168425
  -Hartree energ DENC   =    -40437.00173709
  -exchange      EXHF   =         0.00000000
  -V(xc)+E(xc)   XCENC  =      1017.25817798
  PAW double counting   =     29336.69661020   -29435.61212795
  entropy T*S    EENTRO =         0.00000000
  eigenvalues    EBANDS =     -3403.19116473
  atomic energy  EATOM  =     11947.90134889
  Solvation  Ediel_sol  =         0.00000000
  ---------------------------------------------------
  free energy    TOTEN  =      -648.76627290 eV

  energy without entropy =     -648.76627290  energy(sigma->0) =     -648.76627290


--------------------------------------------------------------------------------------------------------




--------------------------------------- Iteration      1(  12)  ---------------------------------------


    POTLOK:  cpu time    0.1016: real time    0.1098
    SETDIJ:  cpu time    0.0102: real time    0.0102
     EDDAV:  cpu time   11.2372: real time   11.2934
 BZINTS: Fermi energy: -2.489217;292.000000 electrons
         Band energy:***********;  BLOECHL correction: -0.025428
       DOS:  cpu time    0.0465: real time    0.0466
    CHARGE:  cpu time    0.1719: real time    0.1724
    MIXING:  cpu time    0.0041: real time    0.0041
    --------------------------------------------
      LOOP:  cpu time   11.5715: real time   11.6365

 eigenvalue-minimisations  :  4840
 total energy-change (2. order) : 0.7545865E+00  (-0.5087082E+00)
 number of electron     291.9999995 magnetization      -0.0673051
 augmentation part       12.6558018 magnetization      -0.0015160

 Broyden mixing:
  rms(total) = 0.37440E+00    rms(broyden)= 0.37361E+00
  rms(prec ) = 0.39302E+00
  weight for this iteration     100.00

 eigenvalues of (default mixing * dielectric matrix)
  average eigenvalue GAMMA=   1.2785
  3.8331  2.4433  0.9993  0.6564  0.3213  0.3213  0.3749

 Free energy of the ion-electron system (eV)
  ---------------------------------------------------
  alpha Z        PSCENC =       156.31093555
  Ewald energy   TEWEN  =     30168.87168425
  -Hartree energ DENC   =    -40404.59843078
  -exchange      EXHF   =         0.00000000
  -V(xc)+E(xc)   XCENC  =      1016.41414616
  PAW double counting   =     30706.48059708   -30804.73449523
  entropy T*S    EENTRO =         0.00000000
  eigenvalues    EBANDS =     -3434.65747231
  atomic energy  EATOM  =     11947.90134889
  Solvation  Ediel_sol  =         0.00000000
  ---------------------------------------------------
  free energy    TOTEN  =      -648.01168638 eV

  energy without entropy =     -648.01168638  energy(sigma->0) =     -648.01168638


--------------------------------------------------------------------------------------------------------




--------------------------------------- Iteration      1(  13)  ---------------------------------------


    POTLOK:  cpu time    0.1056: real time    0.1096
    SETDIJ:  cpu time    0.0102: real time    0.0102
     EDDAV:  cpu time   10.9762: real time   11.0248
 BZINTS: Fermi energy: -2.657952;292.000000 electrons
         Band energy:***********;  BLOECHL correction: -0.056684
       DOS:  cpu time    0.0467: real time    0.0468
    CHARGE:  cpu time    0.1721: real time    0.1726
    MIXING:  cpu time    0.0044: real time    0.0044
    --------------------------------------------
      LOOP:  cpu time   11.3152: real time   11.3684

 eigenvalue-minimisations  :  4672
 total energy-change (2. order) :-0.4462065E-01  (-0.9722062E-02)
 number of electron     291.9999992 magnetization      -0.0828954
 augmentation part       12.7603493 magnetization       0.1968808

 Broyden mixing:
  rms(total) = 0.50932E+00    rms(broyden)= 0.50862E+00
  rms(prec ) = 0.54039E+00
  weight for this iteration     100.00

 eigenvalues of (default mixing * dielectric matrix)
  average eigenvalue GAMMA=   1.1223
  3.8311  2.4426  1.0203  0.6369  0.3178  0.3178  0.3060  0.1058

 Free energy of the ion-electron system (eV)
  ---------------------------------------------------
  alpha Z        PSCENC =       156.31093555
  Ewald energy   TEWEN  =     30168.87168425
  -Hartree energ DENC   =    -40393.95836465
  -exchange      EXHF   =         0.00000000
  -V(xc)+E(xc)   XCENC  =      1016.11542254
  PAW double counting   =     30902.28656986   -31000.38216766
  entropy T*S    EENTRO =         0.00000000
  eigenvalues    EBANDS =     -3445.20173581
  atomic energy  EATOM  =     11947.90134889
  Solvation  Ediel_sol  =         0.00000000
  ---------------------------------------------------
  free energy    TOTEN  =      -648.05630703 eV

  energy without entropy =     -648.05630703  energy(sigma->0) =     -648.05630703


--------------------------------------------------------------------------------------------------------




--------------------------------------- Iteration      1(  14)  ---------------------------------------


    POTLOK:  cpu time    0.1038: real time    0.1101
    SETDIJ:  cpu time    0.0101: real time    0.0102
     EDDAV:  cpu time   10.2671: real time   10.3186
 BZINTS: Fermi energy: -2.686221;292.000000 electrons
         Band energy:***********;  BLOECHL correction: -0.060005
       DOS:  cpu time    0.0462: real time    0.0463
    CHARGE:  cpu time    0.1730: real time    0.1734
    MIXING:  cpu time    0.0047: real time    0.0047
    --------------------------------------------
      LOOP:  cpu time   10.6049: real time   10.6632

 eigenvalue-minimisations  :  4288
 total energy-change (2. order) :-0.1815288E-01  (-0.1150521E-02)
 number of electron     291.9999990 magnetization      -0.0706459
 augmentation part       12.8136021 magnetization       0.4060048

 Broyden mixing:
  rms(total) = 0.68569E+00    rms(broyden)= 0.68536E+00
  rms(prec ) = 0.72386E+00
  weight for this iteration     100.00

 eigenvalues of (default mixing * dielectric matrix)
  average eigenvalue GAMMA=   1.0177
  3.8280  2.4450  1.0107  0.6397  0.3206  0.3206  0.2815  0.2815  0.0316

 Free energy of the ion-electron system (eV)
  ---------------------------------------------------
  alpha Z        PSCENC =       156.31093555
  Ewald energy   TEWEN  =     30168.87168425
  -Hartree energ DENC   =    -40393.92237219
  -exchange      EXHF   =         0.00000000
  -V(xc)+E(xc)   XCENC  =      1016.11719611
  PAW double counting   =     30900.71870833   -30998.77568021
  entropy T*S    EENTRO =         0.00000000
  eigenvalues    EBANDS =     -3445.29628064
  atomic energy  EATOM  =     11947.90134889
  Solvation  Ediel_sol  =         0.00000000
  ---------------------------------------------------
  free energy    TOTEN  =      -648.07445991 eV

  energy without entropy =     -648.07445991  energy(sigma->0) =     -648.07445991


--------------------------------------------------------------------------------------------------------




--------------------------------------- Iteration      1(  15)  ---------------------------------------


    POTLOK:  cpu time    0.1095: real time    0.1109
    SETDIJ:  cpu time    0.0100: real time    0.0100
     EDDAV:  cpu time   10.3057: real time   10.3794
 BZINTS: Fermi energy: -2.678657;292.000000 electrons
         Band energy:***********;  BLOECHL correction: -0.061925
       DOS:  cpu time    0.0452: real time    0.0454
    CHARGE:  cpu time    0.1721: real time    0.1725
    MIXING:  cpu time    0.0050: real time    0.0050
    --------------------------------------------
      LOOP:  cpu time   10.6474: real time   10.7232

 eigenvalue-minimisations  :  4032
 total energy-change (2. order) : 0.2084979E-01  (-0.3824100E-03)
 number of electron     291.9999990 magnetization      -0.0746803
 augmentation part       12.8123724 magnetization       0.4484469

 Broyden mixing:
  rms(total) = 0.70770E+00    rms(broyden)= 0.70766E+00
  rms(prec ) = 0.74452E+00
  weight for this iteration     100.00

 eigenvalues of (default mixing * dielectric matrix)
  average eigenvalue GAMMA=   0.9617
  3.8298  2.4485  1.0128  0.6399  0.3224  0.3224  0.3637  0.3637  0.2366  0.0770

 Free energy of the ion-electron system (eV)
  ---------------------------------------------------
  alpha Z        PSCENC =       156.31093555
  Ewald energy   TEWEN  =     30168.87168425
  -Hartree energ DENC   =    -40393.97016504
  -exchange      EXHF   =         0.00000000
  -V(xc)+E(xc)   XCENC  =      1016.13094283
  PAW double counting   =     30894.47909720   -30992.51012225
  entropy T*S    EENTRO =         0.00000000
  eigenvalues    EBANDS =     -3445.26733156
  atomic energy  EATOM  =     11947.90134889
  Solvation  Ediel_sol  =         0.00000000
  ---------------------------------------------------
  free energy    TOTEN  =      -648.05361012 eV

  energy without entropy =     -648.05361012  energy(sigma->0) =     -648.05361012


--------------------------------------------------------------------------------------------------------




--------------------------------------- Iteration      1(  16)  ---------------------------------------


    POTLOK:  cpu time    0.1018: real time    0.1131
    SETDIJ:  cpu time    0.0102: real time    0.0102
     EDDAV:  cpu time    9.4565: real time    9.5995
 BZINTS: Fermi energy: -2.676841;292.000000 electrons
         Band energy:***********;  BLOECHL correction: -0.062474
       DOS:  cpu time    0.0452: real time    0.0453
    CHARGE:  cpu time    0.1728: real time    0.1732
    MIXING:  cpu time    0.0056: real time    0.0056
    --------------------------------------------
      LOOP:  cpu time    9.7920: real time    9.9470

 eigenvalue-minimisations  :  3440
 total energy-change (2. order) : 0.8961101E-02  (-0.1541094E-03)
 number of electron     291.9999989 magnetization      -0.0855322
 augmentation part       12.8127238 magnetization       0.4516878

 Broyden mixing:
  rms(total) = 0.71344E+00    rms(broyden)= 0.71344E+00
  rms(prec ) = 0.75011E+00
  weight for this iteration     100.00

 eigenvalues of (default mixing * dielectric matrix)
  average eigenvalue GAMMA=   1.0191
  3.8435  2.4552  0.7916  0.7916  1.0384  0.6359  0.3224  0.3224  0.4709  0.4709
  0.0677

 Free energy of the ion-electron system (eV)
  ---------------------------------------------------
  alpha Z        PSCENC =       156.31093555
  Ewald energy   TEWEN  =     30168.87168425
  -Hartree energ DENC   =    -40394.02744151
  -exchange      EXHF   =         0.00000000
  -V(xc)+E(xc)   XCENC  =      1016.13985680
  PAW double counting   =     30891.99262636   -30990.01355226
  entropy T*S    EENTRO =         0.00000000
  eigenvalues    EBANDS =     -3445.22010709
  atomic energy  EATOM  =     11947.90134889
  Solvation  Ediel_sol  =         0.00000000
  ---------------------------------------------------
  free energy    TOTEN  =      -648.04464902 eV

  energy without entropy =     -648.04464902  energy(sigma->0) =     -648.04464902


--------------------------------------------------------------------------------------------------------




--------------------------------------- Iteration      1(  17)  ---------------------------------------


    POTLOK:  cpu time    0.1038: real time    0.1105
    SETDIJ:  cpu time    0.0102: real time    0.0102
     EDDAV:  cpu time   10.5519: real time   10.5964
 BZINTS: Fermi energy: -2.701091;292.000000 electrons
         Band energy:***********;  BLOECHL correction: -0.063541
       DOS:  cpu time    0.0465: real time    0.0466
    CHARGE:  cpu time    0.1737: real time    0.1741
    MIXING:  cpu time    0.0052: real time    0.0052
    --------------------------------------------
      LOOP:  cpu time   10.8913: real time   10.9430

 eigenvalue-minimisations  :  4424
 total energy-change (2. order) : 0.6436754E-03  (-0.3884376E-02)
 number of electron     291.9999990 magnetization      -0.0834669
 augmentation part       12.8339322 magnetization       0.4316551

 Broyden mixing:
  rms(total) = 0.70730E+00    rms(broyden)= 0.70729E+00
  rms(prec ) = 0.75093E+00
  weight for this iteration     100.00

 eigenvalues of (default mixing * dielectric matrix)
  average eigenvalue GAMMA=   0.9525
  3.8431  2.4560  0.8509  0.8509  1.0372  0.6347  0.3224  0.3224  0.4623  0.4623
  0.0677  0.1198

 Free energy of the ion-electron system (eV)
  ---------------------------------------------------
  alpha Z        PSCENC =       156.31093555
  Ewald energy   TEWEN  =     30168.87168425
  -Hartree energ DENC   =    -40393.06569618
  -exchange      EXHF   =         0.00000000
  -V(xc)+E(xc)   XCENC  =      1016.12434517
  PAW double counting   =     30919.07393703   -31017.04506523
  entropy T*S    EENTRO =         0.00000000
  eigenvalues    EBANDS =     -3446.21549483
  atomic energy  EATOM  =     11947.90134889
  Solvation  Ediel_sol  =         0.00000000
  ---------------------------------------------------
  free energy    TOTEN  =      -648.04400534 eV

  energy without entropy =     -648.04400534  energy(sigma->0) =     -648.04400534


--------------------------------------------------------------------------------------------------------




--------------------------------------- Iteration      1(  18)  ---------------------------------------


    POTLOK:  cpu time    0.1028: real time    0.1103
    SETDIJ:  cpu time    0.0101: real time    0.0101
     EDDAV:  cpu time   10.0076: real time   10.0497
 BZINTS: Fermi energy: -2.705068;292.000000 electrons
         Band energy:***********;  BLOECHL correction: -0.064189
       DOS:  cpu time    0.0454: real time    0.0456
    CHARGE:  cpu time    0.1746: real time    0.1766
    MIXING:  cpu time    0.0055: real time    0.0055
    --------------------------------------------
      LOOP:  cpu time   10.3461: real time   10.3979

 eigenvalue-minimisations  :  4144
 total energy-change (2. order) :-0.5326883E-02  (-0.3444054E-03)
 number of electron     291.9999990 magnetization      -0.0847146
 augmentation part       12.8315370 magnetization       0.3997214

 Broyden mixing:
  rms(total) = 0.68611E+00    rms(broyden)= 0.68610E+00
  rms(prec ) = 0.73028E+00
  weight for this iteration     100.00

 eigenvalues of (default mixing * dielectric matrix)
  average eigenvalue GAMMA=   1.0536
  3.8456  2.4473  0.9496  1.1854  1.1854  1.0471  0.6494  0.6101  0.6101  0.3222
  0.3222  0.4548  0.0678

 Free energy of the ion-electron system (eV)
  ---------------------------------------------------
  alpha Z        PSCENC =       156.31093555
  Ewald energy   TEWEN  =     30168.87168425
  -Hartree energ DENC   =    -40392.97137221
  -exchange      EXHF   =         0.00000000
  -V(xc)+E(xc)   XCENC  =      1016.11821306
  PAW double counting   =     30919.55324563   -31017.52032286
  entropy T*S    EENTRO =         0.00000000
  eigenvalues    EBANDS =     -3446.31306454
  atomic energy  EATOM  =     11947.90134889
  Solvation  Ediel_sol  =         0.00000000
  ---------------------------------------------------
  free energy    TOTEN  =      -648.04933223 eV

  energy without entropy =     -648.04933223  energy(sigma->0) =     -648.04933223


--------------------------------------------------------------------------------------------------------




--------------------------------------- Iteration      1(  19)  ---------------------------------------


    POTLOK:  cpu time    0.1050: real time    0.1113
    SETDIJ:  cpu time    0.0103: real time    0.0103
     EDDAV:  cpu time   11.1982: real time   11.2481
 BZINTS: Fermi energy: -2.714961;292.000000 electrons
         Band energy:***********;  BLOECHL correction: -0.063789
       DOS:  cpu time    0.0466: real time    0.0467
    CHARGE:  cpu time    0.1732: real time    0.1736
    MIXING:  cpu time    0.0059: real time    0.0059
    --------------------------------------------
      LOOP:  cpu time   11.5391: real time   11.5959

 eigenvalue-minimisations  :  4784
 total energy-change (2. order) :-0.3757330E-01  (-0.3295643E-02)
 number of electron     291.9999989 magnetization      -0.0587571
 augmentation part       12.8424695 magnetization       0.4405354

 Broyden mixing:
  rms(total) = 0.70423E+00    rms(broyden)= 0.70422E+00
  rms(prec ) = 0.75204E+00
  weight for this iteration     100.00

 eigenvalues of (default mixing * dielectric matrix)
  average eigenvalue GAMMA=   1.0770
  3.8367  2.4511  1.4254  1.2984  1.2984  1.0146  0.7151  0.7151  0.6445  0.3222
  0.3222  0.4830  0.4830  0.0678

 Free energy of the ion-electron system (eV)
  ---------------------------------------------------
  alpha Z        PSCENC =       156.31093555
  Ewald energy   TEWEN  =     30168.87168425
  -Hartree energ DENC   =    -40392.37341781
  -exchange      EXHF   =         0.00000000
  -V(xc)+E(xc)   XCENC  =      1016.10410789
  PAW double counting   =     30919.75510270   -31017.65908726
  entropy T*S    EENTRO =         0.00000000
  eigenvalues    EBANDS =     -3446.99757975
  atomic energy  EATOM  =     11947.90134889
  Solvation  Ediel_sol  =         0.00000000
  ---------------------------------------------------
  free energy    TOTEN  =      -648.08690553 eV

  energy without entropy =     -648.08690553  energy(sigma->0) =     -648.08690553


--------------------------------------------------------------------------------------------------------




--------------------------------------- Iteration      1(  20)  ---------------------------------------


    POTLOK:  cpu time    0.1044: real time    0.1105
    SETDIJ:  cpu time    0.0102: real time    0.0102
     EDDAV:  cpu time   10.5600: real time   10.6121
 BZINTS: Fermi energy: -2.703773;292.000000 electrons
         Band energy:***********;  BLOECHL correction: -0.062012
       DOS:  cpu time    0.0447: real time    0.0448
    CHARGE:  cpu time    0.1931: real time    0.1955
    MIXING:  cpu time    0.0064: real time    0.0064
    --------------------------------------------
      LOOP:  cpu time   10.9188: real time   10.9795

 eigenvalue-minimisations  :  4176
 total energy-change (2. order) : 0.3423844E-02  (-0.1371858E-02)
 number of electron     291.9999989 magnetization      -0.0334038
 augmentation part       12.8374838 magnetization       0.5011738

 Broyden mixing:
  rms(total) = 0.73572E+00    rms(broyden)= 0.73571E+00
  rms(prec ) = 0.78031E+00
  weight for this iteration     100.00

 eigenvalues of (default mixing * dielectric matrix)
  average eigenvalue GAMMA=   1.0948
  3.8340  2.4614  1.6300  1.5165  1.5165  0.9781  0.6795  0.6795  0.6468  0.6468
  0.6523  0.3222  0.3222  0.4691  0.0678

 Free energy of the ion-electron system (eV)
  ---------------------------------------------------
  alpha Z        PSCENC =       156.31093555
  Ewald energy   TEWEN  =     30168.87168425
  -Hartree energ DENC   =    -40392.03745040
  -exchange      EXHF   =         0.00000000
  -V(xc)+E(xc)   XCENC  =      1016.09380716
  PAW double counting   =     30916.69067181   -31014.57205721
  entropy T*S    EENTRO =         0.00000000
  eigenvalues    EBANDS =     -3447.34242173
  atomic energy  EATOM  =     11947.90134889
  Solvation  Ediel_sol  =         0.00000000
  ---------------------------------------------------
  free energy    TOTEN  =      -648.08348168 eV

  energy without entropy =     -648.08348168  energy(sigma->0) =     -648.08348168


--------------------------------------------------------------------------------------------------------




--------------------------------------- Iteration      1(  21)  ---------------------------------------


    POTLOK:  cpu time    0.1113: real time    0.1140
    SETDIJ:  cpu time    0.0101: real time    0.0102
     EDDAV:  cpu time   10.6778: real time   10.7941
 BZINTS: Fermi energy: -2.705165;292.000000 electrons
         Band energy:***********;  BLOECHL correction: -0.059972
       DOS:  cpu time    0.0464: real time    0.0466
    CHARGE:  cpu time    0.1777: real time    0.1781
    MIXING:  cpu time    0.0067: real time    0.0067
    --------------------------------------------
      LOOP:  cpu time   11.0300: real time   11.1496

 eigenvalue-minimisations  :  4256
 total energy-change (2. order) : 0.1694347E-01  (-0.4783032E-03)
 number of electron     291.9999989 magnetization      -0.0464428
 augmentation part       12.8384044 magnetization       0.4969849

 Broyden mixing:
  rms(total) = 0.75394E+00    rms(broyden)= 0.75394E+00
  rms(prec ) = 0.79859E+00
  weight for this iteration     100.00

 eigenvalues of (default mixing * dielectric matrix)
  average eigenvalue GAMMA=   1.0694
  3.8304  2.4542  1.1130  1.1130  1.4647  1.4647  0.9723  0.7640  0.7640  0.3222
  0.3222  0.6638  0.6638  0.6584  0.4723  0.0678

 Free energy of the ion-electron system (eV)
  ---------------------------------------------------
  alpha Z        PSCENC =       156.31093555
  Ewald energy   TEWEN  =     30168.87168425
  -Hartree energ DENC   =    -40391.56940803
  -exchange      EXHF   =         0.00000000
  -V(xc)+E(xc)   XCENC  =      1016.08962463
  PAW double counting   =     30921.29955515   -31019.15665493
  entropy T*S    EENTRO =         0.00000000
  eigenvalues    EBANDS =     -3447.81362372
  atomic energy  EATOM  =     11947.90134889
  Solvation  Ediel_sol  =         0.00000000
  ---------------------------------------------------
  free energy    TOTEN  =      -648.06653822 eV

  energy without entropy =     -648.06653822  energy(sigma->0) =     -648.06653822


--------------------------------------------------------------------------------------------------------




--------------------------------------- Iteration      1(  22)  ---------------------------------------


    POTLOK:  cpu time    0.1103: real time    0.1112
    SETDIJ:  cpu time    0.0100: real time    0.0101
     EDDAV:  cpu time    8.9414: real time    8.9760
 BZINTS: Fermi energy: -2.704682;292.000000 electrons
         Band energy:***********;  BLOECHL correction: -0.060853
       DOS:  cpu time    0.0455: real time    0.0456
    CHARGE:  cpu time    0.1732: real time    0.1736
    MIXING:  cpu time    0.0066: real time    0.0067
    --------------------------------------------
      LOOP:  cpu time    9.2870: real time    9.3231

 eigenvalue-minimisations  :  3512
 total energy-change (2. order) :-0.1094685E-01  (-0.1764755E-03)
 number of electron     291.9999989 magnetization      -0.0032339
 augmentation part       12.8401678 magnetization       0.5475756

 Broyden mixing:
  rms(total) = 0.75355E+00    rms(broyden)= 0.75355E+00
  rms(prec ) = 0.79873E+00
  weight for this iteration     100.00

 eigenvalues of (default mixing * dielectric matrix)
  average eigenvalue GAMMA=   1.1139
  3.8332  1.8760  2.4692  1.4188  1.4188  1.0986  1.0986  0.9479  0.7885  0.7885
  0.3222  0.3222  0.6755  0.6755  0.6609  0.4738  0.0678

 Free energy of the ion-electron system (eV)
  ---------------------------------------------------
  alpha Z        PSCENC =       156.31093555
  Ewald energy   TEWEN  =     30168.87168425
  -Hartree energ DENC   =    -40391.78279457
  -exchange      EXHF   =         0.00000000
  -V(xc)+E(xc)   XCENC  =      1016.09643908
  PAW double counting   =     30915.79006344   -31013.64683008
  entropy T*S    EENTRO =         0.00000000
  eigenvalues    EBANDS =     -3447.61833162
  atomic energy  EATOM  =     11947.90134889
  Solvation  Ediel_sol  =         0.00000000
  ---------------------------------------------------
  free energy    TOTEN  =      -648.07748507 eV

  energy without entropy =     -648.07748507  energy(sigma->0) =     -648.07748507


--------------------------------------------------------------------------------------------------------




--------------------------------------- Iteration      1(  23)  ---------------------------------------


    POTLOK:  cpu time    0.1036: real time    0.1141
    SETDIJ:  cpu time    0.0101: real time    0.0101
     EDDAV:  cpu time   10.7119: real time   10.8018
 BZINTS: Fermi energy: -2.701472;292.000000 electrons
         Band energy:***********;  BLOECHL correction: -0.057392
       DOS:  cpu time    0.0452: real time    0.0453
    CHARGE:  cpu time    0.1754: real time    0.1774
    MIXING:  cpu time    0.0069: real time    0.0069
    --------------------------------------------
      LOOP:  cpu time   11.0530: real time   11.1557

 eigenvalue-minimisations  :  4480
 total energy-change (2. order) : 0.2991016E-01  (-0.4110742E-02)
 number of electron     291.9999988 magnetization       0.0542679
 augmentation part       12.8281996 magnetization       0.5967983

 Broyden mixing:
  rms(total) = 0.76657E+00    rms(broyden)= 0.76656E+00
  rms(prec ) = 0.80856E+00
  weight for this iteration     100.00

 eigenvalues of (default mixing * dielectric matrix)
  average eigenvalue GAMMA=   1.2205
  3.8403  2.1973  2.3888  2.3888  2.5032  1.2199  1.2199  0.8527  0.8527  0.8805
  0.6906  0.6906  0.6560  0.3222  0.3222  0.4749  0.4003  0.0678

 Free energy of the ion-electron system (eV)
  ---------------------------------------------------
  alpha Z        PSCENC =       156.31093555
  Ewald energy   TEWEN  =     30168.87168425
  -Hartree energ DENC   =    -40390.84202487
  -exchange      EXHF   =         0.00000000
  -V(xc)+E(xc)   XCENC  =      1016.07282249
  PAW double counting   =     30932.35363375   -31030.19085899
  entropy T*S    EENTRO =         0.00000000
  eigenvalues    EBANDS =     -3448.52511598
  atomic energy  EATOM  =     11947.90134889
  Solvation  Ediel_sol  =         0.00000000
  ---------------------------------------------------
  free energy    TOTEN  =      -648.04757491 eV

  energy without entropy =     -648.04757491  energy(sigma->0) =     -648.04757491


--------------------------------------------------------------------------------------------------------




--------------------------------------- Iteration      1(  24)  ---------------------------------------


    POTLOK:  cpu time    0.1032: real time    0.1108
    SETDIJ:  cpu time    0.0100: real time    0.0100
     EDDAV:  cpu time   11.3619: real time   11.4147
 BZINTS: Fermi energy: -2.684261;292.000000 electrons
         Band energy:***********;  BLOECHL correction: -0.046968
       DOS:  cpu time    0.0466: real time    0.0467
    CHARGE:  cpu time    0.1720: real time    0.1724
    MIXING:  cpu time    0.0074: real time    0.0075
    --------------------------------------------
      LOOP:  cpu time   11.7013: real time   11.7621

 eigenvalue-minimisations  :  4864
 total energy-change (2. order) : 0.1657620E-01  (-0.1087849E-01)
 number of electron     291.9999988 magnetization       0.0189158
 augmentation part       12.7945004 magnetization       0.2666796

 Broyden mixing:
  rms(total) = 0.63163E+00    rms(broyden)= 0.63139E+00
  rms(prec ) = 0.67189E+00
  weight for this iteration     100.00

 eigenvalues of (default mixing * dielectric matrix)
  average eigenvalue GAMMA=   1.1374
  3.8367  2.0725  2.5163  2.0931  2.0931  1.1887  1.1887  0.8444  0.8444  0.8638
  0.6839  0.6839  0.6593  0.3222  0.3222  0.4745  0.4280  0.4280  0.0678

 Free energy of the ion-electron system (eV)
  ---------------------------------------------------
  alpha Z        PSCENC =       156.31093555
  Ewald energy   TEWEN  =     30168.87168425
  -Hartree energ DENC   =    -40389.77281836
  -exchange      EXHF   =         0.00000000
  -V(xc)+E(xc)   XCENC  =      1016.04553334
  PAW double counting   =     30958.12310159   -31055.93482108
  entropy T*S    EENTRO =         0.00000000
  eigenvalues    EBANDS =     -3449.57596289
  atomic energy  EATOM  =     11947.90134889
  Solvation  Ediel_sol  =         0.00000000
  ---------------------------------------------------
  free energy    TOTEN  =      -648.03099871 eV

  energy without entropy =     -648.03099871  energy(sigma->0) =     -648.03099871


--------------------------------------------------------------------------------------------------------




--------------------------------------- Iteration      1(  25)  ---------------------------------------


    POTLOK:  cpu time    0.1049: real time    0.1110
    SETDIJ:  cpu time    0.0103: real time    0.0103
     EDDAV:  cpu time    9.6445: real time    9.6893
 BZINTS: Fermi energy: -2.679614;292.000000 electrons
         Band energy:***********;  BLOECHL correction: -0.049751
       DOS:  cpu time    0.0459: real time    0.0460
    CHARGE:  cpu time    0.1755: real time    0.1760
[...]
   -.405E+01 0.998E+01 0.777E+01   0.384E+01 -.100E+02 -.773E+01   0.182E+00 0.794E-01 -.346E-01   0.399E-01 -.537E-01 -.122E-01
   -.110E+02 0.597E+01 0.780E+01   0.109E+02 -.601E+01 -.789E+01   0.688E-01 -.174E-01 0.133E+00   0.552E-01 0.364E-01 -.203E-01
   -.169E+01 0.310E+01 0.662E+01   0.164E+01 -.316E+01 -.659E+01   0.366E-01 0.341E-01 -.153E-01   -.113E-02 0.115E-01 -.712E-02
   -.327E+01 0.418E+01 0.743E+01   0.328E+01 -.417E+01 -.746E+01   0.651E-02 0.218E-01 0.456E-01   -.575E-02 -.188E-01 -.944E-02
   -.403E-01 0.557E+00 0.593E+01   0.494E-01 -.491E+00 -.594E+01   0.408E-02 -.286E-01 0.109E-01   -.822E-02 -.477E-01 -.647E-02
   -.446E-01 -.567E+00 0.595E+01   0.535E-01 0.502E+00 -.596E+01   0.398E-02 0.257E-01 0.110E-01   -.825E-02 0.478E-01 -.645E-02
   0.504E+01 0.407E+00 0.392E+01   -.496E+01 -.415E+00 -.386E+01   0.643E-02 -.131E-02 -.477E-01   -.537E-01 0.241E-02 -.121E-01
   0.505E+01 -.406E+00 0.395E+01   -.497E+01 0.414E+00 -.390E+01   0.628E-02 0.197E-03 -.472E-01   -.537E-01 -.243E-02 -.121E-01
   0.243E+02 0.769E+01 0.141E+02   -.237E+02 -.801E+01 -.146E+02   -.512E+00 0.496E+00 0.676E+00   -.106E+00 0.334E-02 -.406E-01
   0.243E+02 -.765E+01 0.140E+02   -.237E+02 0.797E+01 -.146E+02   -.511E+00 -.494E+00 0.675E+00   -.105E+00 -.252E-02 -.409E-01
   -.242E+02 0.760E+01 0.132E+02   0.235E+02 -.791E+01 -.138E+02   0.510E+00 0.491E+00 0.634E+00   0.124E+00 -.597E-02 -.162E-01
   -.242E+02 -.757E+01 0.132E+02   0.235E+02 0.788E+01 -.138E+02   0.509E+00 -.489E+00 0.634E+00   0.124E+00 0.604E-02 -.159E-01
   -.500E+01 0.382E+00 0.696E+01   0.493E+01 -.421E+00 -.690E+01   0.178E-04 -.103E-01 -.316E-01   0.463E-01 0.339E-01 -.182E-01
   -.500E+01 -.364E+00 0.695E+01   0.493E+01 0.401E+00 -.690E+01   -.401E-03 0.989E-02 -.318E-01   0.464E-01 -.335E-01 -.183E-01
   -.329E+01 -.417E+01 0.743E+01   0.329E+01 0.416E+01 -.746E+01   0.836E-02 -.226E-01 0.452E-01   -.596E-02 0.189E-01 -.945E-02
   -.171E+01 -.312E+01 0.663E+01   0.166E+01 0.318E+01 -.661E+01   0.366E-01 -.351E-01 -.151E-01   -.992E-03 -.116E-01 -.712E-02
   0.330E+01 -.416E+01 0.522E+01   -.330E+01 0.413E+01 -.526E+01   0.486E-03 -.244E-01 0.296E-01   -.897E-02 0.464E-01 -.644E-02
   0.166E+01 -.310E+01 0.498E+01   -.160E+01 0.318E+01 -.496E+01   -.305E-01 -.321E-01 -.203E-01   -.524E-02 -.277E-01 -.543E-02
   0.111E+02 -.593E+01 0.621E+01   -.110E+02 0.596E+01 -.629E+01   -.698E-01 0.149E-01 0.124E+00   -.441E-01 -.158E-01 -.216E-01
   0.402E+01 -.101E+02 0.681E+01   -.382E+01 0.101E+02 -.677E+01   -.187E+00 -.783E-01 -.326E-01   -.245E-01 0.658E-01 -.153E-01
   -.882E+01 -.333E+02 0.232E+02   0.149E+02 0.299E+02 -.222E+02   -.567E+01 0.313E+01 -.908E+00   -.145E+00 0.147E+00 -.690E-01
   -.208E+01 -.178E+02 0.122E+02   0.239E+01 0.171E+02 -.124E+02   -.203E+00 0.700E+00 0.304E+00   -.566E-01 0.897E-01 -.524E-01
   0.854E+01 -.335E+02 0.205E+02   -.147E+02 0.300E+02 -.196E+02   0.566E+01 0.312E+01 -.971E+00   0.157E+00 0.154E+00 -.429E-01
   0.209E+01 -.178E+02 0.110E+02   -.239E+01 0.171E+02 -.112E+02   0.205E+00 0.700E+00 0.297E+00   0.488E-01 0.767E-01 -.357E-01
   -.110E+02 -.595E+01 0.780E+01   0.109E+02 0.600E+01 -.789E+01   0.680E-01 0.170E-01 0.133E+00   0.552E-01 -.362E-01 -.203E-01
   -.406E+01 -.997E+01 0.777E+01   0.385E+01 0.100E+02 -.773E+01   0.183E+00 -.775E-01 -.350E-01   0.400E-01 0.533E-01 -.121E-01
   -.161E+01 -.289E+01 0.790E+01   0.155E+01 0.291E+01 -.793E+01   0.307E-01 -.811E-01 0.263E-01   0.425E-01 0.347E-01 -.709E-02
   -.175E+01 -.407E+01 0.782E+01   0.176E+01 0.418E+01 -.783E+01   -.154E-01 -.563E-01 0.117E-01   0.287E-01 -.291E-01 -.534E-02
   0.372E-02 -.187E+01 0.588E+01   -.307E-02 0.195E+01 -.590E+01   -.314E-03 -.575E-01 0.220E-01   -.284E-02 -.451E-01 -.445E-02
   -.195E-01 -.267E+01 0.585E+01   0.243E-01 0.269E+01 -.583E+01   -.251E-03 -.515E-01 -.176E-01   -.265E-02 0.363E-01 -.486E-02
   0.163E+01 -.284E+01 0.620E+01   -.157E+01 0.286E+01 -.621E+01   -.273E-01 -.745E-01 0.159E-01   -.375E-01 0.158E-01 -.729E-02
   0.170E+01 -.407E+01 0.674E+01   -.171E+01 0.416E+01 -.675E+01   0.141E-01 -.558E-01 0.111E-01   -.255E-01 -.120E-01 -.490E-02
   -.203E+01 -.653E+01 0.106E+02   0.243E+01 0.629E+01 -.107E+02   -.376E+00 0.131E+00 0.136E+00   -.110E-01 0.684E-01 -.242E-01
   0.184E+01 -.476E+01 0.878E+01   -.182E+01 0.471E+01 -.880E+01   -.398E-01 0.887E-01 0.280E-01   0.111E-01 -.824E-02 -.889E-02
   0.357E-01 -.553E+01 0.576E+01   -.291E-01 0.489E+01 -.530E+01   0.259E-02 0.528E+00 -.435E+00   -.694E-02 0.394E-01 -.259E-01
   0.361E-02 -.647E+01 0.735E+01   0.348E-02 0.615E+01 -.738E+01   -.180E-02 0.334E+00 0.259E-01   -.835E-02 0.743E-01 -.116E-01
   0.208E+01 -.655E+01 0.102E+02   -.248E+01 0.632E+01 -.103E+02   0.376E+00 0.132E+00 0.132E+00   0.163E-01 0.468E-01 -.162E-01
   -.186E+01 -.479E+01 0.832E+01   0.182E+01 0.472E+01 -.834E+01   0.361E-01 0.830E-01 0.248E-01   -.386E-02 0.159E-01 -.887E-02
   0.129E+00 0.869E-01 -.615E+03   -.996E-01 -.960E-01 0.597E+03   -.565E-01 -.384E-02 0.186E+02   0.116E-01 0.890E-02 -.706E+00
 -----------------------------------------------------------------------------------------------
   0.149E-01 -.494E-02 -.173E+02   -.635E-13 -.121E-12 0.341E-12   -.566E-01 -.557E-02 0.192E+02   0.388E-01 0.656E-02 -.183E+01
 
 
 POSITION                                       TOTAL-FORCE (eV/Angst)
 -----------------------------------------------------------------------------------
     -7.43646     12.76132      7.46502        -0.010061      0.000121     -0.000775
      0.00099      1.42036      7.46622         0.012317      0.002664     -0.001003
      2.48437      0.02688      7.46310        -0.018684     -0.047634      0.001422
      2.48227      1.44777      7.47377         0.021112      0.039970     -0.000969
      4.95879      0.02654      7.46659         0.011493     -0.045270     -0.002198
      4.96101      1.44747      7.47628        -0.021216      0.040601     -0.004936
      0.00117     12.76085      7.46635         0.012377     -0.002186     -0.001426
      7.44214      1.41989      7.46514        -0.014886      0.000340     -0.000724
      2.48235     12.73346      7.47377         0.021118     -0.039040     -0.001191
      9.92363      1.39216      7.46307        -0.017595      0.048610      0.001738
      4.96090     12.73378      7.47615        -0.020731     -0.038880     -0.005053
     12.39788      1.39254      7.46652         0.011100      0.046990     -0.002167
     13.63355      2.11217      7.46766        -0.013960     -0.022028     -0.001047
     -1.25019      3.53094      7.47806        -0.003311      0.030346     -0.008691
      1.23958      2.14491      7.47515         0.000624     -0.027194     -0.000591
      1.23571      3.56801      7.49964         0.011840      0.047428      0.020462
      3.72168      2.17339      7.49118        -0.002285     -0.078532     -0.013849
      3.72158      3.59155      7.53825         0.000952      0.083425     -0.002286
      6.20371      2.14448      7.47630        -0.006689     -0.025898     -0.003726
      6.20724      3.56761      7.49982        -0.010908      0.046295      0.016023
      8.68780      2.11158      7.46280         0.014959     -0.017716      0.002343
      8.69275      3.53052      7.47044         0.003763      0.034093     -0.003607
     11.16058      2.10405      7.46475         0.003142     -0.009722     -0.004810
     11.16040      3.52514      7.46701        -0.003621      0.018121     -0.004982
     12.39298      4.24003      7.47577         0.019611     -0.015957     -0.006396
     -2.49196      5.66417      7.48271        -0.002689      0.008967     -0.011741
     -0.01673      4.24835      7.50018        -0.009752     -0.007160     -0.006984
     -0.04352      5.66418      7.52478         0.003601     -0.028935      0.023485
      2.47399      4.31025      7.55085         0.062625     -0.078147      0.015647
      2.42231      5.72100      7.64380         0.318422      0.176301     -0.034428
      4.96927      4.30993      7.55402        -0.064086     -0.076296      0.008952
      5.02124      5.72056      7.64976        -0.322516      0.173580     -0.039995
      7.45930      4.24802      7.49456         0.013712     -0.002397     -0.005611
      7.48582      5.66404      7.51714        -0.002995     -0.031445      0.023797
      9.92757      4.23984      7.46873        -0.012519     -0.017567      0.000850
      9.93388      5.66404      7.47379         0.002357      0.012999     -0.001314
     -3.71834      6.37983      7.47526         0.005101     -0.011757     -0.004273
     -3.71835      7.80163      7.47518         0.004750      0.010149     -0.004234
     -1.27061      6.37928      7.50484         0.024419     -0.008152     -0.007078
     -1.27059      7.80210      7.50472         0.024178      0.007413     -0.006655
      1.17778      6.37139      7.57719         0.026743      0.169306      0.039480
      1.17776      7.80982      7.57721         0.026896     -0.170121      0.038601
      6.26517      6.37139      7.57758        -0.026131      0.169523      0.028592
      6.26519      7.80991      7.57758        -0.027578     -0.167961      0.028413
      8.71254      6.37940      7.49227        -0.016458     -0.017277      0.003148
      8.71253      7.80207      7.49226        -0.017583      0.015739      0.003100
     -4.94454      8.51739      7.47374         0.006125     -0.013012     -0.001720
     -4.95086      9.94157      7.46864        -0.013188      0.017010      0.001009
     -2.49192      8.51726      7.48251        -0.003305     -0.011263     -0.011356
     -2.48528      9.94146      7.47556         0.019706      0.015626     -0.006136
     -0.04344      8.51709      7.52469         0.001189      0.028710      0.023606
     -0.01659      9.93289      7.50008        -0.012402      0.008411     -0.006745
      2.42223      8.46029      7.64381         0.321063     -0.177681     -0.034498
      2.47406      9.87094      7.55082         0.062137      0.080559      0.015291
      5.02127      8.46081      7.64974        -0.321165     -0.174278     -0.041660
      4.96926      9.87139      7.55392        -0.064363      0.075986      0.008972
      7.48578      8.51733      7.51713        -0.004134      0.029897      0.024087
      7.45917      9.93330      7.49453         0.014179      0.004680     -0.005923
     -6.18578     10.65076      7.47041         0.007142     -0.031735     -0.003694
     -6.19072     12.06970      7.46279         0.015592      0.017723      0.002003
     -3.71797     10.65624      7.46686        -0.002448     -0.019145     -0.004481
     -3.71775     12.07725      7.46475         0.001937      0.011898     -0.005201
     -1.25007     10.65037      7.47797        -0.003743     -0.031236     -0.008778
     -1.24461     12.06922      7.46772        -0.014419      0.021131     -0.001092
      1.23584     10.61318      7.49961         0.010722     -0.045675      0.020549
      1.23974     12.03627      7.47522        -0.001225      0.027378     -0.000846
      3.72156     10.58970      7.53815         0.002329     -0.084329     -0.001907
      3.72167     12.00784      7.49110        -0.003049      0.079239     -0.013930
      6.20714     10.61372      7.49970        -0.010839     -0.048205      0.016256
      6.20350     12.03678      7.47613        -0.004150      0.026686     -0.003453
      3.72077      7.09090      8.31109        -0.014649     -0.004085     -0.023661
 -----------------------------------------------------------------------------------
    total drift:                               -0.002820     -0.003941      0.055982


--------------------------------------------------------------------------------------------------------



  FREE ENERGIE OF THE ION-ELECTRON SYSTEM (eV)
  ---------------------------------------------------
  free  energy   TOTEN  =      -654.61251811 eV

  energy  without entropy=     -654.61251811  energy(sigma->0) =     -654.61251811
 


--------------------------------------------------------------------------------------------------------


    POTLOK:  cpu time    0.1177: real time    0.1180


--------------------------------------------------------------------------------------------------------


     LOOP+:  cpu time  983.4015: real time  989.6597
    4ORBIT:  cpu time    0.0000: real time    0.0000
 


 total charge     
 
# of ion       s       p       d       tot
------------------------------------------
    1        0.864   1.781   0.000   2.645
    2        0.864   1.781   0.000   2.645
    3        0.864   1.782   0.000   2.646
    4        0.864   1.780   0.000   2.643
    5        0.864   1.782   0.000   2.646
    6        0.864   1.780   0.000   2.643
    7        0.864   1.781   0.000   2.645
    8        0.864   1.781   0.000   2.645
    9        0.864   1.780   0.000   2.643
   10        0.864   1.782   0.000   2.646
   11        0.864   1.780   0.000   2.643
   12        0.864   1.782   0.000   2.646
   13        0.865   1.786   0.000   2.651
   14        0.866   1.788   0.000   2.653
   15        0.863   1.778   0.000   2.642
   16        0.863   1.771   0.000   2.634
   17        0.862   1.773   0.000   2.635
   18        0.863   1.766   0.000   2.630
   19        0.863   1.779   0.000   2.642
   20        0.863   1.771   0.000   2.634
   21        0.865   1.786   0.000   2.650
   22        0.866   1.787   0.000   2.653
   23        0.865   1.784   0.000   2.649
   24        0.866   1.788   0.000   2.653
   25        0.865   1.785   0.000   2.650
   26        0.868   1.794   0.000   2.662
   27        0.867   1.788   0.000   2.655
   28        0.871   1.803   0.000   2.674
   29        0.861   1.758   0.000   2.620
   30        0.875   1.688   0.000   2.564
   31        0.861   1.758   0.000   2.620
   32        0.875   1.688   0.000   2.564
   33        0.867   1.789   0.000   2.655
   34        0.871   1.803   0.000   2.674
   35        0.865   1.785   0.000   2.650
   36        0.868   1.795   0.000   2.662
   37        0.867   1.795   0.000   2.662
   38        0.867   1.795   0.000   2.662
   39        0.868   1.796   0.000   2.663
   40        0.868   1.796   0.000   2.663
   41        0.876   1.784   0.000   2.660
   42        0.876   1.784   0.000   2.660
   43        0.876   1.784   0.000   2.660
   44        0.876   1.784   0.000   2.660
   45        0.868   1.795   0.000   2.663
   46        0.868   1.795   0.000   2.663
   47        0.868   1.795   0.000   2.662
   48        0.865   1.785   0.000   2.650
   49        0.868   1.794   0.000   2.662
   50        0.865   1.785   0.000   2.650
   51        0.871   1.803   0.000   2.674
   52        0.867   1.788   0.000   2.655
   53        0.875   1.688   0.000   2.564
   54        0.861   1.758   0.000   2.620
   55        0.875   1.688   0.000   2.564
   56        0.861   1.758   0.000   2.620
   57        0.871   1.803   0.000   2.674
   58        0.867   1.789   0.000   2.655
   59        0.866   1.787   0.000   2.653
   60        0.865   1.786   0.000   2.650
   61        0.866   1.788   0.000   2.653
   62        0.865   1.784   0.000   2.649
   63        0.866   1.788   0.000   2.653
   64        0.865   1.786   0.000   2.651
   65        0.863   1.771   0.000   2.634
   66        0.863   1.778   0.000   2.642
   67        0.863   1.766   0.000   2.630
   68        0.862   1.773   0.000   2.635
   69        0.863   1.771   0.000   2.634
   70        0.863   1.779   0.000   2.642
   71        0.414   6.288   4.243  10.945
--------------------------------------------------
tot         61.054 130.755   4.243 196.053
 


 magnetization (x)
 
# of ion       s       p       d       tot
------------------------------------------
    1        0.000   0.001   0.000   0.001
    2        0.000   0.001   0.000   0.001
    3       -0.000   0.000   0.000  -0.000
    4        0.000   0.001   0.000   0.001
    5       -0.000  -0.000   0.000  -0.001
    6       -0.000   0.001   0.000   0.001
    7        0.000   0.001   0.000   0.001
    8        0.000   0.001   0.000   0.001
    9        0.000   0.001   0.000   0.001
   10       -0.000   0.000   0.000  -0.000
   11       -0.000   0.001   0.000   0.001
   12       -0.000  -0.000   0.000  -0.001
   13       -0.000   0.000   0.000   0.000
   14       -0.000   0.000   0.000   0.000
   15       -0.000  -0.001   0.000  -0.001
   16        0.000   0.001   0.000   0.001
   17        0.000   0.000   0.000   0.000
   18        0.000   0.004   0.000   0.004
   19       -0.000  -0.001   0.000  -0.001
   20        0.000   0.001   0.000   0.001
   21       -0.000  -0.000   0.000  -0.001
   22       -0.000  -0.000   0.000  -0.000
   23        0.000   0.001   0.000   0.002
   24        0.000   0.001   0.000   0.001
   25       -0.000  -0.001   0.000  -0.001
   26       -0.000   0.000   0.000   0.000
   27        0.000   0.000   0.000   0.000
   28        0.000   0.002   0.000   0.003
   29       -0.000  -0.000   0.000  -0.001
   30        0.001   0.010   0.000   0.011
   31       -0.000  -0.001   0.000  -0.001
   32        0.001   0.009   0.000   0.011
   33        0.000   0.000   0.000   0.000
   34        0.000   0.002   0.000   0.003
   35       -0.000  -0.001   0.000  -0.001
   36        0.000   0.001   0.000   0.001
   37        0.000   0.001   0.000   0.002
   38        0.000   0.001   0.000   0.002
   39       -0.000  -0.001   0.000  -0.001
   40       -0.000  -0.001   0.000  -0.001
   41       -0.000  -0.003   0.000  -0.003
   42       -0.000  -0.003   0.000  -0.003
   43       -0.000  -0.002   0.000  -0.002
   44       -0.000  -0.002   0.000  -0.002
   45       -0.000  -0.001   0.000  -0.001
   46       -0.000  -0.001   0.000  -0.001
   47        0.000   0.001   0.000   0.001
   48       -0.000  -0.001   0.000  -0.001
   49       -0.000   0.000   0.000   0.000
   50       -0.000  -0.001   0.000  -0.001
   51        0.000   0.002   0.000   0.003
   52        0.000   0.000   0.000   0.000
   53        0.001   0.010   0.000   0.011
   54       -0.000  -0.000   0.000  -0.001
   55        0.001   0.009   0.000   0.011
   56       -0.000  -0.001   0.000  -0.001
   57        0.000   0.002   0.000   0.003
   58        0.000   0.000   0.000   0.000
   59       -0.000  -0.000   0.000  -0.000
   60       -0.000  -0.000   0.000  -0.001
   61        0.000   0.001   0.000   0.001
   62        0.000   0.001   0.000   0.002
   63       -0.000   0.000   0.000   0.000
   64       -0.000   0.000   0.000   0.000
   65        0.000   0.001   0.000   0.001
   66       -0.000  -0.001   0.000  -0.001
   67        0.000   0.004   0.000   0.004
   68        0.000   0.000   0.000   0.000
   69        0.000   0.001   0.000   0.001
   70       -0.000  -0.001   0.000  -0.001
   71        0.010  -0.001  -0.176  -0.166
--------------------------------------------------
tot          0.015   0.053  -0.176  -0.108
 
 BZINTS: Fermi energy: -2.359968;292.000000 electrons
         Band energy:***********;  BLOECHL correction: -0.020284

 total amount of memory used by VASP MPI-rank0    86190. kBytes
=======================================================================

   base      :      30000. kBytes
   nonl-proj :      11014. kBytes
   fftplans  :       3786. kBytes
   grid      :       9292. kBytes
   one-center:        186. kBytes
   wavefun   :      31912. kBytes
 
  
  
 General timing and accounting informations for this job:
 ========================================================
  
                  Total CPU time used (sec):      998.294
                            User time (sec):      986.057
                          System time (sec):       12.236
                         Elapsed time (sec):     1004.587
  
                   Maximum memory used (kb):      173804.
                   Average memory used (kb):           0.
  
                          Minor page faults:       147545
                          Major page faults:            0
                 Voluntary context switches:          553
