       N       E                     dE             d eps       ncg     rms          rms(c)
DAV:   1     0.252391492140E+04    0.25239E+04   -0.11173E+05  4352   0.106E+03
DAV:   2    -0.242643311851E+03   -0.27666E+04   -0.26408E+04  5520   0.279E+02
DAV:   3    -0.704619536387E+03   -0.46198E+03   -0.45863E+03  4576   0.120E+02
DAV:   4    -0.721167518561E+03   -0.16548E+02   -0.16410E+02  4640   0.281E+01
DAV:   5    -0.721705895589E+03   -0.53838E+00   -0.53682E+00  5248   0.427E+00    0.478E+01
DAV:   6    -0.728528407716E+03   -0.68225E+01   -0.84678E+01  5016   0.288E+01    0.820E+01
DAV:   7    -0.677839267110E+03    0.50689E+02   -0.61258E+01  4944   0.509E+01    0.333E+01
DAV:   8    -0.679881857551E+03   -0.20426E+01   -0.80482E+01  5328   0.248E+01    0.310E+01
DAV:   9    -0.662919998487E+03    0.16962E+02   -0.30842E+01  4584   0.134E+01    0.113E+01
DAV:  10    -0.663447561724E+03   -0.52756E+00   -0.38714E+00  4592   0.495E+00    0.800E+00
DAV:  11    -0.663507407749E+03   -0.59846E-01   -0.11188E+00  4552   0.246E+00    0.752E+00
DAV:  12    -0.663681904762E+03   -0.17450E+00   -0.13113E-01  4584   0.937E-01    0.681E+00
DAV:  13    -0.663771528790E+03   -0.89624E-01   -0.75271E-01  4696   0.237E+00    0.300E+00
DAV:  14    -0.663762800472E+03    0.87283E-02   -0.15794E-01  4568   0.125E+00    0.231E+00
DAV:  15    -0.663816463000E+03   -0.53663E-01   -0.10964E-01  4600   0.868E-01    0.125E+00
DAV:  16    -0.663815559597E+03    0.90340E-03   -0.23769E-02  4824   0.399E-01    0.862E-01
DAV:  17    -0.663816573322E+03   -0.10137E-02   -0.42523E-03  4784   0.175E-01    0.632E-01
DAV:  18    -0.663816475437E+03    0.97886E-04   -0.12135E-03  4760   0.923E-02    0.472E-01
DAV:  19    -0.663815954513E+03    0.52092E-03   -0.48366E-04  3648   0.668E-02    0.297E-01
DAV:  20    -0.663815794423E+03    0.16009E-03   -0.21020E-04  3072   0.453E-02    0.214E-01
DAV:  21    -0.663815791606E+03    0.28172E-05   -0.11208E-04  2864   0.278E-02
   1 F= -.67022992E+03 E0= -.67022992E+03  d E =0.000000E+00  mag=    -2.9962
