       N       E                     dE             d eps       ncg     rms          ort
DAV:   1     0.254215031463E+04    0.25422E+04   -0.11630E+05   768   0.110E+03
DAV:   2    -0.239100924846E+03   -0.27813E+04   -0.26577E+04   768   0.279E+02
DAV:   3    -0.702160387050E+03   -0.46306E+03   -0.45997E+03   768   0.120E+02
DAV:   4    -0.718886172262E+03   -0.16726E+02   -0.16588E+02   768   0.282E+01
DAV:   5    -0.719435886096E+03   -0.54971E+00   -0.54802E+00   768   0.430E+00
SDA:   6    -0.549398161350E+03    0.17004E+03   -0.54802E+00   768   0.515E+03 0.000E+00
CGA:   7    -0.601784844835E+03   -0.52387E+02   -0.25234E+02   768   0.347E+03 0.484E+03
CGA:   8    -0.638017319681E+03   -0.36232E+02   -0.15652E+02   768   0.186E+03 0.341E+03
CGA:   9    -0.652099920807E+03   -0.14083E+02   -0.10536E+02   768   0.340E+02 0.338E+02
CGA:  10    -0.659239605064E+03   -0.71397E+01   -0.71386E+01   768   0.200E+02-0.552E+00
CGA:  11    -0.660828702057E+03   -0.15891E+01   -0.16144E+01   768   0.521E+01 0.338E-01
CGA:  12    -0.661748515490E+03   -0.91981E+00   -0.91965E+00   768   0.479E+01 0.218E-01
CGA:  13    -0.662134901600E+03   -0.38639E+00   -0.27744E+00   768   0.138E+01 0.167E+01
CGA:  14    -0.662275660854E+03   -0.14076E+00   -0.13372E+00   768   0.108E+01 0.600E-01
CGA:  15    -0.662410116985E+03   -0.13446E+00   -0.13316E+00   768   0.141E+01 0.394E-02
CGA:  16    -0.662481879553E+03   -0.71763E-01   -0.53759E-01   768   0.681E+00 0.475E+00
CGA:  17    -0.662530258163E+03   -0.48379E-01   -0.48386E-01   768   0.415E+00 0.548E-02
CGA:  18    -0.662573390652E+03   -0.43132E-01   -0.42975E-01   768   0.650E+00 0.114E-02
CGA:  19    -0.662598262541E+03   -0.24872E-01   -0.15178E-01   768   0.486E+00 0.408E+00
CGA:  20    -0.662637470343E+03   -0.39208E-01   -0.39428E-01   768   0.120E+00-0.518E-03
CGA:  21    -0.662671772481E+03   -0.34302E-01   -0.30735E-01   768   0.307E-01 0.242E-01
CGA:  22    -0.662687765299E+03   -0.15993E-01   -0.15479E-01   768   0.548E-01 0.184E-02
CGA:  23    -0.662695622817E+03   -0.78575E-02   -0.78333E-02   768   0.310E-01-0.226E-03
CGA:  24    -0.662705270910E+03   -0.96481E-02   -0.96320E-02   768   0.109E-01 0.741E-04
CGA:  25    -0.662707792372E+03   -0.25215E-02   -0.25198E-02   768   0.175E-01-0.446E-04
CGA:  26    -0.662710776117E+03   -0.29837E-02   -0.29846E-02   768   0.424E-02-0.138E-03
CGA:  27    -0.662712569447E+03   -0.17933E-02   -0.18336E-02   768   0.722E-02-0.154E-03
CGA:  28    -0.662713366248E+03   -0.79680E-03   -0.80396E-03   768   0.310E-02-0.347E-04
CGA:  29    -0.662714601592E+03   -0.12353E-02   -0.12339E-02   768   0.192E-02 0.181E-05
CGA:  30    -0.662714874918E+03   -0.27333E-03   -0.27280E-03   768   0.172E-02 0.109E-04
CGA:  31    -0.662715267943E+03   -0.39302E-03   -0.39098E-03   768   0.493E-03 0.435E-04
CGA:  32    -0.662715377835E+03   -0.10989E-03   -0.10960E-03   768   0.743E-03 0.990E-05
CGA:  33    -0.662715497616E+03   -0.11978E-03   -0.11849E-03   768   0.244E-03 0.334E-05
CGA:  34    -0.662715558534E+03   -0.60918E-04   -0.61543E-04   768   0.337E-03-0.650E-05
   1 F= -.66925060E+03 E0= -.66923466E+03  d E =-.669251E+03  mag=     1.4630
       N       E                     dE             d eps       ncg     rms          ort
SDA:   1    -0.661592672989E+03    0.11228E+01    0.00000E+00   768   0.382E+01 0.000E+00
CGA:   2    -0.662116624883E+03   -0.52395E+00   -0.52605E+00   768   0.165E+01 0.556E-02
CGA:   3    -0.662424840048E+03   -0.30822E+00   -0.30829E+00   768   0.112E+01-0.221E-01
CGA:   4    -0.662620197133E+03   -0.19536E+00   -0.19553E+00   768   0.408E+00 0.122E-01
CGA:   5    -0.662691918889E+03   -0.71722E-01   -0.71687E-01   768   0.144E+00-0.132E-02
CGA:   6    -0.662717047922E+03   -0.25129E-01   -0.25144E-01   768   0.646E-01 0.870E-03
CGA:   7    -0.662728278092E+03   -0.11230E-01   -0.11226E-01   768   0.328E-01-0.183E-03
CGA:   8    -0.662733988692E+03   -0.57106E-02   -0.57123E-02   768   0.121E-01 0.117E-03
CGA:   9    -0.662736362346E+03   -0.23737E-02   -0.23741E-02   768   0.439E-02-0.142E-04
CGA:  10    -0.662737084758E+03   -0.72241E-03   -0.72270E-03   768   0.176E-02 0.124E-04
CGA:  11    -0.662737375530E+03   -0.29077E-03   -0.29076E-03   768   0.616E-03 0.399E-06
CGA:  12    -0.662737501557E+03   -0.12603E-03   -0.12599E-03   768   0.263E-03 0.141E-05
CGA:  13    -0.662737548779E+03   -0.47222E-04   -0.47218E-04   768   0.155E-03-0.134E-05
   2 F= -.66927235E+03 E0= -.66925904E+03  d E =-.217488E-01  mag=     1.4057
       N       E                     dE             d eps       ncg     rms          ort
SDA:   1    -0.662700877096E+03    0.36624E-01    0.00000E+00   768   0.124E+00 0.000E+00
CGA:   2    -0.662718446164E+03   -0.17569E-01   -0.17561E-01   768   0.537E-01-0.502E-04
CGA:   3    -0.662728682720E+03   -0.10237E-01   -0.10235E-01   768   0.348E-01 0.104E-03
CGA:   4    -0.662734914493E+03   -0.62318E-02   -0.62314E-02   768   0.141E-01-0.811E-04
CGA:   5    -0.662737237712E+03   -0.23232E-02   -0.23235E-02   768   0.487E-02 0.353E-05
CGA:   6    -0.662738085974E+03   -0.84826E-03   -0.84820E-03   768   0.227E-02-0.372E-05
CGA:   7    -0.662738473291E+03   -0.38732E-03   -0.38734E-03   768   0.105E-02 0.966E-06
CGA:   8    -0.662738663166E+03   -0.18988E-03   -0.18988E-03   768   0.411E-03-0.461E-05
CGA:   9    -0.662738738845E+03   -0.75678E-04   -0.75691E-04   768   0.158E-03-0.246E-05
   3 F= -.66927359E+03 E0= -.66926008E+03  d E =-.229871E-01  mag=     1.4076
       N       E                     dE             d eps       ncg     rms          ort
SDA:   1    -0.662539426568E+03    0.19924E+00    0.00000E+00   768   0.764E+00 0.000E+00
CGA:   2    -0.662637421883E+03   -0.97995E-01   -0.98194E-01   768   0.289E+00 0.453E-03
CGA:   3    -0.662692435418E+03   -0.55014E-01   -0.55062E-01   768   0.207E+00-0.223E-02
CGA:   4    -0.662731611832E+03   -0.39176E-01   -0.39144E-01   768   0.913E-01 0.151E-02
CGA:   5    -0.662747960748E+03   -0.16349E-01   -0.16349E-01   768   0.324E-01-0.245E-03
CGA:   6    -0.662753277020E+03   -0.53163E-02   -0.53184E-02   768   0.126E-01 0.810E-04
CGA:   7    -0.662755351844E+03   -0.20748E-02   -0.20746E-02   768   0.584E-02-0.572E-05
CGA:   8    -0.662756378007E+03   -0.10262E-02   -0.10262E-02   768   0.220E-02 0.183E-04
CGA:   9    -0.662756795709E+03   -0.41770E-03   -0.41767E-03   768   0.795E-03 0.401E-05
CGA:  10    -0.662756924921E+03   -0.12921E-03   -0.12926E-03   768   0.313E-03 0.324E-05
CGA:  11    -0.662756977548E+03   -0.52627E-04   -0.52624E-04   768   0.113E-03-0.348E-06
   4 F= -.66929153E+03 E0= -.66927852E+03  d E =-.179398E-01  mag=     1.3912
       N       E                     dE             d eps       ncg     rms          ort
SDA:   1    -0.660836060161E+03    0.19209E+01    0.00000E+00   768   0.706E+01 0.000E+00
CGA:   2    -0.661711134536E+03   -0.87507E+00   -0.88181E+00   768   0.265E+01 0.354E-03
CGA:   3    -0.662204332163E+03   -0.49320E+00   -0.49433E+00   768   0.193E+01-0.648E-01
CGA:   4    -0.662568179704E+03   -0.36385E+00   -0.36277E+00   768   0.772E+00 0.403E-01
CGA:   5    -0.662717317795E+03   -0.14914E+00   -0.14926E+00   768   0.272E+00-0.529E-02
CGA:   6    -0.662764462330E+03   -0.47145E-01   -0.47154E-01   768   0.101E+00 0.204E-02
CGA:   7    -0.662782086565E+03   -0.17624E-01   -0.17621E-01   768   0.526E-01-0.351E-03
CGA:   8    -0.662790594273E+03   -0.85077E-02   -0.85123E-02   768   0.192E-01 0.169E-03
CGA:   9    -0.662794346100E+03   -0.37518E-02   -0.37532E-02   768   0.614E-02-0.415E-04
CGA:  10    -0.662795470629E+03   -0.11245E-02   -0.11244E-02   768   0.254E-02 0.123E-04
CGA:  11    -0.662795867778E+03   -0.39715E-03   -0.39702E-03   768   0.104E-02-0.390E-05
CGA:  12    -0.662796074624E+03   -0.20685E-03   -0.20687E-03   768   0.407E-03-0.926E-06
CGA:  13    -0.662796167958E+03   -0.93334E-04   -0.93500E-04   768   0.312E-03-0.322E-05
   5 F= -.66933015E+03 E0= -.66931743E+03  d E =-.565616E-01  mag=     1.3788
       N       E                     dE             d eps       ncg     rms          ort
SDA:   1    -0.654912506866E+03    0.78836E+01    0.00000E+00   768   0.300E+02 0.000E+00
CGA:   2    -0.658392598930E+03   -0.34801E+01   -0.35558E+01   768   0.110E+02-0.182E+00
CGA:   3    -0.660378591402E+03   -0.19860E+01   -0.19896E+01   768   0.793E+01-0.495E+00
CGA:   4    -0.661892832475E+03   -0.15142E+01   -0.15041E+01   768   0.284E+01 0.305E+00
CGA:   5    -0.662489107451E+03   -0.59627E+00   -0.59637E+00   768   0.992E+00-0.746E-03
CGA:   6    -0.662675529501E+03   -0.18642E+00   -0.18638E+00   768   0.345E+00 0.339E-02
CGA:   7    -0.662750711075E+03   -0.75182E-01   -0.75123E-01   768   0.139E+00 0.116E-02
CGA:   8    -0.662781253288E+03   -0.30542E-01   -0.30571E-01   768   0.514E-01-0.527E-03
CGA:   9    -0.662791291389E+03   -0.10038E-01   -0.10033E-01   768   0.199E-01 0.260E-03
CGA:  10    -0.662794331490E+03   -0.30401E-02   -0.30368E-02   768   0.916E-02-0.361E-04
CGA:  11    -0.662796031112E+03   -0.16996E-02   -0.16995E-02   768   0.296E-02 0.109E-04
CGA:  12    -0.662796838547E+03   -0.80744E-03   -0.80870E-03   768   0.153E-02-0.136E-04
CGA:  13    -0.662797197760E+03   -0.35921E-03   -0.35933E-03   768   0.146E-02-0.169E-05
CGA:  14    -0.662797448986E+03   -0.25123E-03   -0.25116E-03   768   0.706E-03-0.406E-05
CGA:  15    -0.662797681158E+03   -0.23217E-03   -0.23208E-03   768   0.428E-03 0.947E-06
CGA:  16    -0.662797779234E+03   -0.98077E-04   -0.98097E-04   768   0.374E-03-0.858E-06
   6 F= -.66933312E+03 E0= -.66932010E+03  d E =-.595300E-01  mag=     1.4511
       N       E                     dE             d eps       ncg     rms          ort
SDA:   1    -0.661023290009E+03    0.17744E+01    0.00000E+00   768   0.607E+01 0.000E+00
CGA:   2    -0.661853923685E+03   -0.83063E+00   -0.82821E+00   768   0.228E+01-0.158E-01
CGA:   3    -0.662309845925E+03   -0.45592E+00   -0.45565E+00   768   0.159E+01 0.181E-01
CGA:   4    -0.662613426248E+03   -0.30358E+00   -0.30341E+00   768   0.743E+00-0.218E-01
CGA:   5    -0.662738350193E+03   -0.12492E+00   -0.12516E+00   768   0.252E+00 0.335E-02
CGA:   6    -0.662780705313E+03   -0.42355E-01   -0.42274E-01   768   0.105E+00-0.135E-02
CGA:   7    -0.662797407276E+03   -0.16702E-01   -0.16729E-01   768   0.452E-01 0.248E-03
CGA:   8    -0.662805640290E+03   -0.82330E-02   -0.82301E-02   768   0.176E-01-0.194E-03
CGA:   9    -0.662808910649E+03   -0.32704E-02   -0.32705E-02   768   0.606E-02 0.282E-04
CGA:  10    -0.662809897626E+03   -0.98698E-03   -0.98636E-03   768   0.234E-02-0.135E-04
CGA:  11    -0.662810280297E+03   -0.38267E-03   -0.38274E-03   768   0.793E-03 0.107E-05
CGA:  12    -0.662810439047E+03   -0.15875E-03   -0.15876E-03   768   0.336E-03-0.490E-06
CGA:  13    -0.662810500679E+03   -0.61632E-04   -0.61640E-04   768   0.200E-03 0.220E-05
   7 F= -.66934481E+03 E0= -.66933154E+03  d E =-.712221E-01  mag=     1.4059
       N       E                     dE             d eps       ncg     rms          ort
SDA:   1    -0.662135374956E+03    0.67506E+00    0.00000E+00   768   0.241E+01 0.000E+00
CGA:   2    -0.662453302046E+03   -0.31793E+00   -0.31957E+00   768   0.104E+01 0.864E-03
CGA:   3    -0.662644210012E+03   -0.19091E+00   -0.19090E+00   768   0.675E+00-0.118E-01
CGA:   4    -0.662768298473E+03   -0.12409E+00   -0.12407E+00   768   0.246E+00 0.530E-02
CGA:   5    -0.662813295599E+03   -0.44997E-01   -0.44992E-01   768   0.842E-01-0.829E-03
CGA:   6    -0.662828560671E+03   -0.15265E-01   -0.15267E-01   768   0.366E-01 0.385E-03
CGA:   7    -0.662834922277E+03   -0.63616E-02   -0.63599E-02   768   0.191E-01-0.582E-04
CGA:   8    -0.662838161503E+03   -0.32392E-02   -0.32407E-02   768   0.735E-02 0.614E-04
CGA:   9    -0.662839575863E+03   -0.14144E-02   -0.14145E-02   768   0.232E-02-0.770E-05
CGA:  10    -0.662839984846E+03   -0.40898E-03   -0.40903E-03   768   0.944E-03 0.553E-05
CGA:  11    -0.662840131436E+03   -0.14659E-03   -0.14657E-03   768   0.340E-03-0.184E-06
CGA:  12    -0.662840197369E+03   -0.65934E-04   -0.65925E-04   768   0.121E-03 0.709E-06
   8 F= -.66937538E+03 E0= -.66936164E+03  d E =-.305646E-01  mag=     1.4201
       N       E                     dE             d eps       ncg     rms          ort
SDA:   1    -0.656509462787E+03    0.63307E+01    0.00000E+00   768   0.230E+02 0.000E+00
CGA:   2    -0.659315209817E+03   -0.28057E+01   -0.28471E+01   768   0.963E+01-0.542E-01
CGA:   3    -0.661059838830E+03   -0.17446E+01   -0.17452E+01   768   0.632E+01-0.315E+00
CGA:   4    -0.662222243822E+03   -0.11624E+01   -0.11600E+01   768   0.204E+01 0.159E+00
CGA:   5    -0.662628142980E+03   -0.40590E+00   -0.40621E+00   768   0.722E+00-0.116E-01
CGA:   6    -0.662765031970E+03   -0.13689E+00   -0.13676E+00   768   0.298E+00 0.880E-02
CGA:   7    -0.662823252191E+03   -0.58220E-01   -0.58271E-01   768   0.167E+00-0.255E-02
CGA:   8    -0.662849817151E+03   -0.26565E-01   -0.26628E-01   768   0.701E-01 0.124E-02
CGA:   9    -0.662862293777E+03   -0.12477E-01   -0.12474E-01   768   0.216E-01-0.285E-03
CGA:  10    -0.662866465807E+03   -0.41720E-02   -0.41708E-02   768   0.762E-02 0.592E-04
CGA:  11    -0.662867821576E+03   -0.13558E-02   -0.13557E-02   768   0.397E-02-0.147E-04
CGA:  12    -0.662868473987E+03   -0.65241E-03   -0.65241E-03   768   0.146E-02 0.569E-06
CGA:  13    -0.662868840854E+03   -0.36687E-03   -0.36721E-03   768   0.880E-03-0.561E-05
CGA:  14    -0.662869007449E+03   -0.16659E-03   -0.16660E-03   768   0.679E-03-0.917E-06
CGA:  15    -0.662869156366E+03   -0.14892E-03   -0.14895E-03   768   0.364E-03-0.153E-05
CGA:  16    -0.662869253660E+03   -0.97294E-04   -0.97207E-04   768   0.280E-03 0.110E-05
   9 F= -.66940818E+03 E0= -.66939309E+03  d E =-.633646E-01  mag=     1.5144
       N       E                     dE             d eps       ncg     rms          ort
SDA:   1    -0.662327154090E+03    0.54200E+00    0.00000E+00   768   0.177E+01 0.000E+00
CGA:   2    -0.662593869314E+03   -0.26672E+00   -0.26715E+00   768   0.103E+01 0.201E-02
CGA:   3    -0.662765877521E+03   -0.17201E+00   -0.17192E+00   768   0.517E+00-0.291E-02
CGA:   4    -0.662856658574E+03   -0.90781E-01   -0.90821E-01   768   0.138E+00 0.204E-02
CGA:   5    -0.662880664252E+03   -0.24006E-01   -0.24002E-01   768   0.448E-01-0.544E-04
CGA:   6    -0.662889333486E+03   -0.86692E-02   -0.86670E-02   768   0.223E-01 0.184E-03
CGA:   7    -0.662893203409E+03   -0.38699E-02   -0.38693E-02   768   0.116E-01-0.885E-05
CGA:   8    -0.662895303700E+03   -0.21003E-02   -0.21006E-02   768   0.503E-02 0.363E-04
CGA:   9    -0.662896295970E+03   -0.99227E-03   -0.99239E-03   768   0.173E-02-0.640E-05
CGA:  10    -0.662896617235E+03   -0.32127E-03   -0.32126E-03   768   0.783E-03 0.467E-05
CGA:  11    -0.662896742094E+03   -0.12486E-03   -0.12487E-03   768   0.294E-03 0.661E-06
CGA:  12    -0.662896799693E+03   -0.57600E-04   -0.57587E-04   768   0.108E-03 0.116E-05
  10 F= -.66943728E+03 E0= -.66942121E+03  d E =-.291053E-01  mag=     1.5670
       N       E                     dE             d eps       ncg     rms          ort
SDA:   1    -0.657834859603E+03    0.50619E+01    0.00000E+00   768   0.162E+02 0.000E+00
CGA:   2    -0.660140904064E+03   -0.23060E+01   -0.23089E+01   768   0.966E+01-0.493E-01
CGA:   3    -0.661720042593E+03   -0.15791E+01   -0.15787E+01   768   0.478E+01-0.426E-01
CGA:   4    -0.662558950238E+03   -0.83891E+00   -0.83958E+00   768   0.122E+01 0.644E-01
CGA:   5    -0.662781120436E+03   -0.22217E+00   -0.22217E+00   768   0.402E+00 0.215E-02
CGA:   6    -0.662864065211E+03   -0.82945E-01   -0.82808E-01   768   0.186E+00 0.421E-02
CGA:   7    -0.662901468228E+03   -0.37403E-01   -0.37427E-01   768   0.105E+00-0.840E-03
CGA:   8    -0.662919093753E+03   -0.17626E-01   -0.17646E-01   768   0.495E-01 0.634E-03
CGA:   9    -0.662928193440E+03   -0.90997E-02   -0.90996E-02   768   0.157E-01-0.797E-04
CGA:  10    -0.662931523728E+03   -0.33303E-02   -0.33285E-02   768   0.642E-02 0.463E-04
CGA:  11    -0.662932692926E+03   -0.11692E-02   -0.11692E-02   768   0.345E-02-0.684E-06
CGA:  12    -0.662933292395E+03   -0.59947E-03   -0.59945E-03   768   0.141E-02 0.175E-06
CGA:  13    -0.662933669920E+03   -0.37753E-03   -0.37753E-03   768   0.963E-03-0.122E-05
CGA:  14    -0.662933888412E+03   -0.21849E-03   -0.21863E-03   768   0.983E-03-0.219E-05
CGA:  15    -0.662934131415E+03   -0.24300E-03   -0.24277E-03   768   0.672E-03 0.204E-05
CGA:  16    -0.662934349951E+03   -0.21854E-03   -0.21893E-03   768   0.618E-03-0.246E-05
CGA:  17    -0.662934468622E+03   -0.11867E-03   -0.11868E-03   768   0.403E-03-0.154E-05
CGA:  18    -0.662934570038E+03   -0.10142E-03   -0.10158E-03   768   0.202E-03-0.266E-05
CGA:  19    -0.662934621021E+03   -0.50983E-04   -0.51066E-04   768   0.174E-03-0.193E-05
  11 F= -.66947993E+03 E0= -.66945918E+03  d E =-.717518E-01  mag=     2.0130
       N       E                     dE             d eps       ncg     rms          ort
SDA:   1    -0.662202627298E+03    0.73194E+00    0.00000E+00   768   0.192E+01 0.000E+00
CGA:   2    -0.662618380943E+03   -0.41575E+00   -0.41605E+00   768   0.188E+01-0.126E-01
CGA:   3    -0.662870959565E+03   -0.25258E+00   -0.25498E+00   768   0.511E+00 0.174E-02
CGA:   4    -0.662965444929E+03   -0.94485E-01   -0.94506E-01   768   0.848E-01 0.470E-03
CGA:   5    -0.662981963671E+03   -0.16519E-01   -0.16519E-01   768   0.320E-01 0.198E-04
CGA:   6    -0.662987415040E+03   -0.54514E-02   -0.54512E-02   768   0.116E-01 0.113E-04
CGA:   7    -0.662990030160E+03   -0.26151E-02   -0.26145E-02   768   0.525E-02 0.172E-04
CGA:   8    -0.662991292095E+03   -0.12619E-02   -0.12619E-02   768   0.315E-02-0.158E-05
CGA:   9    -0.662991833526E+03   -0.54143E-03   -0.54144E-03   768   0.151E-02-0.186E-05
CGA:  10    -0.662992137939E+03   -0.30441E-03   -0.30441E-03   768   0.668E-03-0.242E-05
CGA:  11    -0.662992286594E+03   -0.14866E-03   -0.14863E-03   768   0.237E-03 0.703E-06
CGA:  12    -0.662992345473E+03   -0.58879E-04   -0.58896E-04   768   0.152E-03-0.446E-06
  12 F= -.66954007E+03 E0= -.66952115E+03  d E =-.601425E-01  mag=     2.2025
       N       E                     dE             d eps       ncg     rms          ort
SDA:   1    -0.662675352600E+03    0.31693E+00    0.00000E+00   768   0.785E+00 0.000E+00
CGA:   2    -0.662851529295E+03   -0.17618E+00   -0.17627E+00   768   0.722E+00-0.264E-02
CGA:   3    -0.662952753225E+03   -0.10122E+00   -0.10176E+00   768   0.204E+00 0.801E-03
CGA:   4    -0.662989943067E+03   -0.37190E-01   -0.37193E-01   768   0.333E-01 0.646E-05
CGA:   5    -0.662996375921E+03   -0.64329E-02   -0.64329E-02   768   0.125E-01 0.228E-04
CGA:   6    -0.662998467711E+03   -0.20918E-02   -0.20921E-02   768   0.436E-02 0.129E-04
CGA:   7    -0.662999470462E+03   -0.10028E-02   -0.10026E-02   768   0.191E-02 0.394E-05
CGA:   8    -0.662999986178E+03   -0.51572E-03   -0.51594E-03   768   0.935E-03-0.300E-05
CGA:   9    -0.663000205261E+03   -0.21908E-03   -0.21917E-03   768   0.402E-03-0.276E-05
CGA:  10    -0.663000310464E+03   -0.10520E-03   -0.10525E-03   768   0.177E-03-0.793E-06
CGA:  11    -0.663000343092E+03   -0.32628E-04   -0.32636E-04   768   0.103E-03 0.263E-06
  13 F= -.66954961E+03 E0= -.66953243E+03  d E =-.696802E-01  mag=     2.3130
       N       E                     dE             d eps       ncg     rms          ort
SDA:   1    -0.662379457236E+03    0.62085E+00    0.00000E+00   768   0.162E+01 0.000E+00
CGA:   2    -0.662741053643E+03   -0.36160E+00   -0.36152E+00   768   0.121E+01 0.117E-02
CGA:   3    -0.662940314111E+03   -0.19926E+00   -0.19909E+00   768   0.486E+00-0.260E-02
CGA:   4    -0.663014282284E+03   -0.73968E-01   -0.74051E-01   768   0.992E-01-0.174E-03
CGA:   5    -0.663032317843E+03   -0.18036E-01   -0.18031E-01   768   0.359E-01-0.121E-03
CGA:   6    -0.663039482324E+03   -0.71645E-02   -0.71644E-02   768   0.156E-01-0.205E-04
CGA:   7    -0.663042848437E+03   -0.33661E-02   -0.33657E-02   768   0.696E-02 0.167E-04
CGA:   8    -0.663044424084E+03   -0.15756E-02   -0.15761E-02   768   0.338E-02-0.146E-04
CGA:   9    -0.663044999285E+03   -0.57520E-03   -0.57529E-03   768   0.146E-02-0.186E-05
CGA:  10    -0.663045282367E+03   -0.28308E-03   -0.28307E-03   768   0.461E-03-0.137E-05
CGA:  11    -0.663045387804E+03   -0.10544E-03   -0.10539E-03   768   0.152E-03 0.158E-05
CGA:  12    -0.663045423073E+03   -0.35269E-04   -0.35257E-04   768   0.833E-04 0.374E-06
  14 F= -.66959605E+03 E0= -.66958042E+03  d E =-.464434E-01  mag=     2.3852
       N       E                     dE             d eps       ncg     rms          ort
SDA:   1    -0.658659476116E+03    0.43859E+01    0.00000E+00   768   0.108E+02 0.000E+00
CGA:   2    -0.661062913390E+03   -0.24034E+01   -0.24020E+01   768   0.803E+01 0.158E-01
CGA:   3    -0.662409317993E+03   -0.13464E+01   -0.13425E+01   768   0.315E+01-0.573E-01
CGA:   4    -0.662882301434E+03   -0.47298E+00   -0.47445E+00   768   0.653E+00-0.545E-03
CGA:   5    -0.663003523368E+03   -0.12122E+00   -0.12117E+00   768   0.250E+00-0.215E-02
CGA:   6    -0.663052249505E+03   -0.48726E-01   -0.48723E-01   768   0.111E+00-0.836E-03
CGA:   7    -0.663075652266E+03   -0.23403E-01   -0.23399E-01   768   0.489E-01 0.162E-03
CGA:   8    -0.663086282663E+03   -0.10630E-01   -0.10633E-01   768   0.246E-01-0.102E-03
CGA:   9    -0.663090475018E+03   -0.41924E-02   -0.41951E-02   768   0.933E-02 0.277E-04
CGA:  10    -0.663092507565E+03   -0.20325E-02   -0.20329E-02   768   0.291E-02-0.114E-04
CGA:  11    -0.663093178428E+03   -0.67086E-03   -0.67066E-03   768   0.102E-02 0.557E-05
CGA:  12    -0.663093406992E+03   -0.22856E-03   -0.22850E-03   768   0.525E-03 0.212E-05
CGA:  13    -0.663093501462E+03   -0.94470E-04   -0.94490E-04   768   0.259E-03 0.115E-05
  15 F= -.66964753E+03 E0= -.66963286E+03  d E =-.979177E-01  mag=     2.5008
       N       E                     dE             d eps       ncg     rms          ort
SDA:   1    -0.662612059465E+03    0.48135E+00    0.00000E+00   768   0.136E+01 0.000E+00
CGA:   2    -0.662905741502E+03   -0.29368E+00   -0.29369E+00   768   0.847E+00-0.756E-03
CGA:   3    -0.663054435871E+03   -0.14869E+00   -0.14881E+00   768   0.377E+00 0.139E-02
CGA:   4    -0.663109450187E+03   -0.55014E-01   -0.54974E-01   768   0.107E+00-0.242E-05
CGA:   5    -0.663128925467E+03   -0.19475E-01   -0.19478E-01   768   0.366E-01 0.438E-04
CGA:   6    -0.663136197468E+03   -0.72720E-02   -0.72720E-02   768   0.146E-01-0.101E-04
CGA:   7    -0.663139639528E+03   -0.34421E-02   -0.34430E-02   768   0.675E-02-0.213E-04
CGA:   8    -0.663141179879E+03   -0.15404E-02   -0.15403E-02   768   0.269E-02-0.177E-05
CGA:   9    -0.663141742775E+03   -0.56290E-03   -0.56293E-03   768   0.111E-02-0.331E-05
CGA:  10    -0.663141935418E+03   -0.19264E-03   -0.19270E-03   768   0.449E-03 0.128E-05
CGA:  11    -0.663142022522E+03   -0.87104E-04   -0.87111E-04   768   0.143E-03 0.936E-06
  16 F= -.66969570E+03 E0= -.66968166E+03  d E =-.481681E-01  mag=     2.5150
       N       E                     dE             d eps       ncg     rms          ort
SDA:   1    -0.663126217831E+03    0.15718E-01    0.00000E+00   768   0.440E-01 0.000E+00
CGA:   2    -0.663135616435E+03   -0.93986E-02   -0.93988E-02   768   0.272E-01-0.157E-04
CGA:   3    -0.663140390175E+03   -0.47737E-02   -0.47744E-02   768   0.121E-01 0.193E-05
CGA:   4    -0.663142181174E+03   -0.17910E-02   -0.17909E-02   768   0.339E-02 0.381E-05
CGA:   5    -0.663142809584E+03   -0.62841E-03   -0.62842E-03   768   0.112E-02 0.318E-07
CGA:   6    -0.663143033958E+03   -0.22437E-03   -0.22437E-03   768   0.503E-03-0.225E-05
CGA:   7    -0.663143148766E+03   -0.11481E-03   -0.11488E-03   768   0.244E-03-0.245E-05
CGA:   8    -0.663143202291E+03   -0.53525E-04   -0.53558E-04   768   0.115E-03-0.170E-05
  17 F= -.66969680E+03 E0= -.66968284E+03  d E =-.492776E-01  mag=     2.5202
       N       E                     dE             d eps       ncg     rms          ort
SDA:   1    -0.662853038443E+03    0.29011E+00    0.00000E+00   768   0.883E+00 0.000E+00
CGA:   2    -0.663010106768E+03   -0.15707E+00   -0.15703E+00   768   0.465E+00-0.736E-03
CGA:   3    -0.663101527857E+03   -0.91421E-01   -0.91429E-01   768   0.281E+00 0.137E-02
CGA:   4    -0.663146285021E+03   -0.44757E-01   -0.44715E-01   768   0.868E-01-0.227E-03
CGA:   5    -0.663162138256E+03   -0.15853E-01   -0.15853E-01   768   0.305E-01 0.592E-06
CGA:   6    -0.663168174562E+03   -0.60363E-02   -0.60363E-02   768   0.122E-01 0.261E-05
CGA:   7    -0.663170917497E+03   -0.27429E-02   -0.27438E-02   768   0.559E-02-0.216E-04
CGA:   8    -0.663172081223E+03   -0.11637E-02   -0.11637E-02   768   0.238E-02-0.471E-06
CGA:   9    -0.663172495773E+03   -0.41455E-03   -0.41442E-03   768   0.873E-03-0.347E-05
CGA:  10    -0.663172652968E+03   -0.15720E-03   -0.15719E-03   768   0.275E-03-0.842E-06
CGA:  11    -0.663172716811E+03   -0.63843E-04   -0.63852E-04   768   0.107E-03-0.254E-06
  18 F= -.66972606E+03 E0= -.66971170E+03  d E =-.292534E-01  mag=     2.6034
       N       E                     dE             d eps       ncg     rms          ort
SDA:   1    -0.662908682297E+03    0.26397E+00    0.00000E+00   768   0.757E+00 0.000E+00
CGA:   2    -0.663042720171E+03   -0.13404E+00   -0.13400E+00   768   0.398E+00-0.632E-03
CGA:   3    -0.663120856028E+03   -0.78136E-01   -0.78144E-01   768   0.240E+00 0.128E-02
CGA:   4    -0.663159328342E+03   -0.38472E-01   -0.38439E-01   768   0.744E-01-0.177E-03
CGA:   5    -0.663172877230E+03   -0.13549E-01   -0.13549E-01   768   0.257E-01 0.547E-05
CGA:   6    -0.663177961553E+03   -0.50843E-02   -0.50843E-02   768   0.105E-01 0.482E-05
CGA:   7    -0.663180301012E+03   -0.23395E-02   -0.23402E-02   768   0.495E-02-0.192E-04
CGA:   8    -0.663181300383E+03   -0.99937E-03   -0.99936E-03   768   0.220E-02-0.154E-05
CGA:   9    -0.663181676032E+03   -0.37565E-03   -0.37551E-03   768   0.778E-03-0.323E-05
CGA:  10    -0.663181822815E+03   -0.14678E-03   -0.14678E-03   768   0.246E-03-0.104E-05
CGA:  11    -0.663181881433E+03   -0.58618E-04   -0.58630E-04   768   0.105E-03-0.292E-06
  19 F= -.66973493E+03 E0= -.66971980E+03  d E =-.381228E-01  mag=     2.6863
       N       E                     dE             d eps       ncg     rms          ort
SDA:   1    -0.662828332823E+03    0.35349E+00    0.00000E+00   768   0.109E+01 0.000E+00
CGA:   2    -0.663010453870E+03   -0.18212E+00   -0.18199E+00   768   0.555E+00-0.864E-03
CGA:   3    -0.663117945410E+03   -0.10749E+00   -0.10752E+00   768   0.339E+00 0.326E-02
CGA:   4    -0.663175690855E+03   -0.57745E-01   -0.57700E-01   768   0.106E+00-0.382E-03
CGA:   5    -0.663194782187E+03   -0.19091E-01   -0.19092E-01   768   0.374E-01 0.266E-04
CGA:   6    -0.663202162089E+03   -0.73799E-02   -0.73798E-02   768   0.159E-01 0.196E-04
CGA:   7    -0.663205498320E+03   -0.33362E-02   -0.33371E-02   768   0.758E-02-0.434E-04
CGA:   8    -0.663206916400E+03   -0.14181E-02   -0.14182E-02   768   0.321E-02 0.149E-05
CGA:   9    -0.663207467288E+03   -0.55089E-03   -0.55074E-03   768   0.991E-03-0.268E-05
CGA:  10    -0.663207669275E+03   -0.20199E-03   -0.20198E-03   768   0.294E-03 0.190E-06
CGA:  11    -0.663207735177E+03   -0.65902E-04   -0.65897E-04   768   0.126E-03 0.191E-06
  20 F= -.66976036E+03 E0= -.66974512E+03  d E =-.254369E-01  mag=     2.7072
       N       E                     dE             d eps       ncg     rms          ort
SDA:   1    -0.661618614558E+03    0.15891E+01    0.00000E+00   768   0.459E+01 0.000E+00
CGA:   2    -0.662397933048E+03   -0.77932E+00   -0.77853E+00   768   0.234E+01-0.967E-02
CGA:   3    -0.662851914699E+03   -0.45398E+00   -0.45406E+00   768   0.143E+01 0.251E-01
CGA:   4    -0.663094310268E+03   -0.24240E+00   -0.24197E+00   768   0.454E+00-0.498E-02
CGA:   5    -0.663175464516E+03   -0.81154E-01   -0.81175E-01   768   0.157E+00 0.484E-03
CGA:   6    -0.663207356518E+03   -0.31892E-01   -0.31891E-01   768   0.644E-01-0.713E-05
CGA:   7    -0.663221696652E+03   -0.14340E-01   -0.14349E-01   768   0.285E-01-0.205E-03
CGA:   8    -0.663227572071E+03   -0.58754E-02   -0.58742E-02   768   0.114E-01 0.555E-04
CGA:   9    -0.663229492066E+03   -0.19200E-02   -0.19189E-02   768   0.429E-02-0.147E-04
CGA:  10    -0.663230238788E+03   -0.74672E-03   -0.74682E-03   768   0.126E-02 0.139E-05
CGA:  11    -0.663230520989E+03   -0.28220E-03   -0.28221E-03   768   0.434E-03-0.174E-06
CGA:  12    -0.663230626988E+03   -0.10600E-03   -0.10598E-03   768   0.268E-03 0.487E-06
CGA:  13    -0.663230676376E+03   -0.49388E-04   -0.49389E-04   768   0.164E-03-0.656E-07
  21 F= -.66978235E+03 E0= -.66976691E+03  d E =-.474177E-01  mag=     2.7397
       N       E                     dE             d eps       ncg     rms          ort
SDA:   1    -0.662985135608E+03    0.24549E+00    0.00000E+00   768   0.665E+00 0.000E+00
CGA:   2    -0.663130512907E+03   -0.14538E+00   -0.14542E+00   768   0.436E+00-0.119E-02
CGA:   3    -0.663200236717E+03   -0.69724E-01   -0.69836E-01   768   0.184E+00 0.998E-03
CGA:   4    -0.663230104067E+03   -0.29867E-01   -0.29854E-01   768   0.468E-01 0.444E-05
CGA:   5    -0.663238499785E+03   -0.83957E-02   -0.83964E-02   768   0.168E-01 0.140E-04
CGA:   6    -0.663241754089E+03   -0.32543E-02   -0.32543E-02   768   0.682E-02-0.767E-05
CGA:   7    -0.663243216030E+03   -0.14619E-02   -0.14623E-02   768   0.342E-02-0.163E-04
CGA:   8    -0.663243901114E+03   -0.68508E-03   -0.68508E-03   768   0.171E-02-0.246E-05
CGA:   9    -0.663244201412E+03   -0.30030E-03   -0.30024E-03   768   0.642E-03-0.134E-05
CGA:  10    -0.663244340364E+03   -0.13895E-03   -0.13894E-03   768   0.201E-03 0.376E-06
CGA:  11    -0.663244387122E+03   -0.46758E-04   -0.46756E-04   768   0.877E-04 0.728E-07
  22 F= -.66979605E+03 E0= -.66978068E+03  d E =-.137074E-01  mag=     2.7337
       N       E                     dE             d eps       ncg     rms          ort
SDA:   1    -0.663228677833E+03    0.15663E-01    0.00000E+00   768   0.423E-01 0.000E+00
CGA:   2    -0.663237728216E+03   -0.90504E-02   -0.90510E-02   768   0.279E-01-0.211E-04
CGA:   3    -0.663242206032E+03   -0.44778E-02   -0.44789E-02   768   0.116E-01 0.316E-05
CGA:   4    -0.663244116196E+03   -0.19102E-02   -0.19103E-02   768   0.289E-02 0.957E-05
CGA:   5    -0.663244643849E+03   -0.52765E-03   -0.52762E-03   768   0.998E-03-0.276E-05
CGA:   6    -0.663244844373E+03   -0.20052E-03   -0.20055E-03   768   0.436E-03-0.426E-05
CGA:   7    -0.663244939259E+03   -0.94886E-04   -0.94957E-04   768   0.213E-03-0.302E-05
  23 F= -.66979660E+03 E0= -.66978123E+03  d E =-.142499E-01  mag=     2.7324
       N       E                     dE             d eps       ncg     rms          ort
SDA:   1    -0.663041007788E+03    0.20384E+00    0.00000E+00   768   0.508E+00 0.000E+00
CGA:   2    -0.663176407364E+03   -0.13540E+00   -0.13549E+00   768   0.270E+00-0.949E-03
CGA:   3    -0.663226408954E+03   -0.50002E-01   -0.50008E-01   768   0.124E+00 0.211E-03
CGA:   4    -0.663243273850E+03   -0.16865E-01   -0.16854E-01   768   0.275E-01 0.525E-04
CGA:   5    -0.663248411846E+03   -0.51380E-02   -0.51381E-02   768   0.835E-02 0.713E-05
CGA:   6    -0.663250076512E+03   -0.16647E-02   -0.16647E-02   768   0.332E-02-0.132E-05
CGA:   7    -0.663250797533E+03   -0.72102E-03   -0.72111E-03   768   0.143E-02-0.348E-05
CGA:   8    -0.663251155514E+03   -0.35798E-03   -0.35806E-03   768   0.693E-03-0.153E-05
CGA:   9    -0.663251303171E+03   -0.14766E-03   -0.14767E-03   768   0.379E-03-0.930E-06
CGA:  10    -0.663251370087E+03   -0.66917E-04   -0.66895E-04   768   0.154E-03-0.899E-06
  24 F= -.66980362E+03 E0= -.66978800E+03  d E =-.702826E-02  mag=     2.7804
       N       E                     dE             d eps       ncg     rms          ort
SDA:   1    -0.663246920315E+03    0.43829E-02    0.00000E+00   768   0.117E-01 0.000E+00
CGA:   2    -0.663250020661E+03   -0.31003E-02   -0.31002E-02   768   0.649E-02 0.551E-06
CGA:   3    -0.663251155450E+03   -0.11348E-02   -0.11349E-02   768   0.313E-02 0.402E-05
CGA:   4    -0.663251590966E+03   -0.43552E-03   -0.43540E-03   768   0.635E-03-0.254E-05
CGA:   5    -0.663251710036E+03   -0.11907E-03   -0.11907E-03   768   0.230E-03 0.390E-06
CGA:   6    -0.663251747565E+03   -0.37529E-04   -0.37542E-04   768   0.792E-04 0.371E-06
  25 F= -.66980391E+03 E0= -.66978831E+03  d E =-.731877E-02  mag=     2.7772
       N       E                     dE             d eps       ncg     rms          ort
SDA:   1    -0.663061627239E+03    0.19008E+00    0.00000E+00   768   0.506E+00 0.000E+00
CGA:   2    -0.663184457372E+03   -0.12283E+00   -0.12284E+00   768   0.265E+00-0.102E-03
CGA:   3    -0.663232740223E+03   -0.48283E-01   -0.48288E-01   768   0.127E+00 0.128E-03
CGA:   4    -0.663251033890E+03   -0.18294E-01   -0.18292E-01   768   0.294E-01 0.929E-05
CGA:   5    -0.663256227235E+03   -0.51933E-02   -0.51936E-02   768   0.104E-01 0.675E-05
CGA:   6    -0.663258260699E+03   -0.20335E-02   -0.20335E-02   768   0.400E-02-0.347E-05
CGA:   7    -0.663259157711E+03   -0.89701E-03   -0.89719E-03   768   0.171E-02-0.616E-05
CGA:   8    -0.663259583903E+03   -0.42619E-03   -0.42636E-03   768   0.708E-03-0.324E-05
CGA:   9    -0.663259758977E+03   -0.17507E-03   -0.17505E-03   768   0.254E-03 0.438E-06
CGA:  10    -0.663259820050E+03   -0.61072E-04   -0.61042E-04   768   0.803E-04 0.788E-06
  26 F= -.66981250E+03 E0= -.66979688E+03  d E =-.858918E-02  mag=     2.7977
       N       E                     dE             d eps       ncg     rms          ort
SDA:   1    -0.663191248696E+03    0.68510E-01    0.00000E+00   768   0.178E+00 0.000E+00
CGA:   2    -0.663234379128E+03   -0.43130E-01   -0.43132E-01   768   0.934E-01-0.293E-04
CGA:   3    -0.663251342058E+03   -0.16963E-01   -0.16965E-01   768   0.444E-01 0.195E-04
CGA:   4    -0.663257796445E+03   -0.64544E-02   -0.64537E-02   768   0.105E-01 0.136E-05
CGA:   5    -0.663259644051E+03   -0.18476E-02   -0.18477E-02   768   0.362E-02 0.185E-05
CGA:   6    -0.663260365772E+03   -0.72172E-03   -0.72172E-03   768   0.145E-02-0.194E-05
CGA:   7    -0.663260688725E+03   -0.32295E-03   -0.32303E-03   768   0.630E-03-0.389E-05
CGA:   8    -0.663260845420E+03   -0.15670E-03   -0.15679E-03   768   0.262E-03-0.204E-05
CGA:   9    -0.663260909719E+03   -0.64299E-04   -0.64290E-04   768   0.973E-04 0.197E-06
  27 F= -.66981388E+03 E0= -.66979825E+03  d E =-.996244E-02  mag=     2.8105
       N       E                     dE             d eps       ncg     rms          ort
SDA:   1    -0.663180381467E+03    0.80464E-01    0.00000E+00   768   0.215E+00 0.000E+00
CGA:   2    -0.663229794838E+03   -0.49413E-01   -0.49409E-01   768   0.127E+00 0.105E-03
CGA:   3    -0.663251525546E+03   -0.21731E-01   -0.21713E-01   768   0.567E-01-0.175E-03
CGA:   4    -0.663260210089E+03   -0.86845E-02   -0.86865E-02   768   0.142E-01-0.324E-04
CGA:   5    -0.663262707423E+03   -0.24973E-02   -0.24970E-02   768   0.505E-02-0.539E-05
CGA:   6    -0.663263723664E+03   -0.10162E-02   -0.10162E-02   768   0.203E-02-0.168E-05
CGA:   7    -0.663264177693E+03   -0.45403E-03   -0.45409E-03   768   0.933E-03-0.337E-05
CGA:   8    -0.663264382274E+03   -0.20458E-03   -0.20463E-03   768   0.461E-03-0.292E-05
CGA:   9    -0.663264462801E+03   -0.80527E-04   -0.80502E-04   768   0.204E-03-0.918E-06
  28 F= -.66981783E+03 E0= -.66980196E+03  d E =-.395043E-02  mag=     2.8110
       N       E                     dE             d eps       ncg     rms          ort
SDA:   1    -0.663244780101E+03    0.19602E-01    0.00000E+00   768   0.514E-01 0.000E+00
CGA:   2    -0.663256504020E+03   -0.11724E-01   -0.11723E-01   768   0.305E-01 0.961E-05
CGA:   3    -0.663261662676E+03   -0.51587E-02   -0.51565E-02   768   0.137E-01-0.274E-04
CGA:   4    -0.663263774080E+03   -0.21114E-02   -0.21111E-02   768   0.337E-02-0.137E-04
CGA:   5    -0.663264355943E+03   -0.58186E-03   -0.58183E-03   768   0.130E-02-0.436E-06
CGA:   6    -0.663264612724E+03   -0.25678E-03   -0.25678E-03   768   0.519E-03-0.342E-06
CGA:   7    -0.663264729309E+03   -0.11658E-03   -0.11663E-03   768   0.242E-03-0.193E-05
CGA:   8    -0.663264781026E+03   -0.51718E-04   -0.51736E-04   768   0.127E-03-0.124E-05
  29 F= -.66981833E+03 E0= -.66980234E+03  d E =-.445702E-02  mag=     2.8102
       N       E                     dE             d eps       ncg     rms          ort
SDA:   1    -0.663227607282E+03    0.37122E-01    0.00000E+00   768   0.102E+00 0.000E+00
CGA:   2    -0.663248990861E+03   -0.21384E-01   -0.21383E-01   768   0.621E-01 0.205E-04
CGA:   3    -0.663259900668E+03   -0.10910E-01   -0.10905E-01   768   0.302E-01-0.108E-03
CGA:   4    -0.663264755150E+03   -0.48545E-02   -0.48544E-02   768   0.758E-02-0.293E-04
CGA:   5    -0.663266155568E+03   -0.14004E-02   -0.14004E-02   768   0.267E-02-0.173E-05
CGA:   6    -0.663266687181E+03   -0.53161E-03   -0.53160E-03   768   0.113E-02 0.291E-05
CGA:   7    -0.663266942025E+03   -0.25484E-03   -0.25485E-03   768   0.498E-03-0.295E-06
CGA:   8    -0.663267058566E+03   -0.11654E-03   -0.11663E-03   768   0.233E-03-0.228E-05
CGA:   9    -0.663267100677E+03   -0.42112E-04   -0.42090E-04   768   0.109E-03-0.124E-05
  30 F= -.66982105E+03 E0= -.66980487E+03  d E =-.271219E-02  mag=     2.8187
       N       E                     dE             d eps       ncg     rms          ort
SDA:   1    -0.663238991807E+03    0.28067E-01    0.00000E+00   768   0.743E-01 0.000E+00
CGA:   2    -0.663254303244E+03   -0.15311E-01   -0.15311E-01   768   0.460E-01 0.113E-04
CGA:   3    -0.663262239850E+03   -0.79366E-02   -0.79331E-02   768   0.220E-01-0.692E-04
CGA:   4    -0.663265849328E+03   -0.36095E-02   -0.36091E-02   768   0.561E-02-0.256E-04
CGA:   5    -0.663266835478E+03   -0.98615E-03   -0.98611E-03   768   0.203E-02-0.761E-06
CGA:   6    -0.663267230309E+03   -0.39483E-03   -0.39483E-03   768   0.853E-03 0.259E-05
CGA:   7    -0.663267419545E+03   -0.18924E-03   -0.18924E-03   768   0.401E-03-0.228E-06
CGA:   8    -0.663267503798E+03   -0.84253E-04   -0.84277E-04   768   0.217E-03-0.151E-05
  31 F= -.66982178E+03 E0= -.66980544E+03  d E =-.344513E-02  mag=     2.8262
       N       E                     dE             d eps       ncg     rms          ort
SDA:   1    -0.663215107752E+03    0.52312E-01    0.00000E+00   768   0.142E+00 0.000E+00
CGA:   2    -0.663246234337E+03   -0.31127E-01   -0.31123E-01   768   0.862E-01 0.673E-04
CGA:   3    -0.663261130974E+03   -0.14897E-01   -0.14890E-01   768   0.394E-01-0.144E-03
CGA:   4    -0.663267178251E+03   -0.60473E-02   -0.60477E-02   768   0.947E-02-0.291E-04
CGA:   5    -0.663268980092E+03   -0.18018E-02   -0.18018E-02   768   0.358E-02-0.170E-05
CGA:   6    -0.663269701048E+03   -0.72096E-03   -0.72095E-03   768   0.146E-02 0.749E-06
CGA:   7    -0.663270034541E+03   -0.33349E-03   -0.33360E-03   768   0.641E-03-0.293E-05
CGA:   8    -0.663270181988E+03   -0.14745E-03   -0.14756E-03   768   0.269E-03-0.299E-05
CGA:   9    -0.663270234447E+03   -0.52458E-04   -0.52459E-04   768   0.130E-03-0.654E-06
  32 F= -.66982484E+03 E0= -.66980853E+03  d E =-.306490E-02  mag=     2.8245
       N       E                     dE             d eps       ncg     rms          ort
SDA:   1    -0.663120109981E+03    0.15007E+00    0.00000E+00   768   0.391E+00 0.000E+00
CGA:   2    -0.663204740610E+03   -0.84631E-01   -0.84614E-01   768   0.242E+00 0.359E-03
CGA:   3    -0.663245959138E+03   -0.41219E-01   -0.41186E-01   768   0.110E+00-0.620E-03
CGA:   4    -0.663263137774E+03   -0.17179E-01   -0.17183E-01   768   0.267E-01-0.523E-04
CGA:   5    -0.663267982031E+03   -0.48443E-02   -0.48439E-02   768   0.102E-01-0.158E-04
CGA:   6    -0.663269985568E+03   -0.20035E-02   -0.20036E-02   768   0.416E-02-0.219E-05
CGA:   7    -0.663270903472E+03   -0.91790E-03   -0.91797E-03   768   0.193E-02-0.315E-05
CGA:   8    -0.663271299983E+03   -0.39651E-03   -0.39658E-03   768   0.950E-03-0.504E-05
CGA:   9    -0.663271459268E+03   -0.15929E-03   -0.15925E-03   768   0.392E-03-0.158E-05
CGA:  10    -0.663271535146E+03   -0.75877E-04   -0.75877E-04   768   0.117E-03 0.195E-06
  33 F= -.66982669E+03 E0= -.66981044E+03  d E =-.490943E-02  mag=     2.8218
       N       E                     dE             d eps       ncg     rms          ort
SDA:   1    -0.663189145199E+03    0.82314E-01    0.00000E+00   768   0.226E+00 0.000E+00
CGA:   2    -0.663234614372E+03   -0.45469E-01   -0.45468E-01   768   0.130E+00 0.670E-04
CGA:   3    -0.663258067617E+03   -0.23453E-01   -0.23444E-01   768   0.668E-01-0.340E-03
CGA:   4    -0.663268566914E+03   -0.10499E-01   -0.10501E-01   768   0.170E-01-0.358E-04
CGA:   5    -0.663271637470E+03   -0.30706E-02   -0.30704E-02   768   0.638E-02-0.494E-05
CGA:   6    -0.663272928006E+03   -0.12905E-02   -0.12905E-02   768   0.265E-02 0.620E-06
CGA:   7    -0.663273507383E+03   -0.57938E-03   -0.57943E-03   768   0.130E-02-0.249E-05
CGA:   8    -0.663273755272E+03   -0.24789E-03   -0.24788E-03   768   0.613E-03-0.347E-05
CGA:   9    -0.663273856807E+03   -0.10153E-03   -0.10150E-03   768   0.226E-03-0.127E-05
CGA:  10    -0.663273902935E+03   -0.46128E-04   -0.46124E-04   768   0.666E-04 0.387E-06
  34 F= -.66982948E+03 E0= -.66981317E+03  d E =-.279300E-02  mag=     2.8298
       N       E                     dE             d eps       ncg     rms          ort
SDA:   1    -0.663027604253E+03    0.24625E+00    0.00000E+00   768   0.661E+00 0.000E+00
CGA:   2    -0.663159928999E+03   -0.13232E+00   -0.13232E+00   768   0.381E+00 0.350E-03
CGA:   3    -0.663228552950E+03   -0.68624E-01   -0.68576E-01   768   0.196E+00-0.169E-02
CGA:   4    -0.663259377808E+03   -0.30825E-01   -0.30838E-01   768   0.495E-01-0.657E-04
CGA:   5    -0.663268378863E+03   -0.90011E-02   -0.90002E-02   768   0.187E-01-0.441E-04
CGA:   6    -0.663272128147E+03   -0.37493E-02   -0.37494E-02   768   0.764E-02-0.834E-05
CGA:   7    -0.663273821320E+03   -0.16932E-02   -0.16932E-02   768   0.360E-02-0.224E-05
CGA:   8    -0.663274541632E+03   -0.72031E-03   -0.72038E-03   768   0.168E-02-0.846E-05
CGA:   9    -0.663274814735E+03   -0.27310E-03   -0.27308E-03   768   0.666E-03-0.165E-05
CGA:  10    -0.663274942919E+03   -0.12818E-03   -0.12818E-03   768   0.191E-03 0.463E-06
CGA:  11    -0.663274987316E+03   -0.44397E-04   -0.44355E-04   768   0.714E-04 0.110E-05
  35 F= -.66983127E+03 E0= -.66981489E+03  d E =-.458651E-02  mag=     2.8440
       N       E                     dE             d eps       ncg     rms          ort
SDA:   1    -0.663222234950E+03    0.52708E-01    0.00000E+00   768   0.144E+00 0.000E+00
CGA:   2    -0.663250240358E+03   -0.28005E-01   -0.28005E-01   768   0.818E-01 0.723E-05
CGA:   3    -0.663265150472E+03   -0.14910E-01   -0.14905E-01   768   0.441E-01-0.217E-03
CGA:   4    -0.663272317146E+03   -0.71667E-02   -0.71673E-02   768   0.119E-01-0.260E-04
CGA:   5    -0.663274480499E+03   -0.21634E-02   -0.21633E-02   768   0.411E-02-0.270E-05
CGA:   6    -0.663275294302E+03   -0.81380E-03   -0.81378E-03   768   0.166E-02 0.342E-05
CGA:   7    -0.663275674682E+03   -0.38038E-03   -0.38041E-03   768   0.761E-03-0.678E-06
CGA:   8    -0.663275849188E+03   -0.17451E-03   -0.17461E-03   768   0.312E-03-0.269E-05
CGA:   9    -0.663275908054E+03   -0.58866E-04   -0.58860E-04   768   0.149E-03-0.896E-06
  36 F= -.66983258E+03 E0= -.66981602E+03  d E =-.130477E-02  mag=     2.8648
       N       E                     dE             d eps       ncg     rms          ort
SDA:   1    -0.663275444454E+03    0.40473E-03    0.00000E+00   768   0.148E-02 0.000E+00
CGA:   2    -0.663275738317E+03   -0.29386E-03   -0.29386E-03   768   0.835E-03 0.221E-06
CGA:   3    -0.663275891458E+03   -0.15314E-03   -0.15317E-03   768   0.472E-03 0.287E-05
CGA:   4    -0.663275963877E+03   -0.72419E-04   -0.72500E-04   768   0.149E-03 0.201E-05
  37 F= -.66983260E+03 E0= -.66981604E+03  d E =-.132234E-02  mag=     2.8640
       N       E                     dE             d eps       ncg     rms          ort
SDA:   1    -0.663208759899E+03    0.67132E-01    0.00000E+00   768   0.192E+00 0.000E+00
CGA:   2    -0.663244287042E+03   -0.35527E-01   -0.35528E-01   768   0.101E+00 0.333E-04
CGA:   3    -0.663262926135E+03   -0.18639E-01   -0.18637E-01   768   0.543E-01-0.167E-03
CGA:   4    -0.663271689387E+03   -0.87633E-02   -0.87637E-02   768   0.169E-01-0.192E-04
CGA:   5    -0.663274711891E+03   -0.30225E-02   -0.30224E-02   768   0.627E-02-0.605E-05
CGA:   6    -0.663275954252E+03   -0.12424E-02   -0.12424E-02   768   0.256E-02-0.316E-05
CGA:   7    -0.663276514385E+03   -0.56013E-03   -0.56016E-03   768   0.118E-02-0.164E-05
CGA:   8    -0.663276745422E+03   -0.23104E-03   -0.23105E-03   768   0.543E-03-0.217E-05
CGA:   9    -0.663276832250E+03   -0.86828E-04   -0.86815E-04   768   0.201E-03-0.645E-06
  38 F= -.66983364E+03 E0= -.66981712E+03  d E =-.103959E-02  mag=     2.8658
       N       E                     dE             d eps       ncg     rms          ort
SDA:   1    -0.663276714332E+03    0.31090E-04    0.00000E+00   768   0.511E-03 0.000E+00
CGA:   2    -0.663276797361E+03   -0.83028E-04   -0.83022E-04   768   0.272E-03-0.294E-06
  39 F= -.66983361E+03 E0= -.66981710E+03  d E =-.101246E-02  mag=     2.8656
       N       E                     dE             d eps       ncg     rms          ort
SDA:   1    -0.663276780648E+03   -0.66315E-04    0.00000E+00   768   0.585E-03 0.000E+00
CGA:   2    -0.663276856607E+03   -0.75960E-04   -0.75917E-04   768   0.143E-03-0.765E-06
  40 F= -.66983366E+03 E0= -.66981715E+03  d E =-.106449E-02  mag=     2.8655
       N       E                     dE             d eps       ncg     rms          ort
SDA:   1    -0.663276865952E+03   -0.85305E-04    0.00000E+00   768   0.145E-03 0.000E+00
CGA:   2    -0.663276880843E+03   -0.14891E-04   -0.14900E-04   768   0.291E-04 0.118E-06
  41 F= -.66983369E+03 E0= -.66981718E+03  d E =-.109239E-02  mag=     2.8657
       N       E                     dE             d eps       ncg     rms          ort
SDA:   1    -0.663276883168E+03   -0.17216E-04    0.00000E+00   768   0.286E-04 0.000E+00
CGA:   2    -0.663276886676E+03   -0.35072E-05   -0.35039E-05   768   0.838E-05-0.654E-07
  42 F= -.66983369E+03 E0= -.66981719E+03  d E =-.109637E-02  mag=     2.8656
       N       E                     dE             d eps       ncg     rms          ort
SDA:   1    -0.663262753861E+03    0.14129E-01    0.00000E+00   768   0.367E-01 0.000E+00
CGA:   2    -0.663272114160E+03   -0.93603E-02   -0.93597E-02   768   0.215E-01 0.428E-05
CGA:   3    -0.663275616815E+03   -0.35027E-02   -0.35023E-02   768   0.923E-02-0.212E-04
CGA:   4    -0.663276985181E+03   -0.13684E-02   -0.13682E-02   768   0.233E-02-0.111E-04
CGA:   5    -0.663277395032E+03   -0.40985E-03   -0.40985E-03   768   0.753E-03 0.192E-05
CGA:   6    -0.663277543536E+03   -0.14850E-03   -0.14851E-03   768   0.301E-03-0.162E-06
CGA:   7    -0.663277610520E+03   -0.66984E-04   -0.67064E-04   768   0.129E-03-0.164E-05
  43 F= -.66983458E+03 E0= -.66981816E+03  d E =-.882851E-03  mag=     2.8677
       N       E                     dE             d eps       ncg     rms          ort
SDA:   1    -0.663262394913E+03    0.15149E-01    0.00000E+00   768   0.378E-01 0.000E+00
CGA:   2    -0.663272126502E+03   -0.97316E-02   -0.97309E-02   768   0.223E-01 0.540E-05
CGA:   3    -0.663275749815E+03   -0.36233E-02   -0.36226E-02   768   0.954E-02-0.207E-04
CGA:   4    -0.663277145750E+03   -0.13959E-02   -0.13957E-02   768   0.242E-02-0.111E-04
CGA:   5    -0.663277602553E+03   -0.45680E-03   -0.45679E-03   768   0.773E-03 0.168E-05
CGA:   6    -0.663277762774E+03   -0.16022E-03   -0.16023E-03   768   0.323E-03-0.254E-06
CGA:   7    -0.663277833728E+03   -0.70954E-04   -0.71014E-04   768   0.140E-03-0.161E-05
  44 F= -.66983496E+03 E0= -.66981864E+03  d E =-.126614E-02  mag=     2.8700
       N       E                     dE             d eps       ncg     rms          ort
SDA:   1    -0.663264454082E+03    0.13309E-01    0.00000E+00   768   0.347E-01 0.000E+00
CGA:   2    -0.663273443016E+03   -0.89889E-02   -0.89893E-02   768   0.191E-01-0.309E-05
CGA:   3    -0.663276459417E+03   -0.30164E-02   -0.30158E-02   768   0.891E-02-0.741E-05
CGA:   4    -0.663277778817E+03   -0.13194E-02   -0.13190E-02   768   0.194E-02-0.130E-04
CGA:   5    -0.663278124848E+03   -0.34603E-03   -0.34606E-03   768   0.607E-03 0.427E-05
CGA:   6    -0.663278242787E+03   -0.11794E-03   -0.11793E-03   768   0.232E-03 0.146E-05
CGA:   7    -0.663278293406E+03   -0.50619E-04   -0.50654E-04   768   0.101E-03-0.114E-05
  45 F= -.66983564E+03 E0= -.66981931E+03  d E =-.683051E-03  mag=     2.8771
       N       E                     dE             d eps       ncg     rms          ort
SDA:   1    -0.663277631358E+03    0.61143E-03    0.00000E+00   768   0.173E-02 0.000E+00
CGA:   2    -0.663278050104E+03   -0.41875E-03   -0.41869E-03   768   0.107E-02 0.107E-05
CGA:   3    -0.663278204420E+03   -0.15432E-03   -0.15428E-03   768   0.496E-03-0.458E-06
CGA:   4    -0.663278277889E+03   -0.73469E-04   -0.73337E-04   768   0.115E-03-0.303E-05
  46 F= -.66983568E+03 E0= -.66981934E+03  d E =-.716169E-03  mag=     2.8788
       N       E                     dE             d eps       ncg     rms          ort
SDA:   1    -0.663265636283E+03    0.12568E-01    0.00000E+00   768   0.321E-01 0.000E+00
CGA:   2    -0.663274684182E+03   -0.90479E-02   -0.90476E-02   768   0.145E-01 0.194E-05
CGA:   3    -0.663277265824E+03   -0.25816E-02   -0.25814E-02   768   0.680E-02-0.112E-04
CGA:   4    -0.663278211379E+03   -0.94555E-03   -0.94549E-03   768   0.174E-02-0.298E-05
CGA:   5    -0.663278499658E+03   -0.28828E-03   -0.28830E-03   768   0.518E-03 0.850E-06
CGA:   6    -0.663278599161E+03   -0.99503E-04   -0.99505E-04   768   0.209E-03-0.927E-06
  47 F= -.66983609E+03 E0= -.66981977E+03  d E =-.415568E-03  mag=     2.8795
       N       E                     dE             d eps       ncg     rms          ort
SDA:   1    -0.663276799027E+03    0.17006E-02    0.00000E+00   768   0.460E-02 0.000E+00
CGA:   2    -0.663278076004E+03   -0.12770E-02   -0.12771E-02   768   0.231E-02-0.135E-05
CGA:   3    -0.663278444858E+03   -0.36885E-03   -0.36874E-03   768   0.945E-03-0.324E-05
CGA:   4    -0.663278590531E+03   -0.14567E-03   -0.14563E-03   768   0.379E-03-0.111E-05
CGA:   5    -0.663278647786E+03   -0.57255E-04   -0.57259E-04   768   0.999E-04 0.872E-07
  48 F= -.66983618E+03 E0= -.66981987E+03  d E =-.499396E-03  mag=     2.8795
