       N       E                     dE             d eps       ncg     rms          rms(c)
DAV:   1     0.255294594427E+04    0.25529E+04   -0.11517E+05  3568   0.135E+03
DAV:   2    -0.137774595111E+03   -0.26907E+04   -0.25980E+04  4424   0.347E+02
DAV:   3    -0.503692066612E+03   -0.36592E+03   -0.36079E+03  3984   0.154E+02
DAV:   4    -0.519634360588E+03   -0.15942E+02   -0.15634E+02  4360   0.415E+01
DAV:   5    -0.520186177477E+03   -0.55182E+00   -0.54870E+00  4584   0.598E+00    0.418E+01
DAV:   6    -0.493792907616E+03    0.26393E+02   -0.49594E+01  4288   0.252E+01    0.258E+01
DAV:   7    -0.489001120633E+03    0.47918E+01   -0.40045E+01  4112   0.175E+01    0.167E+01
DAV:   8    -0.486917377226E+03    0.20837E+01   -0.14934E+01  4152   0.124E+01    0.118E+01
DAV:   9    -0.487082750744E+03   -0.16537E+00   -0.10287E+01  4104   0.831E+00    0.697E+00
DAV:  10    -0.486564187291E+03    0.51856E+00   -0.11076E+01  4192   0.714E+00    0.346E+00
DAV:  11    -0.486456051498E+03    0.10814E+00   -0.91692E-01  3872   0.300E+00    0.159E+00
DAV:  12    -0.486429747968E+03    0.26304E-01   -0.23862E-01  4008   0.146E+00    0.854E-01
DAV:  13    -0.486415481602E+03    0.14266E-01   -0.10065E-01  4192   0.910E-01    0.410E-01
DAV:  14    -0.486415410114E+03    0.71488E-04   -0.25209E-02  3792   0.453E-01    0.279E-01
DAV:  15    -0.486415170625E+03    0.23949E-03   -0.35946E-03  4120   0.178E-01    0.201E-01
DAV:  16    -0.486415110474E+03    0.60151E-04   -0.70192E-04  3832   0.786E-02
   1 F= -.49131748E+03 E0= -.49131748E+03  d E =0.000000E+00  mag=     0.0000
