       N       E                     dE             d eps       ncg     rms          ort
DAV:   1     0.310475224641E+04    0.31048E+04   -0.12657E+05   688   0.136E+03
DAV:   2    -0.110587702350E+02   -0.31158E+04   -0.30222E+04   688   0.373E+02
DAV:   3    -0.428736502811E+03   -0.41768E+03   -0.41351E+03   688   0.156E+02
DAV:   4    -0.442717292051E+03   -0.13981E+02   -0.13585E+02   688   0.388E+01
DAV:   5    -0.443254860772E+03   -0.53757E+00   -0.53079E+00   688   0.569E+00
SDA:   6    -0.238731831626E+03    0.20452E+03   -0.53079E+00   688   0.458E+03 0.000E+00
CGA:   7    -0.320376333007E+03   -0.81645E+02   -0.78034E+02   688   0.591E+02-0.454E+02
CGA:   8    -0.330836531176E+03   -0.10460E+02   -0.10459E+02   688   0.129E+02-0.283E+00
CGA:   9    -0.333450938710E+03   -0.26144E+01   -0.26135E+01   688   0.415E+01 0.897E-01
CGA:  10    -0.334589050788E+03   -0.11381E+01   -0.11710E+01   688   0.222E+01-0.350E+00
CGA:  11    -0.335042492935E+03   -0.45344E+00   -0.51211E+00   688   0.150E+01-0.855E+00
CGA:  12    -0.335183875164E+03   -0.14138E+00   -0.11737E+00   688   0.109E+01 0.116E+00
CGA:  13    -0.335318483772E+03   -0.13461E+00   -0.13336E+00   688   0.624E+00 0.125E-01
CGA:  14    -0.335405967468E+03   -0.87484E-01   -0.90489E-01   688   0.422E+00 0.107E-01
CGA:  15    -0.335468118453E+03   -0.62151E-01   -0.64109E-01   688   0.240E+00 0.106E-01
CGA:  16    -0.335506545441E+03   -0.38427E-01   -0.39438E-01   688   0.125E+00 0.106E-01
CGA:  17    -0.335528882753E+03   -0.22337E-01   -0.22694E-01   688   0.505E-01 0.932E-02
CGA:  18    -0.335541577817E+03   -0.12695E-01   -0.12468E-01   688   0.246E-01 0.369E-02
CGA:  19    -0.335549044337E+03   -0.74665E-02   -0.73990E-02   688   0.150E-01 0.546E-03
CGA:  20    -0.335553449435E+03   -0.44051E-02   -0.43836E-02   688   0.748E-02 0.187E-03
CGA:  21    -0.335555520866E+03   -0.20714E-02   -0.20667E-02   688   0.304E-02 0.485E-04
CGA:  22    -0.335556369735E+03   -0.84887E-03   -0.84845E-03   688   0.121E-02 0.765E-05
CGA:  23    -0.335556695565E+03   -0.32583E-03   -0.32549E-03   688   0.593E-03 0.569E-05
CGA:  24    -0.335556862354E+03   -0.16679E-03   -0.16685E-03   688   0.271E-03-0.969E-06
CGA:  25    -0.335556959790E+03   -0.97436E-04   -0.97883E-04   688   0.148E-03-0.315E-05
   1 F= -.34063874E+03 E0= -.34061816E+03  d E =-.340639E+03  mag=     0.0692
       N       E                     dE             d eps       ncg     rms          ort
SDA:   1     0.247764817525E+04    0.28132E+04    0.00000E+00   688   0.849E+04 0.000E+00
CGA:   2     0.474223279913E+03   -0.20034E+04   -0.20104E+04   688   0.208E+04-0.465E+03
CGA:   3    -0.176389976516E+02   -0.49186E+03   -0.48572E+03   688   0.882E+03 0.164E+03
CGA:   4    -0.219917180036E+03   -0.20228E+03   -0.20432E+03   688   0.275E+03 0.624E+02
CGA:   5    -0.294910566479E+03   -0.74993E+02   -0.74654E+02   688   0.103E+03 0.834E+01
CGA:   6    -0.318570274029E+03   -0.23660E+02   -0.23666E+02   688   0.751E+02-0.280E+00
CGA:   7    -0.323483922832E+03   -0.49136E+01   -0.59694E+01   688   0.750E+02-0.238E+02
CGA:   8    -0.328556759153E+03   -0.50728E+01   -0.32229E+01   688   0.457E+02 0.451E+02
CGA:   9    -0.329447809964E+03   -0.89105E+00   -0.22579E+01   688   0.731E+02-0.318E+02
CGA:  10    -0.327949463150E+03    0.14983E+01   -0.53041E+01   688   0.110E+03-0.472E+02
CGA:  11    -0.332292603991E+03   -0.43431E+01   -0.37498E+01   688   0.215E+02-0.480E+02
CGA:  12    -0.334359486274E+03   -0.20669E+01   -0.21021E+01   688   0.190E+02 0.826E+00
CGA:  13    -0.335188603507E+03   -0.82912E+00   -0.11436E+01   688   0.140E+02-0.446E+01
CGA:  14    -0.336772491350E+03   -0.15839E+01   -0.16449E+01   688   0.815E+01 0.638E+00
CGA:  15    -0.337167325147E+03   -0.39483E+00   -0.66869E+00   688   0.642E+01-0.149E+01
CGA:  16    -0.337953236714E+03   -0.78591E+00   -0.81230E+00   688   0.209E+01 0.449E+00
CGA:  17    -0.338178788074E+03   -0.22555E+00   -0.26952E+00   688   0.126E+01 0.151E+00
CGA:  18    -0.338465092554E+03   -0.28630E+00   -0.27855E+00   688   0.633E+00 0.149E+00
CGA:  19    -0.338598699101E+03   -0.13361E+00   -0.13271E+00   688   0.373E+00 0.344E-01
CGA:  20    -0.338713560063E+03   -0.11486E+00   -0.11009E+00   688   0.240E+00 0.384E-01
CGA:  21    -0.338768359598E+03   -0.54800E-01   -0.55600E-01   688   0.197E+00-0.191E-01
CGA:  22    -0.338817685028E+03   -0.49325E-01   -0.48170E-01   688   0.648E-01 0.111E-01
CGA:  23    -0.338837308548E+03   -0.19624E-01   -0.20357E-01   688   0.102E+00-0.621E-02
CGA:  24    -0.338857782677E+03   -0.20474E-01   -0.20361E-01   688   0.398E-01 0.237E-02
CGA:  25    -0.338866850279E+03   -0.90676E-02   -0.91061E-02   688   0.301E-01-0.676E-03
CGA:  26    -0.338875577281E+03   -0.87270E-02   -0.88285E-02   688   0.305E-01-0.933E-03
CGA:  27    -0.338880043190E+03   -0.44659E-02   -0.45070E-02   688   0.132E-01 0.401E-03
CGA:  28    -0.338884027177E+03   -0.39840E-02   -0.41758E-02   688   0.120E-01-0.155E-02
CGA:  29    -0.338885442911E+03   -0.14157E-02   -0.13971E-02   688   0.693E-02 0.595E-04
CGA:  30    -0.338886709369E+03   -0.12665E-02   -0.12656E-02   688   0.667E-02 0.496E-05
CGA:  31    -0.338887897807E+03   -0.11884E-02   -0.11892E-02   688   0.594E-02 0.416E-04
CGA:  32    -0.338888818696E+03   -0.92089E-03   -0.91969E-03   688   0.377E-02 0.104E-04
CGA:  33    -0.338889459093E+03   -0.64040E-03   -0.63995E-03   688   0.388E-02-0.622E-05
CGA:  34    -0.338890120217E+03   -0.66112E-03   -0.66306E-03   688   0.246E-02 0.281E-04
CGA:  35    -0.338890466098E+03   -0.34588E-03   -0.34764E-03   688   0.175E-02 0.368E-05
CGA:  36    -0.338890830544E+03   -0.36445E-03   -0.36393E-03   688   0.170E-02 0.158E-04
CGA:  37    -0.338891115908E+03   -0.28536E-03   -0.28595E-03   688   0.124E-02 0.785E-05
CGA:  38    -0.338891329121E+03   -0.21321E-03   -0.21353E-03   688   0.884E-03 0.783E-05
CGA:  39    -0.338891515553E+03   -0.18643E-03   -0.18621E-03   688   0.875E-03 0.766E-05
CGA:  40    -0.338891662385E+03   -0.14683E-03   -0.14694E-03   688   0.570E-03 0.153E-05
SDA:  41    -0.338891797724E+03   -0.13534E-03   -0.13539E-03   688   0.602E-03-0.674E-06
CGA:  42    -0.338891894561E+03   -0.96837E-04   -0.96928E-04   688   0.412E-03 0.209E-05
CGA:  43    -0.338892058535E+03   -0.16397E-03   -0.16508E-03   688   0.382E-03-0.546E-05
CGA:  44    -0.338892175168E+03   -0.11663E-03   -0.11699E-03   688   0.226E-03-0.264E-05
CGA:  45    -0.338892253006E+03   -0.77838E-04   -0.77718E-04   688   0.214E-03 0.946E-06
   2 F= -.34395991E+03 E0= -.34393302E+03  d E =-.332118E+01  mag=    -1.1600
       N       E                     dE             d eps       ncg     rms          ort
SDA:   1     0.600833845459E+03    0.93973E+03    0.00000E+00   688   0.285E+04 0.000E+00
CGA:   2     0.398875530371E+02   -0.56095E+03   -0.57717E+03   688   0.134E+04 0.398E+03
CGA:   3    -0.235983077180E+03   -0.27587E+03   -0.27497E+03   688   0.525E+03-0.187E+02
CGA:   4    -0.327046409969E+03   -0.91063E+02   -0.79976E+02   688   0.174E+03 0.285E+02
CGA:   5    -0.359801281378E+03   -0.32755E+02   -0.31670E+02   688   0.139E+03-0.209E+02
CGA:   6    -0.367266568450E+03   -0.74653E+01   -0.11324E+02   688   0.874E+02-0.317E+02
CGA:   7    -0.374718167614E+03   -0.74516E+01   -0.79128E+01   688   0.317E+02-0.697E+01
CGA:   8    -0.377965514353E+03   -0.32473E+01   -0.31959E+01   688   0.174E+02 0.136E+01
CGA:   9    -0.381066937960E+03   -0.31014E+01   -0.31308E+01   688   0.618E+01 0.473E+00
CGA:  10    -0.381950237841E+03   -0.88330E+00   -0.84833E+00   688   0.798E+01-0.121E+00
CGA:  11    -0.382899388214E+03   -0.94915E+00   -0.99657E+00   688   0.145E+01 0.387E-01
CGA:  12    -0.383374252513E+03   -0.47486E+00   -0.46501E+00   688   0.697E+00 0.661E-01
CGA:  13    -0.383455532108E+03   -0.81280E-01   -0.77910E-01   688   0.525E+00 0.112E-01
CGA:  14    -0.383565730356E+03   -0.11020E+00   -0.10996E+00   688   0.134E+00 0.905E-02
CGA:  15    -0.383592780050E+03   -0.27050E-01   -0.26999E-01   688   0.183E+00 0.456E-02
CGA:  16    -0.383616411860E+03   -0.23632E-01   -0.23404E-01   688   0.409E-01 0.253E-03
CGA:  17    -0.383631528452E+03   -0.15117E-01   -0.15112E-01   688   0.221E-01-0.555E-05
CGA:  18    -0.383636753113E+03   -0.52247E-02   -0.52044E-02   688   0.268E-01 0.351E-03
CGA:  19    -0.383640135063E+03   -0.33819E-02   -0.33616E-02   688   0.958E-02 0.318E-04
CGA:  20    -0.383643166651E+03   -0.30316E-02   -0.30372E-02   688   0.526E-02-0.443E-04
CGA:  21    -0.383645235609E+03   -0.20690E-02   -0.20661E-02   688   0.345E-02 0.147E-04
CGA:  22    -0.383647028114E+03   -0.17925E-02   -0.17742E-02   688   0.541E-02 0.645E-04
CGA:  23    -0.383647878591E+03   -0.85048E-03   -0.84474E-03   688   0.631E-02-0.275E-05
CGA:  24    -0.383650823211E+03   -0.29446E-02   -0.30244E-02   688   0.911E-02-0.380E-03
CGA:  25    -0.383652846663E+03   -0.20235E-02   -0.20229E-02   688   0.154E-01 0.506E-03
CGA:  26    -0.383655852450E+03   -0.30058E-02   -0.27664E-02   688   0.107E-01-0.434E-03
CGA:  27    -0.383658022001E+03   -0.21696E-02   -0.21499E-02   688   0.116E-01-0.275E-03
CGA:  28    -0.383659418326E+03   -0.13963E-02   -0.14639E-02   688   0.767E-02-0.136E-03
CGA:  29    -0.383660943280E+03   -0.15250E-02   -0.15270E-02   688   0.735E-02 0.344E-04
CGA:  30    -0.383662079905E+03   -0.11366E-02   -0.11337E-02   688   0.644E-02-0.120E-04
CGA:  31    -0.383663258061E+03   -0.11782E-02   -0.11779E-02   688   0.550E-02-0.996E-05
SDA:  32    -0.383664097294E+03   -0.83923E-03   -0.84030E-03   688   0.495E-02-0.304E-05
CGA:  33    -0.383666044065E+03   -0.19468E-02   -0.19441E-02   688   0.977E-02 0.150E-04
CGA:  34    -0.383668051457E+03   -0.20074E-02   -0.20060E-02   688   0.343E-02-0.255E-04
CGA:  35    -0.383669724256E+03   -0.16728E-02   -0.16710E-02   688   0.254E-02 0.638E-05
CGA:  36    -0.383670435873E+03   -0.71162E-03   -0.71200E-03   688   0.167E-02-0.567E-05
CGA:  37    -0.383670748047E+03   -0.31217E-03   -0.31158E-03   688   0.926E-03-0.665E-05
CGA:  38    -0.383671017150E+03   -0.26910E-03   -0.26973E-03   688   0.412E-03-0.983E-05
CGA:  39    -0.383671143060E+03   -0.12591E-03   -0.12580E-03   688   0.233E-03 0.125E-05
CGA:  40    -0.383671205394E+03   -0.62334E-04   -0.62372E-04   688   0.226E-03-0.966E-06
   3 F= -.38873521E+03 E0= -.38872039E+03  d E =-.480965E+02  mag=    -0.1716
       N       E                     dE             d eps       ncg     rms          ort
SDA:   1     0.384459555121E+03    0.76813E+03    0.00000E+00   688   0.252E+04 0.000E+00
CGA:   2    -0.113339052573E+03   -0.49780E+03   -0.51149E+03   688   0.626E+03 0.130E+03
CGA:   3    -0.292760662670E+03   -0.17942E+03   -0.18804E+03   688   0.540E+03-0.968E+02
CGA:   4    -0.349923658270E+03   -0.57163E+02   -0.59332E+02   688   0.170E+03-0.148E+02
CGA:   5    -0.379733330913E+03   -0.29810E+02   -0.26486E+02   688   0.110E+03-0.144E+02
CGA:   6    -0.389250420156E+03   -0.95171E+01   -0.99066E+01   688   0.435E+02 0.388E+01
CGA:   7    -0.396104806471E+03   -0.68544E+01   -0.69382E+01   688   0.332E+02-0.102E+01
CGA:   8    -0.398977286339E+03   -0.28725E+01   -0.36564E+01   688   0.185E+02-0.219E+01
CGA:   9    -0.401368782070E+03   -0.23915E+01   -0.21403E+01   688   0.660E+01 0.136E+01
CGA:  10    -0.402864560594E+03   -0.14958E+01   -0.14962E+01   688   0.228E+01 0.159E+00
CGA:  11    -0.403437411962E+03   -0.57285E+00   -0.57260E+00   688   0.991E+00 0.620E-02
CGA:  12    -0.403657540570E+03   -0.22013E+00   -0.22036E+00   688   0.540E+00-0.162E-01
CGA:  13    -0.403753215580E+03   -0.95675E-01   -0.97853E-01   688   0.275E+00 0.269E-01
CGA:  14    -0.403804647022E+03   -0.51431E-01   -0.51253E-01   688   0.143E+00-0.151E-02
CGA:  15    -0.403838399893E+03   -0.33753E-01   -0.33645E-01   688   0.765E-01 0.256E-02
CGA:  16    -0.403855711711E+03   -0.17312E-01   -0.17319E-01   688   0.500E-01-0.457E-03
CGA:  17    -0.403866032210E+03   -0.10320E-01   -0.10327E-01   688   0.243E-01 0.543E-03
CGA:  18    -0.403872037962E+03   -0.60058E-02   -0.60369E-02   688   0.188E-01-0.634E-03
CGA:  19    -0.403876216999E+03   -0.41790E-02   -0.41725E-02   688   0.941E-02 0.270E-03
CGA:  20    -0.403878870732E+03   -0.26537E-02   -0.27303E-02   688   0.878E-02-0.832E-03
CGA:  21    -0.403880200416E+03   -0.13297E-02   -0.13312E-02   688   0.431E-02 0.122E-04
CGA:  22    -0.403881433102E+03   -0.12327E-02   -0.12356E-02   688   0.407E-02-0.278E-04
CGA:  23    -0.403882262894E+03   -0.82979E-03   -0.82937E-03   688   0.324E-02-0.136E-04
CGA:  24    -0.403882917210E+03   -0.65432E-03   -0.65575E-03   688   0.261E-02 0.379E-04
CGA:  25    -0.403883572372E+03   -0.65516E-03   -0.65486E-03   688   0.138E-02 0.834E-05
CGA:  26    -0.403883936246E+03   -0.36387E-03   -0.36364E-03   688   0.139E-02 0.592E-05
CGA:  27    -0.403884166948E+03   -0.23070E-03   -0.23225E-03   688   0.613E-03 0.808E-05
CGA:  28    -0.403884328753E+03   -0.16181E-03   -0.16163E-03   688   0.460E-03 0.328E-05
CGA:  29    -0.403884438391E+03   -0.10964E-03   -0.10960E-03   688   0.268E-03 0.254E-05
CGA:  30    -0.403884503716E+03   -0.65324E-04   -0.65302E-04   688   0.282E-03 0.912E-06
   4 F= -.40889251E+03 E0= -.40887756E+03  d E =-.201573E+02  mag=     0.0152
       N       E                     dE             d eps       ncg     rms          ort
SDA:   1    -0.317694590564E+03    0.86190E+02    0.00000E+00   688   0.234E+03 0.000E+00
CGA:   2    -0.376490682059E+03   -0.58796E+02   -0.59310E+02   688   0.175E+03-0.131E+02
CGA:   3    -0.393257554067E+03   -0.16767E+02   -0.20565E+02   688   0.588E+02 0.250E+01
CGA:   4    -0.404210630624E+03   -0.10953E+02   -0.10567E+02   688   0.163E+02-0.159E+01
CGA:   5    -0.406537111692E+03   -0.23265E+01   -0.24256E+01   688   0.483E+01 0.208E+00
CGA:   6    -0.407241651405E+03   -0.70454E+00   -0.66946E+00   688   0.229E+01 0.433E-01
CGA:   7    -0.407650840929E+03   -0.40919E+00   -0.41383E+00   688   0.670E+00 0.595E-01
CGA:   8    -0.407826013110E+03   -0.17517E+00   -0.17501E+00   688   0.472E+00 0.189E-02
CGA:   9    -0.407895517344E+03   -0.69504E-01   -0.71106E-01   688   0.239E+00 0.351E-02
CGA:  10    -0.407952555002E+03   -0.57038E-01   -0.56981E-01   688   0.843E-01 0.111E-02
CGA:  11    -0.407974103707E+03   -0.21549E-01   -0.21436E-01   688   0.556E-01 0.172E-02
CGA:  12    -0.407982771849E+03   -0.86681E-02   -0.86697E-02   688   0.211E-01 0.100E-04
CGA:  13    -0.407988287812E+03   -0.55160E-02   -0.55033E-02   688   0.970E-02 0.177E-03
CGA:  14    -0.407990591043E+03   -0.23032E-02   -0.23030E-02   688   0.623E-02-0.197E-05
CGA:  15    -0.407991861910E+03   -0.12709E-02   -0.12714E-02   688   0.358E-02 0.338E-04
CGA:  16    -0.407992740285E+03   -0.87837E-03   -0.87800E-03   688   0.167E-02 0.984E-05
CGA:  17    -0.407993236691E+03   -0.49641E-03   -0.49523E-03   688   0.121E-02 0.107E-04
CGA:  18    -0.407993461762E+03   -0.22507E-03   -0.22500E-03   688   0.671E-03-0.315E-05
CGA:  19    -0.407993654007E+03   -0.19224E-03   -0.19227E-03   688   0.305E-03-0.871E-06
CGA:  20    -0.407993745686E+03   -0.91680E-04   -0.91725E-04   688   0.289E-03-0.641E-06
   5 F= -.41301956E+03 E0= -.41300206E+03  d E =-.242844E+02  mag=     0.0945
       N       E                     dE             d eps       ncg     rms          ort
SDA:   1    -0.200918412743E+03    0.20708E+03    0.00000E+00   688   0.621E+03 0.000E+00
CGA:   2    -0.354816933827E+03   -0.15390E+03   -0.15413E+03   688   0.240E+03-0.536E+01
CGA:   3    -0.397380395646E+03   -0.42563E+02   -0.39263E+02   688   0.103E+03 0.738E+01
CGA:   4    -0.414207849811E+03   -0.16827E+02   -0.17026E+02   688   0.226E+02 0.226E+01
CGA:   5    -0.419045795545E+03   -0.48379E+01   -0.48402E+01   688   0.573E+01 0.146E+00
CGA:   6    -0.420495236283E+03   -0.14494E+01   -0.14485E+01   688   0.173E+01 0.166E-01
CGA:   7    -0.420977565565E+03   -0.48233E+00   -0.48179E+00   688   0.721E+00 0.551E-02
CGA:   8    -0.421142189916E+03   -0.16462E+00   -0.16444E+00   688   0.464E+00 0.173E-01
CGA:   9    -0.421235670331E+03   -0.93480E-01   -0.93709E-01   688   0.176E+00 0.371E-02
CGA:  10    -0.421285683964E+03   -0.50014E-01   -0.49943E-01   688   0.504E-01 0.893E-03
CGA:  11    -0.421302178341E+03   -0.16494E-01   -0.16487E-01   688   0.203E-01 0.419E-04
CGA:  12    -0.421306883250E+03   -0.47049E-02   -0.47043E-02   688   0.110E-01 0.800E-04
CGA:  13    -0.421309354392E+03   -0.24711E-02   -0.24713E-02   688   0.404E-02 0.948E-05
CGA:  14    -0.421310696788E+03   -0.13424E-02   -0.13418E-02   688   0.200E-02 0.313E-05
CGA:  15    -0.421311322415E+03   -0.62563E-03   -0.62611E-03   688   0.105E-02-0.525E-05
CGA:  16    -0.421311597099E+03   -0.27468E-03   -0.27482E-03   688   0.600E-03-0.605E-05
CGA:  17    -0.421311739633E+03   -0.14253E-03   -0.14253E-03   688   0.244E-03-0.321E-05
CGA:  18    -0.421311822689E+03   -0.83056E-04   -0.83025E-04   688   0.935E-04 0.374E-06
   6 F= -.42628725E+03 E0= -.42627146E+03  d E =-.132677E+02  mag=     0.1765
       N       E                     dE             d eps       ncg     rms          ort
SDA:   1    -0.206378522518E+03    0.21493E+03    0.00000E+00   688   0.618E+03 0.000E+00
CGA:   2    -0.357844964315E+03   -0.15147E+03   -0.15144E+03   688   0.230E+03-0.254E+01
CGA:   3    -0.403228587101E+03   -0.45384E+02   -0.45261E+02   688   0.987E+02-0.103E+02
CGA:   4    -0.418283244932E+03   -0.15055E+02   -0.14370E+02   688   0.197E+02 0.352E+01
CGA:   5    -0.422709359602E+03   -0.44261E+01   -0.44355E+01   688   0.564E+01 0.175E+00
CGA:   6    -0.423858209918E+03   -0.11489E+01   -0.11550E+01   688   0.336E+01 0.477E-01
CGA:   7    -0.424332103240E+03   -0.47389E+00   -0.50461E+00   688   0.112E+01-0.166E-01
CGA:   8    -0.424620944381E+03   -0.28884E+00   -0.28847E+00   688   0.422E+00 0.899E-02
CGA:   9    -0.424748888204E+03   -0.12794E+00   -0.12753E+00   688   0.239E+00 0.432E-02
CGA:  10    -0.424797248565E+03   -0.48360E-01   -0.48563E-01   688   0.101E+00 0.189E-02
CGA:  11    -0.424822786309E+03   -0.25538E-01   -0.25519E-01   688   0.327E-01 0.729E-03
CGA:  12    -0.424833062842E+03   -0.10277E-01   -0.10279E-01   688   0.112E-01-0.349E-04
CGA:  13    -0.424836564519E+03   -0.35017E-02   -0.35032E-02   688   0.635E-02-0.182E-04
CGA:  14    -0.424838011833E+03   -0.14473E-02   -0.14473E-02   688   0.329E-02 0.564E-07
CGA:  15    -0.424839012707E+03   -0.10009E-02   -0.10023E-02   688   0.128E-02-0.187E-04
CGA:  16    -0.424839493136E+03   -0.48043E-03   -0.48162E-03   688   0.551E-03-0.878E-05
CGA:  17    -0.424839693852E+03   -0.20072E-03   -0.20106E-03   688   0.241E-03-0.295E-05
CGA:  18    -0.424839773247E+03   -0.79395E-04   -0.79520E-04   688   0.136E-03-0.152E-05
   7 F= -.42978473E+03 E0= -.42977160E+03  d E =-.167652E+02  mag=     0.1637
       N       E                     dE             d eps       ncg     rms          ort
SDA:   1    -0.373089892249E+03    0.51750E+02    0.00000E+00   688   0.156E+03 0.000E+00
CGA:   2    -0.413920070694E+03   -0.40830E+02   -0.40831E+02   688   0.609E+02-0.364E+00
CGA:   3    -0.425598294798E+03   -0.11678E+02   -0.12028E+02   688   0.187E+02 0.369E+00
CGA:   4    -0.429178280781E+03   -0.35800E+01   -0.34277E+01   688   0.359E+01 0.118E+00
CGA:   5    -0.430037756436E+03   -0.85948E+00   -0.85907E+00   688   0.890E+00-0.108E-01
CGA:   6    -0.430254537137E+03   -0.21678E+00   -0.21683E+00   688   0.271E+00 0.274E-02
CGA:   7    -0.430335751687E+03   -0.81215E-01   -0.81093E-01   688   0.104E+00 0.172E-02
CGA:   8    -0.430371639842E+03   -0.35888E-01   -0.35850E-01   688   0.454E-01 0.336E-03
CGA:   9    -0.430386466200E+03   -0.14826E-01   -0.14815E-01   688   0.166E-01 0.130E-03
CGA:  10    -0.430391398508E+03   -0.49323E-02   -0.49324E-02   688   0.748E-02 0.564E-06
CGA:  11    -0.430393093719E+03   -0.16952E-02   -0.16961E-02   688   0.331E-02 0.960E-05
CGA:  12    -0.430393998975E+03   -0.90526E-03   -0.90556E-03   688   0.139E-02-0.189E-04
CGA:  13    -0.430394476255E+03   -0.47728E-03   -0.47689E-03   688   0.724E-03 0.388E-05
CGA:  14    -0.430394733491E+03   -0.25724E-03   -0.25800E-03   688   0.442E-03-0.719E-05
CGA:  15    -0.430394886830E+03   -0.15334E-03   -0.15318E-03   688   0.294E-03 0.136E-05
CGA:  16    -0.430394971429E+03   -0.84598E-04   -0.84680E-04   688   0.231E-03-0.498E-05
   8 F= -.43533088E+03 E0= -.43531603E+03  d E =-.554615E+01  mag=     0.1023
       N       E                     dE             d eps       ncg     rms          ort
SDA:   1    -0.396777534852E+03    0.33617E+02    0.00000E+00   688   0.947E+02 0.000E+00
CGA:   2    -0.421814034779E+03   -0.25036E+02   -0.25031E+02   688   0.363E+02-0.129E+00
CGA:   3    -0.429061116733E+03   -0.72471E+01   -0.75596E+01   688   0.991E+01 0.953E+00
CGA:   4    -0.431083813406E+03   -0.20227E+01   -0.19601E+01   688   0.204E+01 0.751E-01
CGA:   5    -0.431550499204E+03   -0.46669E+00   -0.46703E+00   688   0.561E+00 0.283E-02
CGA:   6    -0.431670365747E+03   -0.11987E+00   -0.11987E+00   688   0.192E+00 0.622E-04
CGA:   7    -0.431718715094E+03   -0.48349E-01   -0.48412E-01   688   0.748E-01 0.202E-02
CGA:   8    -0.431740971487E+03   -0.22256E-01   -0.22224E-01   688   0.372E-01 0.684E-03
CGA:   9    -0.431751098474E+03   -0.10127E-01   -0.10127E-01   688   0.181E-01 0.572E-04
CGA:  10    -0.431755601780E+03   -0.45033E-02   -0.45051E-02   688   0.627E-02 0.509E-04
CGA:  11    -0.431757571726E+03   -0.19699E-02   -0.19695E-02   688   0.214E-02 0.692E-05
CGA:  12    -0.431758309126E+03   -0.73740E-03   -0.73847E-03   688   0.109E-02-0.119E-04
CGA:  13    -0.431758654160E+03   -0.34503E-03   -0.34457E-03   688   0.600E-03 0.708E-05
CGA:  14    -0.431758857874E+03   -0.20371E-03   -0.20414E-03   688   0.376E-03-0.472E-05
CGA:  15    -0.431758977544E+03   -0.11967E-03   -0.11964E-03   688   0.245E-03 0.642E-06
CGA:  16    -0.431759061236E+03   -0.83692E-04   -0.83802E-04   688   0.148E-03-0.267E-06
   9 F= -.43668880E+03 E0= -.43667403E+03  d E =-.690407E+01  mag=     0.0028
       N       E                     dE             d eps       ncg     rms          ort
SDA:   1    -0.400336896713E+03    0.31422E+02    0.00000E+00   688   0.100E+03 0.000E+00
CGA:   2    -0.428128666608E+03   -0.27792E+02   -0.27778E+02   688   0.325E+02-0.526E+00
CGA:   3    -0.435121691638E+03   -0.69930E+01   -0.69650E+01   688   0.108E+02-0.293E-01
CGA:   4    -0.436939136542E+03   -0.18174E+01   -0.18832E+01   688   0.250E+01-0.752E-01
CGA:   5    -0.437458538598E+03   -0.51940E+00   -0.50178E+00   688   0.660E+00-0.192E-01
CGA:   6    -0.437603776647E+03   -0.14524E+00   -0.14605E+00   688   0.194E+00 0.456E-02
CGA:   7    -0.437659046145E+03   -0.55269E-01   -0.55302E-01   688   0.937E-01-0.160E-02
CGA:   8    -0.437680776685E+03   -0.21731E-01   -0.21787E-01   688   0.571E-01 0.516E-03
CGA:   9    -0.437694617811E+03   -0.13841E-01   -0.13818E-01   688   0.210E-01-0.258E-03
CGA:  10    -0.437700664936E+03   -0.60471E-02   -0.60460E-02   688   0.859E-02 0.436E-04
CGA:  11    -0.437702643958E+03   -0.19790E-02   -0.19763E-02   688   0.441E-02-0.237E-04
CGA:  12    -0.437703594480E+03   -0.95052E-03   -0.95162E-03   688   0.150E-02 0.550E-05
CGA:  13    -0.437704070358E+03   -0.47588E-03   -0.47644E-03   688   0.766E-03-0.859E-05
CGA:  14    -0.437704243788E+03   -0.17343E-03   -0.17356E-03   688   0.459E-03 0.218E-05
CGA:  15    -0.437704366504E+03   -0.12272E-03   -0.12272E-03   688   0.173E-03-0.181E-05
CGA:  16    -0.437704417105E+03   -0.50601E-04   -0.50618E-04   688   0.106E-03-0.547E-06
  10 F= -.44263533E+03 E0= -.44262285E+03  d E =-.594653E+01  mag=     0.0057
       N       E                     dE             d eps       ncg     rms          ort
SDA:   1    -0.334824104911E+03    0.10288E+03    0.00000E+00   688   0.287E+03 0.000E+00
CGA:   2    -0.413454797832E+03   -0.78631E+02   -0.78667E+02   688   0.902E+02-0.206E+01
CGA:   3    -0.431668058173E+03   -0.18213E+02   -0.18072E+02   688   0.538E+02-0.303E+01
CGA:   4    -0.436902826031E+03   -0.52348E+01   -0.70781E+01   688   0.129E+02-0.387E+01
CGA:   5    -0.439265157083E+03   -0.23623E+01   -0.21622E+01   688   0.261E+01 0.609E-01
CGA:   6    -0.439872320944E+03   -0.60716E+00   -0.60713E+00   688   0.810E+00 0.506E-03
CGA:   7    -0.440049490926E+03   -0.17717E+00   -0.17603E+00   688   0.699E+00-0.109E-01
CGA:   8    -0.440132198896E+03   -0.82708E-01   -0.88255E-01   688   0.248E+00-0.195E-01
CGA:   9    -0.440196877441E+03   -0.64679E-01   -0.64798E-01   688   0.122E+00-0.271E-02
CGA:  10    -0.440221198881E+03   -0.24321E-01   -0.24472E-01   688   0.106E+00 0.108E-02
CGA:  11    -0.440236098074E+03   -0.14899E-01   -0.14605E-01   688   0.302E-01 0.835E-03
CGA:  12    -0.440244503669E+03   -0.84056E-02   -0.83909E-02   688   0.191E-01 0.240E-03
CGA:  13    -0.440247098890E+03   -0.25952E-02   -0.25481E-02   688   0.106E-01 0.115E-03
CGA:  14    -0.440249746853E+03   -0.26480E-02   -0.26458E-02   688   0.524E-02 0.846E-04
CGA:  15    -0.440251104507E+03   -0.13577E-02   -0.13625E-02   688   0.773E-02-0.124E-03
CGA:  16    -0.440252470438E+03   -0.13659E-02   -0.13952E-02   688   0.449E-02 0.142E-03
CGA:  17    -0.440254586795E+03   -0.21164E-02   -0.25793E-02   688   0.125E-01-0.152E-02
CGA:  18    -0.440255566534E+03   -0.97974E-03   -0.10801E-02   688   0.912E-02-0.237E-03
CGA:  19    -0.440257393722E+03   -0.18272E-02   -0.18750E-02   688   0.117E-01 0.491E-03
CGA:  20    -0.440259242405E+03   -0.18487E-02   -0.17521E-02   688   0.665E-02 0.145E-03
CGA:  21    -0.440261161477E+03   -0.19191E-02   -0.19393E-02   688   0.975E-02-0.266E-03
CGA:  22    -0.440262367625E+03   -0.12061E-02   -0.12870E-02   688   0.559E-02-0.140E-03
CGA:  23    -0.440263743584E+03   -0.13760E-02   -0.13731E-02   688   0.571E-02 0.109E-03
CGA:  24    -0.440264650767E+03   -0.90718E-03   -0.91206E-03   688   0.391E-02-0.454E-05
CGA:  25    -0.440265585833E+03   -0.93507E-03   -0.93507E-03   688   0.296E-02 0.165E-06
CGA:  26    -0.440266133071E+03   -0.54724E-03   -0.54729E-03   688   0.264E-02 0.285E-05
CGA:  27    -0.440266630960E+03   -0.49789E-03   -0.49835E-03   688   0.150E-02 0.407E-05
CGA:  28    -0.440266961699E+03   -0.33074E-03   -0.33077E-03   688   0.147E-02 0.218E-05
CGA:  29    -0.440267218840E+03   -0.25714E-03   -0.25713E-03   688   0.957E-03 0.156E-05
CGA:  30    -0.440267487200E+03   -0.26836E-03   -0.26834E-03   688   0.985E-03 0.926E-07
CGA:  31    -0.440267651363E+03   -0.16416E-03   -0.16380E-03   688   0.744E-03-0.265E-05
SDA:  32    -0.440267838080E+03   -0.18672E-03   -0.18672E-03   688   0.605E-03 0.137E-06
CGA:  33    -0.440268036150E+03   -0.19807E-03   -0.19785E-03   688   0.776E-03 0.231E-05
CGA:  34    -0.440268198632E+03   -0.16248E-03   -0.16249E-03   688   0.506E-03-0.321E-06
CGA:  35    -0.440268354811E+03   -0.15618E-03   -0.15620E-03   688   0.241E-03-0.662E-07
CGA:  36    -0.440268450046E+03   -0.95235E-04   -0.95558E-04   688   0.101E-03-0.195E-05
  11 F= -.44519531E+03 E0= -.44518580E+03  d E =-.850652E+01  mag=    -0.0442
       N       E                     dE             d eps       ncg     rms          ort
SDA:   1    -0.411395621831E+03    0.28873E+02    0.00000E+00   688   0.877E+02 0.000E+00
CGA:   2    -0.436733645951E+03   -0.25338E+02   -0.25373E+02   688   0.251E+02-0.463E+00
CGA:   3    -0.442738043948E+03   -0.60044E+01   -0.60058E+01   688   0.668E+01 0.127E+00
CGA:   4    -0.443878985918E+03   -0.11409E+01   -0.11559E+01   688   0.256E+01-0.320E-01
CGA:   5    -0.444260717789E+03   -0.38173E+00   -0.37311E+00   688   0.614E+00-0.105E-01
CGA:   6    -0.444401518001E+03   -0.14080E+00   -0.14079E+00   688   0.173E+00-0.321E-03
CGA:   7    -0.444449380422E+03   -0.47862E-01   -0.47879E-01   688   0.104E+00-0.231E-03
CGA:   8    -0.444467501686E+03   -0.18121E-01   -0.18112E-01   688   0.590E-01-0.165E-04
CGA:   9    -0.444482043321E+03   -0.14542E-01   -0.14544E-01   688   0.208E-01-0.943E-04
CGA:  10    -0.444487795406E+03   -0.57521E-02   -0.57508E-02   688   0.110E-01 0.323E-04
CGA:  11    -0.444489614932E+03   -0.18195E-02   -0.18197E-02   688   0.501E-02 0.237E-06
CGA:  12    -0.444490811112E+03   -0.11962E-02   -0.11962E-02   688   0.155E-02 0.246E-05
CGA:  13    -0.444491243288E+03   -0.43218E-03   -0.43230E-03   688   0.119E-02-0.308E-05
CGA:  14    -0.444491442651E+03   -0.19936E-03   -0.19959E-03   688   0.454E-03 0.262E-05
CGA:  15    -0.444491595161E+03   -0.15251E-03   -0.15241E-03   688   0.226E-03 0.908E-06
CGA:  16    -0.444491643520E+03   -0.48360E-04   -0.48372E-04   688   0.176E-03 0.423E-06
  12 F= -.44941554E+03 E0= -.44940537E+03  d E =-.422023E+01  mag=    -0.0251
       N       E                     dE             d eps       ncg     rms          ort
SDA:   1    -0.193393274979E+03    0.25110E+03    0.00000E+00   688   0.695E+03 0.000E+00
CGA:   2    -0.388917393822E+03   -0.19552E+03   -0.19621E+03   688   0.200E+03-0.843E+01
CGA:   3    -0.435954272626E+03   -0.47037E+02   -0.47053E+02   688   0.417E+02 0.516E+01
CGA:   4    -0.445922164070E+03   -0.99679E+01   -0.99711E+01   688   0.108E+02 0.318E+00
CGA:   5    -0.448292312435E+03   -0.23701E+01   -0.23730E+01   688   0.380E+01 0.632E-01
CGA:   6    -0.448937409149E+03   -0.64510E+00   -0.61554E+00   688   0.210E+01-0.329E-01
CGA:   7    -0.449348077779E+03   -0.41067E+00   -0.41208E+00   688   0.663E+00 0.146E-01
CGA:   8    -0.449566326027E+03   -0.21825E+00   -0.21847E+00   688   0.288E+00-0.178E-02
CGA:   9    -0.449650791442E+03   -0.84465E-01   -0.84401E-01   688   0.171E+00 0.773E-03
CGA:  10    -0.449675453819E+03   -0.24662E-01   -0.24501E-01   688   0.820E-01 0.217E-03
CGA:  11    -0.449695200733E+03   -0.19747E-01   -0.19745E-01   688   0.212E-01 0.222E-03
CGA:  12    -0.449702220057E+03   -0.70193E-02   -0.70216E-02   688   0.118E-01-0.195E-04
CGA:  13    -0.449704098864E+03   -0.18788E-02   -0.18849E-02   688   0.759E-02 0.294E-05
CGA:  14    -0.449706078019E+03   -0.19792E-02   -0.19791E-02   688   0.248E-02-0.176E-05
CGA:  15    -0.449707018296E+03   -0.94028E-03   -0.94079E-03   688   0.207E-02-0.462E-05
CGA:  16    -0.449707330906E+03   -0.31261E-03   -0.31243E-03   688   0.104E-02-0.827E-05
CGA:  17    -0.449707660555E+03   -0.32965E-03   -0.33012E-03   688   0.415E-03-0.577E-05
CGA:  18    -0.449707790356E+03   -0.12980E-03   -0.12983E-03   688   0.441E-03-0.659E-06
CGA:  19    -0.449707863260E+03   -0.72904E-04   -0.73001E-04   688   0.174E-03 0.132E-05
  13 F= -.45461317E+03 E0= -.45459940E+03  d E =-.941786E+01  mag=    -0.0072
       N       E                     dE             d eps       ncg     rms          ort
SDA:   1    -0.391361620875E+03    0.58346E+02    0.00000E+00   688   0.162E+03 0.000E+00
CGA:   2    -0.440411162912E+03   -0.49050E+02   -0.49124E+02   688   0.497E+02-0.833E+00
CGA:   3    -0.452043869958E+03   -0.11633E+02   -0.11640E+02   688   0.125E+02 0.208E+00
CGA:   4    -0.454399758440E+03   -0.23559E+01   -0.24003E+01   688   0.368E+01 0.127E+00
CGA:   5    -0.455033801147E+03   -0.63404E+00   -0.59113E+00   688   0.120E+01-0.130E-01
CGA:   6    -0.455297615339E+03   -0.26381E+00   -0.26428E+00   688   0.358E+00 0.726E-02
CGA:   7    -0.455408888052E+03   -0.11127E+00   -0.11130E+00   688   0.161E+00-0.265E-03
CGA:   8    -0.455453823593E+03   -0.44936E-01   -0.44892E-01   688   0.106E+00 0.833E-03
CGA:   9    -0.455473851307E+03   -0.20028E-01   -0.19912E-01   688   0.459E-01-0.271E-03
CGA:  10    -0.455485338223E+03   -0.11487E-01   -0.11485E-01   688   0.144E-01 0.201E-03
CGA:  11    -0.455489536495E+03   -0.41983E-02   -0.42001E-02   688   0.643E-02-0.294E-04
CGA:  12    -0.455490848452E+03   -0.13120E-02   -0.13137E-02   688   0.347E-02 0.121E-04
CGA:  13    -0.455491638580E+03   -0.79013E-03   -0.78999E-03   688   0.134E-02-0.464E-05
CGA:  14    -0.455492070766E+03   -0.43219E-03   -0.43180E-03   688   0.660E-03 0.488E-05
CGA:  15    -0.455492236771E+03   -0.16601E-03   -0.16601E-03   688   0.486E-03-0.311E-05
CGA:  16    -0.455492339717E+03   -0.10295E-03   -0.10292E-03   688   0.161E-03-0.901E-06
CGA:  17    -0.455492391335E+03   -0.51619E-04   -0.51785E-04   688   0.746E-04-0.217E-05
  14 F= -.46040629E+03 E0= -.46039219E+03  d E =-.579312E+01  mag=    -0.0433
       N       E                     dE             d eps       ncg     rms          ort
SDA:   1    -0.380938139472E+03    0.74554E+02    0.00000E+00   688   0.193E+03 0.000E+00
CGA:   2    -0.439283305919E+03   -0.58345E+02   -0.58425E+02   688   0.604E+02-0.834E+00
CGA:   3    -0.453250004574E+03   -0.13967E+02   -0.13944E+02   688   0.154E+02-0.406E+00
CGA:   4    -0.456328836270E+03   -0.30788E+01   -0.30872E+01   688   0.343E+01 0.554E-01
CGA:   5    -0.457109177981E+03   -0.78034E+00   -0.77956E+00   688   0.930E+00-0.118E-01
CGA:   6    -0.457352478935E+03   -0.24330E+00   -0.24306E+00   688   0.333E+00 0.951E-02
CGA:   7    -0.457452557010E+03   -0.10008E+00   -0.10011E+00   688   0.158E+00-0.451E-03
CGA:   8    -0.457498708443E+03   -0.46151E-01   -0.46130E-01   688   0.778E-01 0.367E-03
CGA:   9    -0.457518472689E+03   -0.19764E-01   -0.19764E-01   688   0.284E-01 0.120E-04
CGA:  10    -0.457526605354E+03   -0.81327E-02   -0.81308E-02   688   0.944E-02 0.394E-04
CGA:  11    -0.457529256785E+03   -0.26514E-02   -0.26516E-02   688   0.386E-02-0.704E-05
CGA:  12    -0.457530323896E+03   -0.10671E-02   -0.10669E-02   688   0.170E-02 0.642E-05
CGA:  13    -0.457530842699E+03   -0.51880E-03   -0.51874E-03   688   0.786E-03 0.121E-05
CGA:  14    -0.457531098662E+03   -0.25596E-03   -0.25600E-03   688   0.389E-03-0.809E-06
CGA:  15    -0.457531212310E+03   -0.11365E-03   -0.11376E-03   688   0.182E-03-0.368E-05
CGA:  16    -0.457531267140E+03   -0.54831E-04   -0.54838E-04   688   0.727E-04-0.258E-06
  15 F= -.46246679E+03 E0= -.46245260E+03  d E =-.785361E+01  mag=    -0.1822
       N       E                     dE             d eps       ncg     rms          ort
SDA:   1    -0.404814989565E+03    0.52716E+02    0.00000E+00   688   0.139E+03 0.000E+00
CGA:   2    -0.446484309362E+03   -0.41669E+02   -0.41672E+02   688   0.497E+02 0.133E+00
CGA:   3    -0.456596974055E+03   -0.10113E+02   -0.94880E+01   688   0.156E+02-0.530E+00
CGA:   4    -0.459521605218E+03   -0.29246E+01   -0.29338E+01   688   0.306E+01 0.306E-01
CGA:   5    -0.460250203230E+03   -0.72860E+00   -0.72638E+00   688   0.955E+00-0.315E-01
CGA:   6    -0.460449421490E+03   -0.19922E+00   -0.20284E+00   688   0.400E+00 0.241E-01
CGA:   7    -0.460543276476E+03   -0.93855E-01   -0.94047E-01   688   0.174E+00 0.244E-02
CGA:   8    -0.460595365867E+03   -0.52089E-01   -0.51958E-01   688   0.835E-01 0.214E-02
CGA:   9    -0.460620047755E+03   -0.24682E-01   -0.24611E-01   688   0.369E-01 0.137E-02
CGA:  10    -0.460629634755E+03   -0.95870E-02   -0.95916E-02   688   0.157E-01 0.451E-03
CGA:  11    -0.460634083615E+03   -0.44489E-02   -0.44458E-02   688   0.622E-02 0.813E-04
CGA:  12    -0.460636315178E+03   -0.22316E-02   -0.22214E-02   688   0.361E-02 0.811E-04
CGA:  13    -0.460637627850E+03   -0.13127E-02   -0.13084E-02   688   0.265E-02 0.331E-04
CGA:  14    -0.460638628119E+03   -0.10003E-02   -0.99356E-03   688   0.156E-02 0.511E-04
CGA:  15    -0.460639313418E+03   -0.68530E-03   -0.68487E-03   688   0.102E-02 0.621E-06
CGA:  16    -0.460639678353E+03   -0.36493E-03   -0.36397E-03   688   0.606E-03 0.907E-05
CGA:  17    -0.460639921440E+03   -0.24309E-03   -0.24249E-03   688   0.322E-03 0.417E-05
CGA:  18    -0.460640053265E+03   -0.13183E-03   -0.13166E-03   688   0.197E-03 0.150E-05
CGA:  19    -0.460640122993E+03   -0.69727E-04   -0.69808E-04   688   0.100E-03-0.133E-05
  16 F= -.46558041E+03 E0= -.46557030E+03  d E =-.311362E+01  mag=    -0.1114
       N       E                     dE             d eps       ncg     rms          ort
SDA:   1    -0.432458349689E+03    0.28182E+02    0.00000E+00   688   0.709E+02 0.000E+00
CGA:   2    -0.454063324104E+03   -0.21605E+02   -0.21605E+02   688   0.263E+02-0.677E+00
CGA:   3    -0.459401795370E+03   -0.53385E+01   -0.51988E+01   688   0.628E+01 0.102E+01
CGA:   4    -0.460762592509E+03   -0.13608E+01   -0.13675E+01   688   0.132E+01 0.187E-01
CGA:   5    -0.461086105848E+03   -0.32351E+00   -0.32314E+00   688   0.380E+00-0.169E-02
CGA:   6    -0.461184101498E+03   -0.97996E-01   -0.98144E-01   688   0.138E+00 0.174E-02
CGA:   7    -0.461227245653E+03   -0.43144E-01   -0.43141E-01   688   0.605E-01 0.585E-04
CGA:   8    -0.461248481141E+03   -0.21235E-01   -0.21234E-01   688   0.254E-01 0.262E-04
CGA:   9    -0.461256152108E+03   -0.76710E-02   -0.76701E-02   688   0.922E-02 0.628E-04
CGA:  10    -0.461258830402E+03   -0.26783E-02   -0.26784E-02   688   0.293E-02 0.778E-05
CGA:  11    -0.461259785866E+03   -0.95546E-03   -0.95548E-03   688   0.121E-02-0.293E-05
CGA:  12    -0.461260181455E+03   -0.39559E-03   -0.39541E-03   688   0.597E-03 0.418E-05
CGA:  13    -0.461260390068E+03   -0.20861E-03   -0.20872E-03   688   0.270E-03-0.234E-05
CGA:  14    -0.461260490484E+03   -0.10042E-03   -0.10051E-03   688   0.119E-03-0.138E-05
CGA:  15    -0.461260531219E+03   -0.40735E-04   -0.40773E-04   688   0.531E-04-0.979E-06
  17 F= -.46621267E+03 E0= -.46620332E+03  d E =-.374589E+01  mag=    -0.0668
       N       E                     dE             d eps       ncg     rms          ort
SDA:   1    -0.433487516372E+03    0.27773E+02    0.00000E+00   688   0.719E+02 0.000E+00
CGA:   2    -0.456342259074E+03   -0.22855E+02   -0.22862E+02   688   0.256E+02-0.379E+00
CGA:   3    -0.461958676837E+03   -0.56164E+01   -0.56509E+01   688   0.516E+01 0.241E+00
CGA:   4    -0.463104265608E+03   -0.11456E+01   -0.11482E+01   688   0.118E+01 0.711E-02
CGA:   5    -0.463386479309E+03   -0.28221E+00   -0.28210E+00   688   0.340E+00-0.163E-03
CGA:   6    -0.463480222442E+03   -0.93743E-01   -0.93760E-01   688   0.130E+00 0.397E-03
CGA:   7    -0.463521493499E+03   -0.41271E-01   -0.41267E-01   688   0.581E-01 0.100E-03
CGA:   8    -0.463540982024E+03   -0.19489E-01   -0.19486E-01   688   0.223E-01 0.479E-04
CGA:   9    -0.463547785901E+03   -0.68039E-02   -0.68038E-02   688   0.746E-02 0.140E-04
CGA:  10    -0.463549946245E+03   -0.21603E-02   -0.21603E-02   688   0.235E-02-0.345E-05
CGA:  11    -0.463550724249E+03   -0.77800E-03   -0.77789E-03   688   0.882E-03 0.346E-05
CGA:  12    -0.463551038815E+03   -0.31457E-03   -0.31462E-03   688   0.432E-03-0.138E-05
CGA:  13    -0.463551181309E+03   -0.14249E-03   -0.14252E-03   688   0.194E-03-0.107E-05
CGA:  14    -0.463551248027E+03   -0.66719E-04   -0.66774E-04   688   0.734E-04-0.145E-05
  18 F= -.46850986E+03 E0= -.46850060E+03  d E =-.229719E+01  mag=    -0.0802
       N       E                     dE             d eps       ncg     rms          ort
SDA:   1    -0.428052637502E+03    0.35499E+02    0.00000E+00   688   0.868E+02 0.000E+00
CGA:   2    -0.455746980463E+03   -0.27694E+02   -0.27704E+02   688   0.307E+02-0.520E+00
CGA:   3    -0.462513379706E+03   -0.67664E+01   -0.68327E+01   688   0.604E+01 0.272E+00
CGA:   4    -0.463874512105E+03   -0.13611E+01   -0.13643E+01   688   0.137E+01 0.859E-02
CGA:   5    -0.464207803023E+03   -0.33329E+00   -0.33324E+00   688   0.395E+00 0.133E-03
CGA:   6    -0.464318596815E+03   -0.11079E+00   -0.11080E+00   688   0.155E+00 0.138E-03
CGA:   7    -0.464367353266E+03   -0.48756E-01   -0.48752E-01   688   0.705E-01 0.126E-03
CGA:   8    -0.464390357759E+03   -0.23004E-01   -0.23002E-01   688   0.271E-01 0.654E-04
CGA:   9    -0.464398469511E+03   -0.81118E-02   -0.81118E-02   688   0.893E-02 0.148E-04
CGA:  10    -0.464401084191E+03   -0.26147E-02   -0.26147E-02   688   0.275E-02-0.481E-05
CGA:  11    -0.464402019100E+03   -0.93491E-03   -0.93477E-03   688   0.101E-02 0.350E-05
CGA:  12    -0.464402399293E+03   -0.38019E-03   -0.38028E-03   688   0.461E-03-0.139E-05
CGA:  13    -0.464402564759E+03   -0.16547E-03   -0.16559E-03   688   0.202E-03-0.226E-05
CGA:  14    -0.464402632921E+03   -0.68162E-04   -0.68200E-04   688   0.787E-04-0.127E-05
  19 F= -.46936187E+03 E0= -.46935175E+03  d E =-.314920E+01  mag=    -0.1178
       N       E                     dE             d eps       ncg     rms          ort
SDA:   1    -0.433766173267E+03    0.30636E+02    0.00000E+00   688   0.778E+02 0.000E+00
CGA:   2    -0.458540025007E+03   -0.24774E+02   -0.24777E+02   688   0.263E+02-0.189E+00
CGA:   3    -0.464712556297E+03   -0.61725E+01   -0.61989E+01   688   0.493E+01 0.952E-01
CGA:   4    -0.465855946816E+03   -0.11434E+01   -0.11446E+01   688   0.112E+01 0.455E-02
CGA:   5    -0.466128485564E+03   -0.27254E+00   -0.27247E+00   688   0.329E+00 0.688E-05
CGA:   6    -0.466224094229E+03   -0.95609E-01   -0.95610E-01   688   0.129E+00 0.827E-04
CGA:   7    -0.466265992781E+03   -0.41899E-01   -0.41896E-01   688   0.572E-01 0.711E-04
CGA:   8    -0.466284254756E+03   -0.18262E-01   -0.18261E-01   688   0.210E-01 0.403E-04
CGA:   9    -0.466290482660E+03   -0.62279E-02   -0.62280E-02   688   0.622E-02 0.131E-04
CGA:  10    -0.466292388600E+03   -0.19059E-02   -0.19060E-02   688   0.183E-02-0.370E-05
CGA:  11    -0.466293035367E+03   -0.64677E-03   -0.64664E-03   688   0.657E-03 0.256E-05
CGA:  12    -0.466293291564E+03   -0.25620E-03   -0.25622E-03   688   0.276E-03-0.153E-06
CGA:  13    -0.466293395066E+03   -0.10350E-03   -0.10358E-03   688   0.109E-03-0.693E-06
CGA:  14    -0.466293432130E+03   -0.37064E-04   -0.37076E-04   688   0.414E-04 0.897E-06
  20 F= -.47125129E+03 E0= -.47124034E+03  d E =-.188942E+01  mag=    -0.2107
       N       E                     dE             d eps       ncg     rms          ort
SDA:   1    -0.420014979580E+03    0.46278E+02    0.00000E+00   688   0.113E+03 0.000E+00
CGA:   2    -0.455790810735E+03   -0.35776E+02   -0.35779E+02   688   0.381E+02-0.372E+00
CGA:   3    -0.464713949718E+03   -0.89231E+01   -0.89724E+01   688   0.709E+01 0.171E+00
CGA:   4    -0.466366473559E+03   -0.16525E+01   -0.16544E+01   688   0.163E+01 0.787E-02
CGA:   5    -0.466761458257E+03   -0.39498E+00   -0.39484E+00   688   0.485E+00 0.226E-04
CGA:   6    -0.466901170279E+03   -0.13971E+00   -0.13972E+00   688   0.191E+00 0.195E-03
CGA:   7    -0.466962734327E+03   -0.61564E-01   -0.61561E-01   688   0.854E-01 0.100E-03
CGA:   8    -0.466989869877E+03   -0.27136E-01   -0.27135E-01   688   0.316E-01 0.524E-04
CGA:   9    -0.466999201494E+03   -0.93316E-02   -0.93317E-02   688   0.950E-02 0.170E-04
CGA:  10    -0.467002097347E+03   -0.28959E-02   -0.28959E-02   688   0.278E-02-0.334E-05
CGA:  11    -0.467003085482E+03   -0.98814E-03   -0.98806E-03   688   0.101E-02 0.159E-05
CGA:  12    -0.467003483242E+03   -0.39776E-03   -0.39780E-03   688   0.413E-03-0.430E-06
CGA:  13    -0.467003647770E+03   -0.16453E-03   -0.16471E-03   688   0.152E-03-0.208E-05
CGA:  14    -0.467003706387E+03   -0.58617E-04   -0.58649E-04   688   0.505E-04-0.432E-06
  21 F= -.47195759E+03 E0= -.47194500E+03  d E =-.259572E+01  mag=    -0.3475
       N       E                     dE             d eps       ncg     rms          ort
SDA:   1    -0.421846762698E+03    0.45157E+02    0.00000E+00   688   0.116E+03 0.000E+00
CGA:   2    -0.457337243855E+03   -0.35490E+02   -0.35476E+02   688   0.385E+02-0.403E+00
CGA:   3    -0.466512001472E+03   -0.91748E+01   -0.92208E+01   688   0.748E+01 0.156E+00
CGA:   4    -0.468204789360E+03   -0.16928E+01   -0.16952E+01   688   0.177E+01 0.703E-02
CGA:   5    -0.468607847270E+03   -0.40306E+00   -0.40264E+00   688   0.508E+00 0.441E-04
CGA:   6    -0.468747395734E+03   -0.13955E+00   -0.13957E+00   688   0.197E+00 0.368E-03
CGA:   7    -0.468808266731E+03   -0.60871E-01   -0.60871E-01   688   0.900E-01 0.783E-05
CGA:   8    -0.468836752271E+03   -0.28486E-01   -0.28485E-01   688   0.355E-01 0.465E-04
CGA:   9    -0.468847115552E+03   -0.10363E-01   -0.10364E-01   688   0.110E-01 0.227E-04
CGA:  10    -0.468850495417E+03   -0.33799E-02   -0.33799E-02   688   0.316E-02-0.584E-08
CGA:  11    -0.468851612336E+03   -0.11169E-02   -0.11170E-02   688   0.120E-02-0.190E-05
CGA:  12    -0.468852063756E+03   -0.45142E-03   -0.45132E-03   688   0.555E-03 0.162E-05
CGA:  13    -0.468852265157E+03   -0.20140E-03   -0.20148E-03   688   0.252E-03-0.150E-05
CGA:  14    -0.468852349763E+03   -0.84606E-04   -0.84605E-04   688   0.978E-04 0.100E-06
  22 F= -.47380701E+03 E0= -.47379473E+03  d E =-.184942E+01  mag=    -0.3535
       N       E                     dE             d eps       ncg     rms          ort
SDA:   1    -0.446746677494E+03    0.22106E+02    0.00000E+00   688   0.554E+02 0.000E+00
CGA:   2    -0.463731881217E+03   -0.16985E+02   -0.16983E+02   688   0.181E+02-0.774E-01
CGA:   3    -0.468099452562E+03   -0.43676E+01   -0.43745E+01   688   0.356E+01 0.296E-01
CGA:   4    -0.468903820409E+03   -0.80437E+00   -0.80503E+00   688   0.808E+00 0.187E-02
CGA:   5    -0.469089276280E+03   -0.18546E+00   -0.18535E+00   688   0.233E+00 0.296E-04
CGA:   6    -0.469152706157E+03   -0.63430E-01   -0.63434E-01   688   0.916E-01 0.537E-04
CGA:   7    -0.469180646080E+03   -0.27940E-01   -0.27940E-01   688   0.425E-01-0.359E-05
CGA:   8    -0.469193974152E+03   -0.13328E-01   -0.13328E-01   688   0.170E-01 0.225E-04
CGA:   9    -0.469198914049E+03   -0.49399E-02   -0.49400E-02   688   0.528E-02 0.121E-04
CGA:  10    -0.469200522340E+03   -0.16083E-02   -0.16083E-02   688   0.153E-02-0.683E-06
CGA:  11    -0.469201051784E+03   -0.52944E-03   -0.52952E-03   688   0.596E-03-0.162E-05
CGA:  12    -0.469201266870E+03   -0.21509E-03   -0.21500E-03   688   0.280E-03 0.158E-05
CGA:  13    -0.469201366009E+03   -0.99139E-04   -0.99159E-04   688   0.127E-03-0.401E-06
  23 F= -.47415553E+03 E0= -.47414320E+03  d E =-.219794E+01  mag=    -0.3426
       N       E                     dE             d eps       ncg     rms          ort
SDA:   1    -0.438832265897E+03    0.30369E+02    0.00000E+00   688   0.788E+02 0.000E+00
CGA:   2    -0.462455532458E+03   -0.23623E+02   -0.23626E+02   688   0.268E+02 0.987E-01
CGA:   3    -0.468707648855E+03   -0.62521E+01   -0.62645E+01   688   0.559E+01 0.647E-01
CGA:   4    -0.469927957034E+03   -0.12203E+01   -0.12230E+01   688   0.137E+01 0.475E-02
CGA:   5    -0.470221166024E+03   -0.29321E+00   -0.29284E+00   688   0.359E+00 0.705E-04
CGA:   6    -0.470319871571E+03   -0.98706E-01   -0.98707E-01   688   0.129E+00 0.443E-04
CGA:   7    -0.470359894159E+03   -0.40023E-01   -0.40022E-01   688   0.587E-01 0.427E-04
CGA:   8    -0.470378742798E+03   -0.18849E-01   -0.18848E-01   688   0.250E-01 0.330E-04
CGA:   9    -0.470385996132E+03   -0.72533E-02   -0.72535E-02   688   0.806E-02 0.175E-04
CGA:  10    -0.470388447692E+03   -0.24516E-02   -0.24516E-02   688   0.224E-02 0.140E-05
CGA:  11    -0.470389203385E+03   -0.75569E-03   -0.75565E-03   688   0.809E-03 0.112E-05
CGA:  12    -0.470389491883E+03   -0.28850E-03   -0.28842E-03   688   0.345E-03 0.140E-05
CGA:  13    -0.470389618891E+03   -0.12701E-03   -0.12707E-03   688   0.146E-03-0.884E-06
CGA:  14    -0.470389670234E+03   -0.51344E-04   -0.51335E-04   688   0.542E-04 0.205E-06
  24 F= -.47534237E+03 E0= -.47532988E+03  d E =-.118685E+01  mag=    -0.3811
       N       E                     dE             d eps       ncg     rms          ort
SDA:   1    -0.468541497748E+03    0.18481E+01    0.00000E+00   688   0.471E+01 0.000E+00
CGA:   2    -0.469968162531E+03   -0.14267E+01   -0.14267E+01   688   0.157E+01 0.362E-02
CGA:   3    -0.470340468533E+03   -0.37231E+00   -0.37195E+00   688   0.326E+00-0.785E-03
CGA:   4    -0.470413159064E+03   -0.72691E-01   -0.72717E-01   688   0.717E-01 0.401E-04
CGA:   5    -0.470429221903E+03   -0.16063E-01   -0.16063E-01   688   0.203E-01 0.227E-04
CGA:   6    -0.470434598725E+03   -0.53768E-02   -0.53766E-02   688   0.751E-02-0.544E-05
CGA:   7    -0.470436853009E+03   -0.22543E-02   -0.22543E-02   688   0.353E-02-0.262E-06
CGA:   8    -0.470437944002E+03   -0.10910E-02   -0.10909E-02   688   0.151E-02 0.443E-05
CGA:   9    -0.470438384251E+03   -0.44025E-03   -0.44027E-03   688   0.473E-03 0.320E-05
CGA:  10    -0.470438530312E+03   -0.14606E-03   -0.14607E-03   688   0.136E-03-0.400E-06
CGA:  11    -0.470438574734E+03   -0.44422E-04   -0.44423E-04   688   0.527E-04-0.324E-07
  25 F= -.47539083E+03 E0= -.47537822E+03  d E =-.123530E+01  mag=    -0.3898
       N       E                     dE             d eps       ncg     rms          ort
SDA:   1    -0.453363639386E+03    0.17075E+02    0.00000E+00   688   0.452E+02 0.000E+00
CGA:   2    -0.466864564414E+03   -0.13501E+02   -0.13501E+02   688   0.144E+02 0.112E+00
CGA:   3    -0.470328676819E+03   -0.34641E+01   -0.34613E+01   688   0.308E+01-0.760E-02
CGA:   4    -0.471002140959E+03   -0.67346E+00   -0.67400E+00   688   0.721E+00 0.132E-02
CGA:   5    -0.471159007714E+03   -0.15687E+00   -0.15673E+00   688   0.201E+00-0.103E-03
CGA:   6    -0.471212108754E+03   -0.53101E-01   -0.53104E-01   688   0.730E-01 0.488E-04
CGA:   7    -0.471234735298E+03   -0.22627E-01   -0.22626E-01   688   0.339E-01 0.155E-04
CGA:   8    -0.471245387527E+03   -0.10652E-01   -0.10652E-01   688   0.144E-01 0.240E-04
CGA:   9    -0.471249647889E+03   -0.42604E-02   -0.42603E-02   688   0.453E-02 0.116E-04
CGA:  10    -0.471251049918E+03   -0.14020E-02   -0.14020E-02   688   0.132E-02 0.110E-05
CGA:  11    -0.471251484914E+03   -0.43500E-03   -0.43503E-03   688   0.510E-03-0.875E-06
CGA:  12    -0.471251659086E+03   -0.17417E-03   -0.17418E-03   688   0.233E-03-0.933E-07
CGA:  13    -0.471251744081E+03   -0.84995E-04   -0.85072E-04   688   0.101E-03-0.110E-05
  26 F= -.47620350E+03 E0= -.47618929E+03  d E =-.812668E+00  mag=    -0.4869
       N       E                     dE             d eps       ncg     rms          ort
SDA:   1    -0.465510030600E+03    0.57416E+01    0.00000E+00   688   0.148E+02 0.000E+00
CGA:   2    -0.469943575038E+03   -0.44335E+01   -0.44337E+01   688   0.466E+01 0.235E-01
CGA:   3    -0.471073301429E+03   -0.11297E+01   -0.11288E+01   688   0.978E+00-0.318E-02
CGA:   4    -0.471291499917E+03   -0.21820E+00   -0.21826E+00   688   0.215E+00 0.153E-03
CGA:   5    -0.471339847770E+03   -0.48348E-01   -0.48338E-01   688   0.621E-01 0.338E-04
CGA:   6    -0.471356170409E+03   -0.16323E-01   -0.16323E-01   688   0.229E-01 0.198E-05
CGA:   7    -0.471363312027E+03   -0.71416E-02   -0.71415E-02   688   0.107E-01 0.742E-05
CGA:   8    -0.471366680303E+03   -0.33683E-02   -0.33680E-02   688   0.457E-02 0.110E-04
CGA:   9    -0.471368005612E+03   -0.13253E-02   -0.13253E-02   688   0.149E-02 0.456E-05
CGA:  10    -0.471368458009E+03   -0.45240E-03   -0.45239E-03   688   0.436E-03 0.407E-06
CGA:  11    -0.471368608319E+03   -0.15031E-03   -0.15036E-03   688   0.173E-03-0.965E-06
CGA:  12    -0.471368671679E+03   -0.63360E-04   -0.63344E-04   688   0.891E-04 0.223E-06
  27 F= -.47631956E+03 E0= -.47630426E+03  d E =-.928731E+00  mag=    -0.5683
       N       E                     dE             d eps       ncg     rms          ort
SDA:   1    -0.453545651148E+03    0.17823E+02    0.00000E+00   688   0.469E+02 0.000E+00
CGA:   2    -0.467753420981E+03   -0.14208E+02   -0.14208E+02   688   0.144E+02 0.131E+00
CGA:   3    -0.471188232323E+03   -0.34348E+01   -0.34333E+01   688   0.329E+01-0.635E-03
CGA:   4    -0.471880630713E+03   -0.69240E+00   -0.69353E+00   688   0.766E+00 0.147E-02
CGA:   5    -0.472044005908E+03   -0.16338E+00   -0.16318E+00   688   0.200E+00-0.118E-03
CGA:   6    -0.472098204401E+03   -0.54198E-01   -0.54199E-01   688   0.712E-01 0.648E-06
CGA:   7    -0.472120661625E+03   -0.22457E-01   -0.22456E-01   688   0.338E-01 0.222E-04
CGA:   8    -0.472131253063E+03   -0.10591E-01   -0.10591E-01   688   0.142E-01 0.262E-04
CGA:   9    -0.472135473948E+03   -0.42209E-02   -0.42209E-02   688   0.454E-02 0.763E-05
CGA:  10    -0.472136898008E+03   -0.14241E-02   -0.14240E-02   688   0.131E-02 0.713E-06
CGA:  11    -0.472137362304E+03   -0.46430E-03   -0.46415E-03   688   0.513E-03 0.241E-05
CGA:  12    -0.472137571126E+03   -0.20882E-03   -0.20892E-03   688   0.258E-03-0.918E-06
CGA:  13    -0.472137687442E+03   -0.11632E-03   -0.11650E-03   688   0.139E-03-0.122E-05
CGA:  14    -0.472137751872E+03   -0.64430E-04   -0.64459E-04   688   0.855E-04-0.111E-06
  28 F= -.47708368E+03 E0= -.47706764E+03  d E =-.764124E+00  mag=    -0.7588
       N       E                     dE             d eps       ncg     rms          ort
SDA:   1    -0.457181874306E+03    0.14956E+02    0.00000E+00   688   0.383E+02 0.000E+00
CGA:   2    -0.468785580232E+03   -0.11604E+02   -0.11609E+02   688   0.118E+02 0.827E-01
CGA:   3    -0.471591838340E+03   -0.28063E+01   -0.28038E+01   688   0.269E+01-0.266E-04
CGA:   4    -0.472157940367E+03   -0.56610E+00   -0.56702E+00   688   0.615E+00 0.295E-03
CGA:   5    -0.472289725780E+03   -0.13179E+00   -0.13163E+00   688   0.163E+00 0.862E-04
CGA:   6    -0.472333422459E+03   -0.43697E-01   -0.43696E-01   688   0.586E-01-0.583E-05
CGA:   7    -0.472351671723E+03   -0.18249E-01   -0.18249E-01   688   0.279E-01 0.147E-04
CGA:   8    -0.472360363923E+03   -0.86922E-02   -0.86922E-02   688   0.118E-01 0.202E-04
CGA:   9    -0.472363876083E+03   -0.35122E-02   -0.35122E-02   688   0.374E-02 0.539E-05
CGA:  10    -0.472365056791E+03   -0.11807E-02   -0.11807E-02   688   0.109E-02 0.412E-06
CGA:  11    -0.472365441754E+03   -0.38496E-03   -0.38489E-03   688   0.438E-03 0.171E-05
CGA:  12    -0.472365617400E+03   -0.17565E-03   -0.17570E-03   688   0.229E-03-0.601E-06
CGA:  13    -0.472365716259E+03   -0.98858E-04   -0.99004E-04   688   0.138E-03-0.114E-05
  29 F= -.47730563E+03 E0= -.47729000E+03  d E =-.986067E+00  mag=    -0.8991
       N       E                     dE             d eps       ncg     rms          ort
SDA:   1    -0.453953002330E+03    0.18413E+02    0.00000E+00   688   0.481E+02 0.000E+00
CGA:   2    -0.468543330239E+03   -0.14590E+02   -0.14594E+02   688   0.147E+02 0.739E-01
CGA:   3    -0.472025783249E+03   -0.34825E+01   -0.34809E+01   688   0.337E+01 0.371E-02
CGA:   4    -0.472732072601E+03   -0.70629E+00   -0.70763E+00   688   0.762E+00 0.538E-03
CGA:   5    -0.472895627480E+03   -0.16355E+00   -0.16330E+00   688   0.200E+00 0.125E-03
CGA:   6    -0.472949262978E+03   -0.53635E-01   -0.53636E-01   688   0.693E-01 0.477E-05
CGA:   7    -0.472971192348E+03   -0.21929E-01   -0.21929E-01   688   0.331E-01 0.147E-04
CGA:   8    -0.472981474594E+03   -0.10282E-01   -0.10282E-01   688   0.142E-01 0.175E-04
CGA:   9    -0.472985684234E+03   -0.42096E-02   -0.42096E-02   688   0.449E-02 0.343E-05
CGA:  10    -0.472987088558E+03   -0.14043E-02   -0.14043E-02   688   0.127E-02-0.179E-05
CGA:  11    -0.472987524555E+03   -0.43600E-03   -0.43598E-03   688   0.460E-03 0.633E-06
CGA:  12    -0.472987698808E+03   -0.17425E-03   -0.17431E-03   688   0.198E-03-0.882E-06
CGA:  13    -0.472987777491E+03   -0.78683E-04   -0.78752E-04   688   0.857E-04-0.797E-06
  30 F= -.47791522E+03 E0= -.47789991E+03  d E =-.609596E+00  mag=    -0.8961
       N       E                     dE             d eps       ncg     rms          ort
SDA:   1    -0.465039281551E+03    0.79484E+01    0.00000E+00   688   0.203E+02 0.000E+00
CGA:   2    -0.471220462067E+03   -0.61812E+01   -0.61819E+01   688   0.620E+01 0.236E-01
CGA:   3    -0.472699992940E+03   -0.14795E+01   -0.14782E+01   688   0.138E+01-0.152E-02
CGA:   4    -0.472997028375E+03   -0.29704E+00   -0.29724E+00   688   0.292E+00 0.196E-03
CGA:   5    -0.473061070191E+03   -0.64042E-01   -0.64002E-01   688   0.823E-01 0.407E-04
CGA:   6    -0.473082445275E+03   -0.21375E-01   -0.21375E-01   688   0.287E-01-0.435E-05
CGA:   7    -0.473091583021E+03   -0.91377E-02   -0.91377E-02   688   0.136E-01 0.186E-05
CGA:   8    -0.473095856339E+03   -0.42733E-02   -0.42732E-02   688   0.590E-02 0.110E-04
CGA:   9    -0.473097575812E+03   -0.17195E-02   -0.17195E-02   688   0.190E-02 0.129E-05
CGA:  10    -0.473098159525E+03   -0.58371E-03   -0.58372E-03   688   0.539E-03-0.103E-05
CGA:  11    -0.473098344895E+03   -0.18537E-03   -0.18537E-03   688   0.197E-03-0.767E-07
CGA:  12    -0.473098419390E+03   -0.74495E-04   -0.74517E-04   688   0.866E-04-0.310E-06
  31 F= -.47801871E+03 E0= -.47800325E+03  d E =-.713084E+00  mag=    -0.8761
       N       E                     dE             d eps       ncg     rms          ort
SDA:   1    -0.461039243780E+03    0.12059E+02    0.00000E+00   688   0.314E+02 0.000E+00
CGA:   2    -0.470609072723E+03   -0.95698E+01   -0.95709E+01   688   0.992E+01 0.558E-01
CGA:   3    -0.472926041871E+03   -0.23170E+01   -0.23139E+01   688   0.219E+01-0.304E-02
CGA:   4    -0.473397230157E+03   -0.47119E+00   -0.47177E+00   688   0.491E+00 0.630E-03
CGA:   5    -0.473502414335E+03   -0.10518E+00   -0.10509E+00   688   0.131E+00 0.174E-04
CGA:   6    -0.473537328506E+03   -0.34914E-01   -0.34914E-01   688   0.446E-01-0.127E-04
CGA:   7    -0.473551526088E+03   -0.14198E-01   -0.14197E-01   688   0.208E-01 0.427E-05
CGA:   8    -0.473558159558E+03   -0.66335E-02   -0.66332E-02   688   0.876E-02 0.156E-04
CGA:   9    -0.473560765028E+03   -0.26055E-02   -0.26055E-02   688   0.282E-02 0.198E-05
CGA:  10    -0.473561628183E+03   -0.86315E-03   -0.86316E-03   688   0.792E-03-0.145E-05
CGA:  11    -0.473561896276E+03   -0.26809E-03   -0.26804E-03   688   0.285E-03 0.136E-05
CGA:  12    -0.473562002085E+03   -0.10581E-03   -0.10582E-03   688   0.125E-03-0.161E-06
CGA:  13    -0.473562050417E+03   -0.48333E-04   -0.48382E-04   688   0.565E-04-0.598E-06
  32 F= -.47846885E+03 E0= -.47845389E+03  d E =-.450141E+00  mag=    -0.8174
       N       E                     dE             d eps       ncg     rms          ort
SDA:   1    -0.467670177670E+03    0.58918E+01    0.00000E+00   688   0.150E+02 0.000E+00
CGA:   2    -0.472250467607E+03   -0.45803E+01   -0.45805E+01   688   0.473E+01 0.168E-01
CGA:   3    -0.473359923498E+03   -0.11095E+01   -0.11082E+01   688   0.103E+01-0.223E-02
CGA:   4    -0.473584800506E+03   -0.22488E+00   -0.22501E+00   688   0.222E+00 0.154E-03
CGA:   5    -0.473633214323E+03   -0.48414E-01   -0.48395E-01   688   0.616E-01 0.226E-04
CGA:   6    -0.473649367471E+03   -0.16153E-01   -0.16153E-01   688   0.212E-01-0.143E-04
CGA:   7    -0.473656059095E+03   -0.66916E-02   -0.66916E-02   688   0.997E-02-0.897E-06
CGA:   8    -0.473659196381E+03   -0.31373E-02   -0.31372E-02   688   0.424E-02 0.822E-05
CGA:   9    -0.473660445246E+03   -0.12489E-02   -0.12489E-02   688   0.138E-02 0.469E-06
CGA:  10    -0.473660866911E+03   -0.42166E-03   -0.42167E-03   688   0.392E-03-0.116E-05
CGA:  11    -0.473661001175E+03   -0.13426E-03   -0.13424E-03   688   0.146E-03 0.526E-06
CGA:  12    -0.473661056086E+03   -0.54911E-04   -0.54903E-04   688   0.704E-04 0.930E-07
  33 F= -.47855968E+03 E0= -.47854474E+03  d E =-.540973E+00  mag=    -0.7638
       N       E                     dE             d eps       ncg     rms          ort
SDA:   1    -0.458712104006E+03    0.14949E+02    0.00000E+00   688   0.382E+02 0.000E+00
CGA:   2    -0.470456418755E+03   -0.11744E+02   -0.11745E+02   688   0.123E+02 0.746E-01
CGA:   3    -0.473342582631E+03   -0.28862E+01   -0.28845E+01   688   0.264E+01-0.132E-02
CGA:   4    -0.473915369536E+03   -0.57279E+00   -0.57333E+00   688   0.601E+00 0.864E-03
CGA:   5    -0.474047171644E+03   -0.13180E+00   -0.13168E+00   688   0.168E+00-0.651E-04
CGA:   6    -0.474091950072E+03   -0.44778E-01   -0.44781E-01   688   0.589E-01 0.275E-04
CGA:   7    -0.474110842119E+03   -0.18892E-01   -0.18892E-01   688   0.277E-01 0.954E-05
CGA:   8    -0.474119511505E+03   -0.86694E-02   -0.86692E-02   688   0.112E-01 0.169E-04
CGA:   9    -0.474122856120E+03   -0.33446E-02   -0.33446E-02   688   0.348E-02 0.287E-05
CGA:  10    -0.474123916565E+03   -0.10604E-02   -0.10605E-02   688   0.991E-03-0.161E-05
CGA:  11    -0.474124253696E+03   -0.33713E-03   -0.33713E-03   688   0.368E-03-0.645E-07
CGA:  12    -0.474124391950E+03   -0.13825E-03   -0.13834E-03   688   0.166E-03-0.113E-05
CGA:  13    -0.474124455691E+03   -0.63741E-04   -0.63814E-04   688   0.758E-04-0.872E-06
  34 F= -.47900916E+03 E0= -.47899504E+03  d E =-.449474E+00  mag=    -0.7209
       N       E                     dE             d eps       ncg     rms          ort
SDA:   1    -0.467889494775E+03    0.62349E+01    0.00000E+00   688   0.156E+02 0.000E+00
CGA:   2    -0.472712539554E+03   -0.48230E+01   -0.48231E+01   688   0.503E+01 0.173E-01
CGA:   3    -0.473893831527E+03   -0.11813E+01   -0.11807E+01   688   0.106E+01-0.107E-02
CGA:   4    -0.474127028462E+03   -0.23320E+00   -0.23328E+00   688   0.230E+00 0.134E-03
CGA:   5    -0.474178698812E+03   -0.51670E-01   -0.51653E-01   688   0.666E-01 0.139E-04
CGA:   6    -0.474196262167E+03   -0.17563E-01   -0.17564E-01   688   0.238E-01-0.345E-05
CGA:   7    -0.474203848055E+03   -0.75859E-02   -0.75859E-02   688   0.112E-01 0.173E-05
CGA:   8    -0.474207336984E+03   -0.34889E-02   -0.34888E-02   688   0.457E-02 0.790E-05
CGA:   9    -0.474208679688E+03   -0.13427E-02   -0.13427E-02   688   0.144E-02-0.186E-06
CGA:  10    -0.474209113900E+03   -0.43421E-03   -0.43422E-03   688   0.414E-03-0.998E-06
CGA:  11    -0.474209257263E+03   -0.14336E-03   -0.14339E-03   688   0.159E-03-0.494E-06
CGA:  12    -0.474209318734E+03   -0.61471E-04   -0.61517E-04   688   0.770E-04-0.542E-06
  35 F= -.47908435E+03 E0= -.47907052E+03  d E =-.524666E+00  mag=    -0.6764
       N       E                     dE             d eps       ncg     rms          ort
SDA:   1    -0.457895801926E+03    0.16313E+02    0.00000E+00   688   0.408E+02 0.000E+00
CGA:   2    -0.470733747660E+03   -0.12838E+02   -0.12836E+02   688   0.133E+02 0.145E+00
CGA:   3    -0.473809918527E+03   -0.30762E+01   -0.30731E+01   688   0.283E+01-0.465E-03
CGA:   4    -0.474432880617E+03   -0.62296E+00   -0.62347E+00   688   0.635E+00 0.967E-03
CGA:   5    -0.474575974348E+03   -0.14309E+00   -0.14301E+00   688   0.183E+00-0.972E-04
CGA:   6    -0.474625491305E+03   -0.49517E-01   -0.49519E-01   688   0.661E-01 0.219E-04
CGA:   7    -0.474647070111E+03   -0.21579E-01   -0.21578E-01   688   0.308E-01 0.223E-04
CGA:   8    -0.474656727070E+03   -0.96570E-02   -0.96567E-02   688   0.120E-01 0.195E-04
CGA:   9    -0.474660273037E+03   -0.35460E-02   -0.35460E-02   688   0.368E-02 0.206E-05
CGA:  10    -0.474661383302E+03   -0.11103E-02   -0.11103E-02   688   0.107E-02 0.671E-06
CGA:  11    -0.474661757356E+03   -0.37405E-03   -0.37401E-03   688   0.422E-03 0.991E-06
CGA:  12    -0.474661925712E+03   -0.16836E-03   -0.16850E-03   688   0.210E-03-0.151E-05
CGA:  13    -0.474662015003E+03   -0.89291E-04   -0.89450E-04   688   0.105E-03-0.128E-05
  36 F= -.47951645E+03 E0= -.47950340E+03  d E =-.432097E+00  mag=    -0.5881
       N       E                     dE             d eps       ncg     rms          ort
SDA:   1    -0.469002057493E+03    0.56599E+01    0.00000E+00   688   0.139E+02 0.000E+00
CGA:   2    -0.473399350233E+03   -0.43973E+01   -0.43975E+01   688   0.457E+01 0.271E-01
CGA:   3    -0.474454990202E+03   -0.10556E+01   -0.10548E+01   688   0.961E+00-0.513E-03
CGA:   4    -0.474668407812E+03   -0.21342E+00   -0.21349E+00   688   0.210E+00 0.731E-04
CGA:   5    -0.474716328578E+03   -0.47921E-01   -0.47910E-01   688   0.615E-01 0.742E-05
CGA:   6    -0.474732880759E+03   -0.16552E-01   -0.16552E-01   688   0.224E-01-0.104E-04
CGA:   7    -0.474740145957E+03   -0.72652E-02   -0.72651E-02   688   0.106E-01 0.655E-05
CGA:   8    -0.474743410356E+03   -0.32644E-02   -0.32644E-02   688   0.421E-02 0.777E-05
CGA:   9    -0.474744644860E+03   -0.12345E-02   -0.12345E-02   688   0.132E-02-0.289E-06
CGA:  10    -0.474745045683E+03   -0.40082E-03   -0.40082E-03   688   0.401E-03 0.306E-07
CGA:  11    -0.474745189919E+03   -0.14424E-03   -0.14422E-03   688   0.174E-03 0.309E-06
CGA:  12    -0.474745262422E+03   -0.72504E-04   -0.72569E-04   688   0.995E-04-0.599E-06
  37 F= -.47958427E+03 E0= -.47957159E+03  d E =-.499924E+00  mag=    -0.5090
       N       E                     dE             d eps       ncg     rms          ort
SDA:   1    -0.454808113525E+03    0.19937E+02    0.00000E+00   688   0.488E+02 0.000E+00
CGA:   2    -0.470395366765E+03   -0.15587E+02   -0.15587E+02   688   0.165E+02 0.196E+00
CGA:   3    -0.474141979078E+03   -0.37466E+01   -0.37458E+01   688   0.331E+01 0.811E-02
CGA:   4    -0.474898295650E+03   -0.75632E+00   -0.75646E+00   688   0.716E+00 0.891E-03
CGA:   5    -0.475067585798E+03   -0.16929E+00   -0.16923E+00   688   0.218E+00-0.498E-04
CGA:   6    -0.475126474015E+03   -0.58888E-01   -0.58892E-01   688   0.793E-01 0.300E-04
CGA:   7    -0.475152819201E+03   -0.26345E-01   -0.26345E-01   688   0.366E-01 0.172E-04
CGA:   8    -0.475164393049E+03   -0.11574E-01   -0.11574E-01   688   0.141E-01 0.160E-04
CGA:   9    -0.475168638542E+03   -0.42455E-02   -0.42455E-02   688   0.436E-02 0.308E-05
CGA:  10    -0.475170009415E+03   -0.13709E-02   -0.13709E-02   688   0.139E-02 0.424E-06
CGA:  11    -0.475170537863E+03   -0.52845E-03   -0.52854E-03   688   0.626E-03-0.125E-05
CGA:  12    -0.475170814393E+03   -0.27653E-03   -0.27672E-03   688   0.364E-03-0.146E-05
CGA:  13    -0.475170971560E+03   -0.15717E-03   -0.15734E-03   688   0.210E-03-0.145E-05
CGA:  14    -0.475171054770E+03   -0.83209E-04   -0.83215E-04   688   0.118E-03-0.190E-06
  38 F= -.47998872E+03 E0= -.47997832E+03  d E =-.404450E+00  mag=    -0.2755
       N       E                     dE             d eps       ncg     rms          ort
SDA:   1    -0.472516127305E+03    0.26548E+01    0.00000E+00   688   0.642E+01 0.000E+00
CGA:   2    -0.474577462397E+03   -0.20613E+01   -0.20615E+01   688   0.217E+01 0.942E-02
CGA:   3    -0.475072974295E+03   -0.49551E+00   -0.49521E+00   688   0.433E+00 0.876E-04
CGA:   4    -0.475172300021E+03   -0.99326E-01   -0.99330E-01   688   0.907E-01 0.174E-04
CGA:   5    -0.475194115921E+03   -0.21816E-01   -0.21816E-01   688   0.277E-01 0.149E-04
CGA:   6    -0.475201595258E+03   -0.74793E-02   -0.74792E-02   688   0.103E-01-0.463E-05
CGA:   7    -0.475204951131E+03   -0.33559E-02   -0.33558E-02   688   0.487E-02 0.352E-05
CGA:   8    -0.475206443782E+03   -0.14927E-02   -0.14927E-02   688   0.185E-02 0.261E-05
CGA:   9    -0.475207003499E+03   -0.55972E-03   -0.55971E-03   688   0.553E-03-0.263E-06
CGA:  10    -0.475207177236E+03   -0.17374E-03   -0.17374E-03   688   0.176E-03-0.216E-06
CGA:  11    -0.475207241102E+03   -0.63867E-04   -0.63888E-04   688   0.763E-04-0.430E-06
  39 F= -.48001810E+03 E0= -.48000911E+03  d E =-.433828E+00  mag=    -0.2062
       N       E                     dE             d eps       ncg     rms          ort
SDA:   1    -0.455539081163E+03    0.19668E+02    0.00000E+00   688   0.477E+02 0.000E+00
CGA:   2    -0.470902525626E+03   -0.15363E+02   -0.15363E+02   688   0.164E+02 0.256E+00
CGA:   3    -0.474611130661E+03   -0.37086E+01   -0.37075E+01   688   0.316E+01 0.123E-01
CGA:   4    -0.475351098285E+03   -0.73997E+00   -0.74026E+00   688   0.711E+00 0.126E-02
CGA:   5    -0.475518899712E+03   -0.16780E+00   -0.16775E+00   688   0.213E+00-0.660E-04
CGA:   6    -0.475578419939E+03   -0.59520E-01   -0.59520E-01   688   0.778E-01-0.690E-06
CGA:   7    -0.475604504600E+03   -0.26085E-01   -0.26084E-01   688   0.363E-01 0.261E-04
CGA:   8    -0.475615862327E+03   -0.11358E-01   -0.11358E-01   688   0.138E-01 0.196E-04
CGA:   9    -0.475619948205E+03   -0.40859E-02   -0.40859E-02   688   0.415E-02 0.434E-05
CGA:  10    -0.475621230956E+03   -0.12828E-02   -0.12828E-02   688   0.123E-02 0.431E-06
CGA:  11    -0.475621684337E+03   -0.45338E-03   -0.45335E-03   688   0.486E-03 0.583E-06
CGA:  12    -0.475621878600E+03   -0.19426E-03   -0.19432E-03   688   0.228E-03-0.691E-06
CGA:  13    -0.475621963121E+03   -0.84520E-04   -0.84587E-04   688   0.968E-04-0.122E-05
  40 F= -.48042331E+03 E0= -.48041836E+03  d E =-.405213E+00  mag=    -0.0831
       N       E                     dE             d eps       ncg     rms          ort
SDA:   1    -0.471060658679E+03    0.45612E+01    0.00000E+00   688   0.109E+02 0.000E+00
CGA:   2    -0.474593796817E+03   -0.35331E+01   -0.35329E+01   688   0.374E+01 0.269E-01
CGA:   3    -0.475443280777E+03   -0.84948E+00   -0.84909E+00   688   0.725E+00 0.336E-03
CGA:   4    -0.475611126673E+03   -0.16785E+00   -0.16787E+00   688   0.161E+00 0.908E-04
CGA:   5    -0.475649039935E+03   -0.37913E-01   -0.37910E-01   688   0.478E-01 0.842E-05
CGA:   6    -0.475662477835E+03   -0.13438E-01   -0.13438E-01   688   0.171E-01-0.126E-04
CGA:   7    -0.475668382635E+03   -0.59048E-02   -0.59046E-02   688   0.775E-02 0.494E-05
CGA:   8    -0.475670890469E+03   -0.25078E-02   -0.25077E-02   688   0.288E-02 0.607E-05
CGA:   9    -0.475671748891E+03   -0.85842E-03   -0.85843E-03   688   0.879E-03 0.364E-06
CGA:  10    -0.475672013226E+03   -0.26434E-03   -0.26433E-03   688   0.267E-03-0.384E-06
CGA:  11    -0.475672109415E+03   -0.96189E-04   -0.96168E-04   688   0.999E-04 0.396E-06
  41 F= -.48046967E+03 E0= -.48046625E+03  d E =-.451568E+00  mag=    -0.0506
       N       E                     dE             d eps       ncg     rms          ort
SDA:   1    -0.453182454944E+03    0.22490E+02    0.00000E+00   688   0.543E+02 0.000E+00
CGA:   2    -0.470798401921E+03   -0.17616E+02   -0.17612E+02   688   0.182E+02 0.210E+00
CGA:   3    -0.474956558180E+03   -0.41582E+01   -0.41668E+01   688   0.350E+01 0.258E-01
CGA:   4    -0.475769224931E+03   -0.81267E+00   -0.81285E+00   688   0.794E+00 0.138E-02
CGA:   5    -0.475959163645E+03   -0.18994E+00   -0.18988E+00   688   0.237E+00-0.115E-03
CGA:   6    -0.476026115755E+03   -0.66952E-01   -0.66954E-01   688   0.877E-01 0.382E-04
CGA:   7    -0.476055814589E+03   -0.29699E-01   -0.29698E-01   688   0.402E-01 0.181E-04
CGA:   8    -0.476068384785E+03   -0.12570E-01   -0.12570E-01   688   0.150E-01 0.230E-04
CGA:   9    -0.476072792179E+03   -0.44074E-02   -0.44074E-02   688   0.437E-02 0.591E-05
CGA:  10    -0.476074133462E+03   -0.13413E-02   -0.13413E-02   688   0.129E-02-0.731E-06
CGA:  11    -0.476074603379E+03   -0.46992E-03   -0.46996E-03   688   0.480E-03-0.671E-06
CGA:  12    -0.476074797905E+03   -0.19453E-03   -0.19464E-03   688   0.207E-03-0.112E-05
CGA:  13    -0.476074876827E+03   -0.78922E-04   -0.78991E-04   688   0.757E-04-0.943E-06
  42 F= -.48086901E+03 E0= -.48086731E+03  d E =-.399343E+00  mag=    -0.0213
       N       E                     dE             d eps       ncg     rms          ort
SDA:   1    -0.469608588310E+03    0.64662E+01    0.00000E+00   688   0.154E+02 0.000E+00
CGA:   2    -0.474637415107E+03   -0.50288E+01   -0.50284E+01   688   0.512E+01 0.257E-01
CGA:   3    -0.475816320370E+03   -0.11789E+01   -0.11797E+01   688   0.992E+00 0.228E-02
CGA:   4    -0.476044428428E+03   -0.22811E+00   -0.22812E+00   688   0.219E+00 0.133E-03
CGA:   5    -0.476097326467E+03   -0.52898E-01   -0.52893E-01   688   0.650E-01 0.107E-04
CGA:   6    -0.476115824552E+03   -0.18498E-01   -0.18498E-01   688   0.239E-01-0.971E-05
CGA:   7    -0.476124057152E+03   -0.82326E-02   -0.82324E-02   688   0.109E-01 0.392E-05
CGA:   8    -0.476127481740E+03   -0.34246E-02   -0.34245E-02   688   0.407E-02 0.759E-05
CGA:   9    -0.476128664746E+03   -0.11830E-02   -0.11830E-02   688   0.120E-02 0.138E-05
CGA:  10    -0.476129029028E+03   -0.36428E-03   -0.36428E-03   688   0.357E-03-0.101E-05
CGA:  11    -0.476129159388E+03   -0.13036E-03   -0.13038E-03   688   0.133E-03-0.343E-06
CGA:  12    -0.476129213742E+03   -0.54353E-04   -0.54375E-04   688   0.574E-04-0.222E-06
  43 F= -.48092189E+03 E0= -.48092077E+03  d E =-.452219E+00  mag=    -0.0128
       N       E                     dE             d eps       ncg     rms          ort
SDA:   1    -0.448818596355E+03    0.27311E+02    0.00000E+00   688   0.658E+02 0.000E+00
CGA:   2    -0.470162914261E+03   -0.21344E+02   -0.21342E+02   688   0.219E+02 0.159E+00
CGA:   3    -0.475138233665E+03   -0.49753E+01   -0.49883E+01   688   0.438E+01 0.332E-01
CGA:   4    -0.476125959371E+03   -0.98773E+00   -0.98858E+00   688   0.103E+01 0.281E-02
CGA:   5    -0.476364427979E+03   -0.23847E+00   -0.23832E+00   688   0.300E+00-0.201E-03
CGA:   6    -0.476448622640E+03   -0.84195E-01   -0.84201E-01   688   0.109E+00 0.114E-03
CGA:   7    -0.476484921838E+03   -0.36299E-01   -0.36298E-01   688   0.508E-01 0.333E-04
CGA:   8    -0.476500735023E+03   -0.15813E-01   -0.15813E-01   688   0.186E-01 0.286E-04
CGA:   9    -0.476506320833E+03   -0.55858E-02   -0.55859E-02   688   0.537E-02 0.884E-05
CGA:  10    -0.476507971162E+03   -0.16503E-02   -0.16503E-02   688   0.157E-02 0.189E-05
CGA:  11    -0.476508519950E+03   -0.54879E-03   -0.54874E-03   688   0.584E-03 0.108E-05
CGA:  12    -0.476508741823E+03   -0.22187E-03   -0.22197E-03   688   0.258E-03-0.135E-05
CGA:  13    -0.476508837146E+03   -0.95323E-04   -0.95382E-04   688   0.977E-04-0.979E-06
  44 F= -.48129772E+03 E0= -.48129714E+03  d E =-.375836E+00  mag=    -0.0061
       N       E                     dE             d eps       ncg     rms          ort
SDA:   1    -0.475438989482E+03    0.10698E+01    0.00000E+00   688   0.255E+01 0.000E+00
CGA:   2    -0.476275949357E+03   -0.83696E+00   -0.83694E+00   688   0.835E+00 0.799E-03
CGA:   3    -0.476467778832E+03   -0.19183E+00   -0.19185E+00   688   0.168E+00 0.809E-04
CGA:   4    -0.476505444535E+03   -0.37666E-01   -0.37668E-01   688   0.373E-01 0.196E-06
CGA:   5    -0.476514276701E+03   -0.88322E-02   -0.88322E-02   688   0.109E-01 0.677E-05
CGA:   6    -0.476517345984E+03   -0.30693E-02   -0.30691E-02   688   0.403E-02-0.650E-05
CGA:   7    -0.476518685829E+03   -0.13398E-02   -0.13398E-02   688   0.192E-02-0.497E-07
CGA:   8    -0.476519261708E+03   -0.57588E-03   -0.57589E-03   688   0.737E-03 0.249E-05
CGA:   9    -0.476519474574E+03   -0.21287E-03   -0.21287E-03   688   0.212E-03 0.140E-06
CGA:  10    -0.476519539697E+03   -0.65123E-04   -0.65124E-04   688   0.616E-04-0.244E-06
  45 F= -.48130774E+03 E0= -.48130722E+03  d E =-.385847E+00  mag=    -0.0053
       N       E                     dE             d eps       ncg     rms          ort
SDA:   1    -0.447183552293E+03    0.29336E+02    0.00000E+00   688   0.707E+02 0.000E+00
CGA:   2    -0.470091503282E+03   -0.22908E+02   -0.22906E+02   688   0.235E+02 0.353E-01
CGA:   3    -0.475395786743E+03   -0.53043E+01   -0.53173E+01   688   0.475E+01 0.411E-01
CGA:   4    -0.476436270553E+03   -0.10405E+01   -0.10417E+01   688   0.117E+01 0.358E-02
CGA:   5    -0.476698528982E+03   -0.26226E+00   -0.26196E+00   688   0.329E+00-0.535E-03
CGA:   6    -0.476791124075E+03   -0.92595E-01   -0.92600E-01   688   0.118E+00 0.168E-03
CGA:   7    -0.476830371129E+03   -0.39247E-01   -0.39246E-01   688   0.564E-01 0.283E-04
CGA:   8    -0.476847783565E+03   -0.17412E-01   -0.17412E-01   688   0.211E-01 0.219E-04
CGA:   9    -0.476854106475E+03   -0.63229E-02   -0.63229E-02   688   0.611E-02 0.926E-05
CGA:  10    -0.476855982112E+03   -0.18756E-02   -0.18756E-02   688   0.176E-02 0.159E-05
CGA:  11    -0.476856588739E+03   -0.60663E-03   -0.60660E-03   688   0.666E-03 0.645E-06
CGA:  12    -0.476856834550E+03   -0.24581E-03   -0.24597E-03   688   0.288E-03-0.231E-05
CGA:  13    -0.476856941892E+03   -0.10734E-03   -0.10742E-03   688   0.110E-03-0.108E-05
CGA:  14    -0.476856981745E+03   -0.39854E-04   -0.39864E-04   688   0.361E-04-0.177E-06
  46 F= -.48163956E+03 E0= -.48163922E+03  d E =-.331829E+00  mag=    -0.0033
       N       E                     dE             d eps       ncg     rms          ort
SDA:   1    -0.476335791339E+03    0.52115E+00    0.00000E+00   688   0.125E+01 0.000E+00
CGA:   2    -0.476744700132E+03   -0.40891E+00   -0.40891E+00   688   0.402E+00-0.235E-04
CGA:   3    -0.476837531503E+03   -0.92831E-01   -0.92838E-01   688   0.797E-01 0.293E-04
CGA:   4    -0.476855496227E+03   -0.17965E-01   -0.17965E-01   688   0.173E-01 0.113E-05
CGA:   5    -0.476859661069E+03   -0.41648E-02   -0.41652E-02   688   0.507E-02 0.786E-05
CGA:   6    -0.476861088014E+03   -0.14269E-02   -0.14269E-02   688   0.193E-02-0.306E-05
CGA:   7    -0.476861720420E+03   -0.63241E-03   -0.63239E-03   688   0.932E-03 0.654E-06
CGA:   8    -0.476861999755E+03   -0.27934E-03   -0.27934E-03   688   0.346E-03 0.948E-06
CGA:   9    -0.476862103273E+03   -0.10352E-03   -0.10352E-03   688   0.974E-04-0.732E-07
CGA:  10    -0.476862133644E+03   -0.30371E-04   -0.30373E-04   688   0.290E-04-0.120E-06
  47 F= -.48164393E+03 E0= -.48164360E+03  d E =-.336195E+00  mag=    -0.0032
       N       E                     dE             d eps       ncg     rms          ort
SDA:   1    -0.450201847429E+03    0.26660E+02    0.00000E+00   688   0.640E+02 0.000E+00
CGA:   2    -0.471075760142E+03   -0.20874E+02   -0.20870E+02   688   0.216E+02 0.728E-01
CGA:   3    -0.475865377334E+03   -0.47896E+01   -0.47947E+01   688   0.454E+01 0.179E-01
CGA:   4    -0.476812273823E+03   -0.94690E+00   -0.94944E+00   688   0.115E+01 0.330E-02
CGA:   5    -0.477067727026E+03   -0.25545E+00   -0.25511E+00   688   0.297E+00-0.630E-03
CGA:   6    -0.477153229719E+03   -0.85503E-01   -0.85504E-01   688   0.109E+00 0.941E-04
CGA:   7    -0.477188191763E+03   -0.34962E-01   -0.34960E-01   688   0.531E-01 0.414E-04
CGA:   8    -0.477204615251E+03   -0.16423E-01   -0.16423E-01   688   0.199E-01 0.203E-04
CGA:   9    -0.477210757119E+03   -0.61419E-02   -0.61417E-02   688   0.587E-02 0.805E-05
CGA:  10    -0.477212571444E+03   -0.18143E-02   -0.18143E-02   688   0.174E-02 0.108E-06
CGA:  11    -0.477213155221E+03   -0.58378E-03   -0.58367E-03   688   0.677E-03 0.312E-05
CGA:  12    -0.477213396239E+03   -0.24102E-03   -0.24114E-03   688   0.300E-03-0.208E-05
CGA:  13    -0.477213503881E+03   -0.10764E-03   -0.10775E-03   688   0.120E-03-0.183E-05
CGA:  14    -0.477213546184E+03   -0.42303E-04   -0.42306E-04   688   0.402E-04-0.589E-07
  48 F= -.48198883E+03 E0= -.48198854E+03  d E =-.344901E+00  mag=    -0.0028
       N       E                     dE             d eps       ncg     rms          ort
SDA:   1    -0.474649362073E+03    0.25641E+01    0.00000E+00   688   0.610E+01 0.000E+00
CGA:   2    -0.476663201784E+03   -0.20138E+01   -0.20138E+01   688   0.199E+01 0.146E-02
CGA:   3    -0.477115319161E+03   -0.45212E+00   -0.45205E+00   688   0.393E+00 0.207E-04
CGA:   4    -0.477202829663E+03   -0.87511E-01   -0.87522E-01   688   0.895E-01 0.167E-04
CGA:   5    -0.477223529534E+03   -0.20700E-01   -0.20698E-01   688   0.257E-01 0.140E-04
CGA:   6    -0.477230660895E+03   -0.71314E-02   -0.71313E-02   688   0.980E-02-0.843E-05
CGA:   7    -0.477233775440E+03   -0.31145E-02   -0.31145E-02   688   0.477E-02 0.358E-05
CGA:   8    -0.477235226237E+03   -0.14508E-02   -0.14508E-02   688   0.179E-02 0.467E-05
CGA:   9    -0.477235770183E+03   -0.54395E-03   -0.54395E-03   688   0.526E-03-0.613E-06
CGA:  10    -0.477235932219E+03   -0.16204E-03   -0.16203E-03   688   0.155E-03 0.696E-06
CGA:  11    -0.477235986050E+03   -0.53831E-04   -0.53831E-04   688   0.593E-04 0.477E-08
  49 F= -.48200916E+03 E0= -.48200886E+03  d E =-.365224E+00  mag=    -0.0027
       N       E                     dE             d eps       ncg     rms          ort
SDA:   1    -0.449563021511E+03    0.27673E+02    0.00000E+00   688   0.663E+02 0.000E+00
CGA:   2    -0.471209843488E+03   -0.21647E+02   -0.21642E+02   688   0.229E+02 0.975E-01
CGA:   3    -0.476123761355E+03   -0.49139E+01   -0.49075E+01   688   0.506E+01 0.476E-02
CGA:   4    -0.477129545859E+03   -0.10058E+01   -0.10104E+01   688   0.122E+01 0.162E-02
CGA:   5    -0.477405266020E+03   -0.27572E+00   -0.27537E+00   688   0.306E+00-0.820E-03
CGA:   6    -0.477491492656E+03   -0.86227E-01   -0.86231E-01   688   0.112E+00 0.170E-03
CGA:   7    -0.477525802824E+03   -0.34310E-01   -0.34308E-01   688   0.547E-01 0.114E-03
CGA:   8    -0.477542879771E+03   -0.17077E-01   -0.17077E-01   688   0.201E-01 0.242E-04
CGA:   9    -0.477549396573E+03   -0.65168E-02   -0.65165E-02   688   0.595E-02 0.106E-04
[...]
CGA:   8    -0.484206650117E+03   -0.37103E-03   -0.37103E-03   688   0.439E-03-0.219E-05
CGA:   9    -0.484206780085E+03   -0.12997E-03   -0.12997E-03   688   0.121E-03 0.111E-06
CGA:  10    -0.484206817977E+03   -0.37892E-04   -0.37887E-04   688   0.370E-04 0.195E-06
 283 F= -.48888671E+03 E0= -.48888667E+03  d E =-.850001E-02  mag=     0.0000
       N       E                     dE             d eps       ncg     rms          ort
SDA:   1    -0.483589711170E+03    0.61707E+00    0.00000E+00   688   0.146E+01 0.000E+00
CGA:   2    -0.484078108494E+03   -0.48840E+00   -0.48841E+00   688   0.438E+00-0.210E-03
CGA:   3    -0.484181743962E+03   -0.10364E+00   -0.10364E+00   688   0.917E-01 0.424E-04
CGA:   4    -0.484202616878E+03   -0.20873E-01   -0.20873E-01   688   0.194E-01-0.428E-05
CGA:   5    -0.484207492909E+03   -0.48760E-02   -0.48762E-02   688   0.591E-02 0.539E-05
CGA:   6    -0.484209203717E+03   -0.17108E-02   -0.17108E-02   688   0.236E-02-0.384E-05
CGA:   7    -0.484209967865E+03   -0.76415E-03   -0.76404E-03   688   0.112E-02 0.305E-05
CGA:   8    -0.484210294049E+03   -0.32618E-03   -0.32619E-03   688   0.388E-03-0.234E-05
CGA:   9    -0.484210408009E+03   -0.11396E-03   -0.11396E-03   688   0.107E-03 0.352E-06
CGA:  10    -0.484210441560E+03   -0.33551E-04   -0.33550E-04   688   0.329E-04 0.349E-07
 284 F= -.48888929E+03 E0= -.48888924E+03  d E =-.110755E-01  mag=     0.0000
       N       E                     dE             d eps       ncg     rms          ort
SDA:   1    -0.483486368451E+03    0.72404E+00    0.00000E+00   688   0.174E+01 0.000E+00
CGA:   2    -0.484061073644E+03   -0.57471E+00   -0.57472E+00   688   0.518E+00-0.179E-03
CGA:   3    -0.484184526617E+03   -0.12345E+00   -0.12346E+00   688   0.109E+00 0.483E-04
CGA:   4    -0.484209200850E+03   -0.24674E-01   -0.24674E-01   688   0.230E-01-0.100E-05
CGA:   5    -0.484214933988E+03   -0.57331E-02   -0.57334E-02   688   0.698E-02 0.653E-05
CGA:   6    -0.484216926197E+03   -0.19922E-02   -0.19922E-02   688   0.279E-02-0.351E-05
CGA:   7    -0.484217808304E+03   -0.88211E-03   -0.88199E-03   688   0.133E-02 0.431E-05
CGA:   8    -0.484218198048E+03   -0.38974E-03   -0.38975E-03   688   0.463E-03-0.209E-05
CGA:   9    -0.484218335969E+03   -0.13792E-03   -0.13792E-03   688   0.127E-03 0.346E-06
CGA:  10    -0.484218375984E+03   -0.40015E-04   -0.40006E-04   688   0.393E-04 0.396E-06
 285 F= -.48889685E+03 E0= -.48889681E+03  d E =-.755638E-02  mag=    -0.0000
       N       E                     dE             d eps       ncg     rms          ort
SDA:   1    -0.483839769608E+03    0.37857E+00    0.00000E+00   688   0.904E+00 0.000E+00
CGA:   2    -0.484138510624E+03   -0.29874E+00   -0.29875E+00   688   0.269E+00-0.678E-04
CGA:   3    -0.484202639587E+03   -0.64129E-01   -0.64131E-01   688   0.564E-01 0.147E-04
CGA:   4    -0.484215445518E+03   -0.12806E-01   -0.12806E-01   688   0.119E-01-0.592E-06
CGA:   5    -0.484218426523E+03   -0.29810E-02   -0.29811E-02   688   0.354E-02 0.296E-05
CGA:   6    -0.484219464367E+03   -0.10378E-02   -0.10379E-02   688   0.139E-02-0.143E-05
CGA:   7    -0.484219921940E+03   -0.45757E-03   -0.45749E-03   688   0.664E-03 0.205E-05
CGA:   8    -0.484220113436E+03   -0.19150E-03   -0.19149E-03   688   0.243E-03-0.124E-05
CGA:   9    -0.484220182723E+03   -0.69287E-04   -0.69288E-04   688   0.671E-04 0.229E-06
 286 F= -.48889838E+03 E0= -.48889834E+03  d E =-.908658E-02  mag=     0.0000
       N       E                     dE             d eps       ncg     rms          ort
SDA:   1    -0.483516032622E+03    0.70408E+00    0.00000E+00   688   0.169E+01 0.000E+00
CGA:   2    -0.484070639219E+03   -0.55461E+00   -0.55461E+00   688   0.508E+00 0.144E-04
CGA:   3    -0.484191190075E+03   -0.12055E+00   -0.12055E+00   688   0.110E+00 0.991E-05
CGA:   4    -0.484215603028E+03   -0.24413E-01   -0.24414E-01   688   0.235E-01-0.737E-05
CGA:   5    -0.484221290627E+03   -0.56876E-02   -0.56878E-02   688   0.732E-02 0.754E-05
CGA:   6    -0.484223293966E+03   -0.20033E-02   -0.20033E-02   688   0.292E-02-0.623E-05
CGA:   7    -0.484224202084E+03   -0.90812E-03   -0.90798E-03   688   0.135E-02 0.542E-05
CGA:   8    -0.484224620321E+03   -0.41824E-03   -0.41825E-03   688   0.455E-03-0.586E-06
CGA:   9    -0.484224762551E+03   -0.14223E-03   -0.14224E-03   688   0.130E-03-0.293E-06
CGA:  10    -0.484224802810E+03   -0.40259E-04   -0.40238E-04   688   0.401E-04 0.931E-06
 287 F= -.48890269E+03 E0= -.48890266E+03  d E =-.431675E-02  mag=     0.0000
       N       E                     dE             d eps       ncg     rms          ort
SDA:   1    -0.484213035221E+03    0.11727E-01    0.00000E+00   688   0.283E-01 0.000E+00
CGA:   2    -0.484222298519E+03   -0.92633E-02   -0.92632E-02   688   0.856E-02 0.217E-05
CGA:   3    -0.484224325019E+03   -0.20265E-02   -0.20264E-02   688   0.188E-02-0.280E-05
CGA:   4    -0.484224739668E+03   -0.41465E-03   -0.41480E-03   688   0.404E-03 0.219E-05
CGA:   5    -0.484224835879E+03   -0.96211E-04   -0.96173E-04   688   0.137E-03-0.781E-06
 288 F= -.48890277E+03 E0= -.48890273E+03  d E =-.438926E-02  mag=     0.0000
       N       E                     dE             d eps       ncg     rms          ort
SDA:   1    -0.483886388400E+03    0.33835E+00    0.00000E+00   688   0.822E+00 0.000E+00
CGA:   2    -0.484155465429E+03   -0.26908E+00   -0.26908E+00   688   0.244E+00-0.525E-04
CGA:   3    -0.484214454435E+03   -0.58989E-01   -0.58989E-01   688   0.523E-01 0.939E-05
CGA:   4    -0.484225873536E+03   -0.11419E-01   -0.11419E-01   688   0.116E-01-0.704E-06
CGA:   5    -0.484228574995E+03   -0.27015E-02   -0.27017E-02   688   0.375E-02 0.799E-05
CGA:   6    -0.484229542785E+03   -0.96779E-03   -0.96774E-03   688   0.148E-02-0.312E-05
CGA:   7    -0.484229989894E+03   -0.44711E-03   -0.44706E-03   688   0.666E-03 0.184E-05
CGA:   8    -0.484230198385E+03   -0.20849E-03   -0.20846E-03   688   0.229E-03 0.875E-06
CGA:   9    -0.484230269359E+03   -0.70974E-04   -0.70999E-04   688   0.678E-04-0.849E-06
 289 F= -.48890799E+03 E0= -.48890795E+03  d E =-.522588E-02  mag=     0.0000
       N       E                     dE             d eps       ncg     rms          ort
SDA:   1    -0.483858877889E+03    0.37132E+00    0.00000E+00   688   0.892E+00 0.000E+00
CGA:   2    -0.484151009543E+03   -0.29213E+00   -0.29214E+00   688   0.265E+00-0.632E-04
CGA:   3    -0.484214933529E+03   -0.63924E-01   -0.63924E-01   688   0.571E-01 0.105E-04
CGA:   4    -0.484227585064E+03   -0.12652E-01   -0.12652E-01   688   0.124E-01-0.942E-06
CGA:   5    -0.484230570923E+03   -0.29859E-02   -0.29862E-02   688   0.407E-02 0.911E-05
CGA:   6    -0.484231659214E+03   -0.10883E-02   -0.10883E-02   688   0.165E-02-0.439E-05
CGA:   7    -0.484232170457E+03   -0.51124E-03   -0.51114E-03   688   0.745E-03 0.323E-05
CGA:   8    -0.484232403527E+03   -0.23307E-03   -0.23308E-03   688   0.250E-03-0.143E-06
CGA:   9    -0.484232480990E+03   -0.77463E-04   -0.77475E-04   688   0.722E-04-0.407E-06
 290 F= -.48890998E+03 E0= -.48890994E+03  d E =-.721557E-02  mag=     0.0000
       N       E                     dE             d eps       ncg     rms          ort
SDA:   1    -0.483970316576E+03    0.26209E+00    0.00000E+00   688   0.638E+00 0.000E+00
CGA:   2    -0.484178870306E+03   -0.20855E+00   -0.20856E+00   688   0.193E+00-0.421E-04
CGA:   3    -0.484225268266E+03   -0.46398E-01   -0.46398E-01   688   0.411E-01 0.113E-04
CGA:   4    -0.484234390386E+03   -0.91221E-02   -0.91220E-02   688   0.918E-02-0.560E-05
CGA:   5    -0.484236562591E+03   -0.21722E-02   -0.21725E-02   688   0.307E-02 0.788E-05
CGA:   6    -0.484237375544E+03   -0.81295E-03   -0.81290E-03   688   0.122E-02-0.427E-05
CGA:   7    -0.484237754383E+03   -0.37884E-03   -0.37877E-03   688   0.548E-03 0.204E-05
CGA:   8    -0.484237924539E+03   -0.17016E-03   -0.17015E-03   688   0.189E-03 0.226E-06
CGA:   9    -0.484237982019E+03   -0.57480E-04   -0.57493E-04   688   0.560E-04-0.586E-06
 291 F= -.48891521E+03 E0= -.48891517E+03  d E =-.522971E-02  mag=     0.0000
       N       E                     dE             d eps       ncg     rms          ort
SDA:   1    -0.483515369475E+03    0.72256E+00    0.00000E+00   688   0.173E+01 0.000E+00
CGA:   2    -0.484081135645E+03   -0.56577E+00   -0.56578E+00   688   0.524E+00-0.229E-03
CGA:   3    -0.484207011083E+03   -0.12588E+00   -0.12588E+00   688   0.113E+00 0.374E-04
CGA:   4    -0.484231801062E+03   -0.24790E-01   -0.24791E-01   688   0.257E-01-0.569E-05
CGA:   5    -0.484237775893E+03   -0.59748E-02   -0.59751E-02   688   0.854E-02 0.136E-04
CGA:   6    -0.484240027610E+03   -0.22517E-02   -0.22517E-02   688   0.329E-02-0.658E-05
CGA:   7    -0.484241069701E+03   -0.10421E-02   -0.10419E-02   688   0.147E-02 0.363E-05
CGA:   8    -0.484241532041E+03   -0.46234E-03   -0.46231E-03   688   0.501E-03 0.682E-06
CGA:   9    -0.484241685148E+03   -0.15311E-03   -0.15313E-03   688   0.147E-03-0.837E-06
CGA:  10    -0.484241729851E+03   -0.44703E-04   -0.44685E-04   688   0.457E-04 0.773E-06
 292 F= -.48891851E+03 E0= -.48891847E+03  d E =-.852370E-02  mag=     0.0000
       N       E                     dE             d eps       ncg     rms          ort
SDA:   1    -0.483902036356E+03    0.33965E+00    0.00000E+00   688   0.827E+00 0.000E+00
CGA:   2    -0.484170312237E+03   -0.26828E+00   -0.26828E+00   688   0.249E+00-0.930E-04
CGA:   3    -0.484230333529E+03   -0.60021E-01   -0.60022E-01   688   0.526E-01 0.161E-04
CGA:   4    -0.484241923735E+03   -0.11590E-01   -0.11590E-01   688   0.118E-01-0.634E-05
CGA:   5    -0.484244728294E+03   -0.28046E-02   -0.28049E-02   688   0.374E-02 0.829E-05
CGA:   6    -0.484245732863E+03   -0.10046E-02   -0.10045E-02   688   0.150E-02-0.506E-05
CGA:   7    -0.484246198749E+03   -0.46589E-03   -0.46580E-03   688   0.691E-03 0.290E-05
CGA:   8    -0.484246411052E+03   -0.21230E-03   -0.21231E-03   688   0.241E-03-0.380E-06
CGA:   9    -0.484246483488E+03   -0.72435E-04   -0.72441E-04   688   0.714E-04-0.281E-06
 293 F= -.48892318E+03 E0= -.48892314E+03  d E =-.467599E-02  mag=     0.0000
       N       E                     dE             d eps       ncg     rms          ort
SDA:   1    -0.483746994129E+03    0.49942E+00    0.00000E+00   688   0.120E+01 0.000E+00
CGA:   2    -0.484137489519E+03   -0.39050E+00   -0.39051E+00   688   0.363E+00-0.169E-03
CGA:   3    -0.484224904680E+03   -0.87415E-01   -0.87416E-01   688   0.776E-01 0.255E-04
CGA:   4    -0.484241830898E+03   -0.16926E-01   -0.16927E-01   688   0.180E-01-0.842E-05
CGA:   5    -0.484245930351E+03   -0.40995E-02   -0.40997E-02   688   0.585E-02 0.115E-04
CGA:   6    -0.484247462147E+03   -0.15318E-02   -0.15317E-02   688   0.224E-02-0.605E-05
CGA:   7    -0.484248176689E+03   -0.71454E-03   -0.71443E-03   688   0.101E-02 0.263E-05
CGA:   8    -0.484248494961E+03   -0.31827E-03   -0.31825E-03   688   0.353E-03 0.701E-06
CGA:   9    -0.484248601147E+03   -0.10619E-03   -0.10620E-03   688   0.106E-03-0.836E-06
CGA:  10    -0.484248632928E+03   -0.31781E-04   -0.31769E-04   688   0.322E-04 0.714E-06
 294 F= -.48892523E+03 E0= -.48892518E+03  d E =-.672629E-02  mag=     0.0000
       N       E                     dE             d eps       ncg     rms          ort
SDA:   1    -0.483817551342E+03    0.43105E+00    0.00000E+00   688   0.106E+01 0.000E+00
CGA:   2    -0.484154249707E+03   -0.33670E+00   -0.33671E+00   688   0.327E+00-0.156E-03
CGA:   3    -0.484233123887E+03   -0.78874E-01   -0.78878E-01   688   0.669E-01 0.353E-04
CGA:   4    -0.484247954993E+03   -0.14831E-01   -0.14831E-01   688   0.154E-01-0.711E-05
CGA:   5    -0.484251528222E+03   -0.35732E-02   -0.35736E-02   688   0.491E-02 0.102E-04
CGA:   6    -0.484252833851E+03   -0.13056E-02   -0.13056E-02   688   0.191E-02-0.507E-05
CGA:   7    -0.484253437426E+03   -0.60357E-03   -0.60345E-03   688   0.870E-03 0.336E-05
CGA:   8    -0.484253714041E+03   -0.27661E-03   -0.27664E-03   688   0.307E-03-0.781E-06
CGA:   9    -0.484253808346E+03   -0.94306E-04   -0.94310E-04   688   0.908E-04-0.165E-06
 295 F= -.48893028E+03 E0= -.48893023E+03  d E =-.504836E-02  mag=    -0.0000
       N       E                     dE             d eps       ncg     rms          ort
SDA:   1    -0.483723082108E+03    0.53063E+00    0.00000E+00   688   0.129E+01 0.000E+00
CGA:   2    -0.484134160718E+03   -0.41108E+00   -0.41109E+00   688   0.400E+00-0.213E-03
CGA:   3    -0.484230473169E+03   -0.96312E-01   -0.96317E-01   688   0.823E-01 0.460E-04
CGA:   4    -0.484248601114E+03   -0.18128E-01   -0.18128E-01   688   0.194E-01-0.842E-05
CGA:   5    -0.484252973948E+03   -0.43728E-02   -0.43731E-02   688   0.630E-02 0.122E-04
CGA:   6    -0.484254630195E+03   -0.16562E-02   -0.16562E-02   688   0.238E-02-0.545E-05
CGA:   7    -0.484255396574E+03   -0.76638E-03   -0.76625E-03   688   0.107E-02 0.288E-05
CGA:   8    -0.484255740968E+03   -0.34439E-03   -0.34439E-03   688   0.387E-03 0.104E-06
CGA:   9    -0.484255857528E+03   -0.11656E-03   -0.11657E-03   688   0.118E-03-0.709E-06
CGA:  10    -0.484255892893E+03   -0.35365E-04   -0.35352E-04   688   0.361E-04 0.758E-06
 296 F= -.48893222E+03 E0= -.48893218E+03  d E =-.698758E-02  mag=    -0.0000
       N       E                     dE             d eps       ncg     rms          ort
SDA:   1    -0.483994672666E+03    0.26118E+00    0.00000E+00   688   0.642E+00 0.000E+00
CGA:   2    -0.484198415896E+03   -0.20374E+00   -0.20375E+00   688   0.201E+00-0.632E-04
CGA:   3    -0.484246634086E+03   -0.48218E-01   -0.48220E-01   688   0.409E-01 0.201E-04
CGA:   4    -0.484255774378E+03   -0.91403E-02   -0.91399E-02   688   0.909E-02-0.101E-04
CGA:   5    -0.484257937926E+03   -0.21635E-02   -0.21637E-02   688   0.281E-02 0.497E-05
CGA:   6    -0.484258701161E+03   -0.76323E-03   -0.76320E-03   688   0.111E-02-0.421E-05
CGA:   7    -0.484259047230E+03   -0.34607E-03   -0.34599E-03   688   0.523E-03 0.272E-05
CGA:   8    -0.484259208540E+03   -0.16131E-03   -0.16133E-03   688   0.190E-03-0.742E-06
CGA:   9    -0.484259265632E+03   -0.57092E-04   -0.57094E-04   688   0.570E-04-0.116E-06
 297 F= -.48893551E+03 E0= -.48893547E+03  d E =-.328830E-02  mag=    -0.0000
       N       E                     dE             d eps       ncg     rms          ort
SDA:   1    -0.484185333964E+03    0.73875E-01    0.00000E+00   688   0.181E+00 0.000E+00
CGA:   2    -0.484242651541E+03   -0.57318E-01   -0.57318E-01   688   0.565E-01-0.137E-04
CGA:   3    -0.484256221015E+03   -0.13569E-01   -0.13570E-01   688   0.114E-01 0.728E-05
CGA:   4    -0.484258790484E+03   -0.25695E-02   -0.25691E-02   688   0.256E-02-0.620E-05
CGA:   5    -0.484259385422E+03   -0.59494E-03   -0.59505E-03   688   0.844E-03 0.260E-05
CGA:   6    -0.484259604646E+03   -0.21922E-03   -0.21918E-03   688   0.337E-03-0.217E-05
CGA:   7    -0.484259707424E+03   -0.10278E-03   -0.10276E-03   688   0.157E-03 0.745E-06
CGA:   8    -0.484259756208E+03   -0.48784E-04   -0.48777E-04   688   0.578E-04 0.224E-06
 298 F= -.48893595E+03 E0= -.48893592E+03  d E =-.373338E-02  mag=    -0.0000
       N       E                     dE             d eps       ncg     rms          ort
SDA:   1    -0.484139062842E+03    0.12064E+00    0.00000E+00   688   0.299E+00 0.000E+00
CGA:   2    -0.484234388280E+03   -0.95325E-01   -0.95327E-01   688   0.921E-01-0.210E-04
CGA:   3    -0.484256640901E+03   -0.22253E-01   -0.22253E-01   688   0.186E-01 0.591E-05
CGA:   4    -0.484260831821E+03   -0.41909E-02   -0.41908E-02   688   0.394E-02-0.115E-05
CGA:   5    -0.484261825071E+03   -0.99325E-03   -0.99329E-03   688   0.121E-02 0.148E-05
CGA:   6    -0.484262165432E+03   -0.34036E-03   -0.34036E-03   688   0.497E-03-0.366E-06
CGA:   7    -0.484262317693E+03   -0.15226E-03   -0.15225E-03   688   0.252E-03 0.465E-06
CGA:   8    -0.484262389163E+03   -0.71469E-04   -0.71470E-04   688   0.912E-04-0.239E-06
 299 F= -.48893865E+03 E0= -.48893862E+03  d E =-.269635E-02  mag=    -0.0000
       N       E                     dE             d eps       ncg     rms          ort
SDA:   1    -0.483735633561E+03    0.52668E+00    0.00000E+00   688   0.128E+01 0.000E+00
CGA:   2    -0.484144252468E+03   -0.40862E+00   -0.40863E+00   688   0.395E+00-0.219E-03
CGA:   3    -0.484239628729E+03   -0.95376E-01   -0.95382E-01   688   0.806E-01 0.602E-04
CGA:   4    -0.484257580286E+03   -0.17952E-01   -0.17951E-01   688   0.177E-01-0.677E-05
CGA:   5    -0.484261825672E+03   -0.42454E-02   -0.42457E-02   688   0.567E-02 0.985E-05
CGA:   6    -0.484263321572E+03   -0.14959E-02   -0.14959E-02   688   0.227E-02-0.505E-05
CGA:   7    -0.484264021650E+03   -0.70008E-03   -0.69994E-03   688   0.104E-02 0.401E-05
CGA:   8    -0.484264350097E+03   -0.32845E-03   -0.32848E-03   688   0.372E-03-0.990E-06
CGA:   9    -0.484264463014E+03   -0.11292E-03   -0.11292E-03   688   0.111E-03-0.426E-07
CGA:  10    -0.484264496124E+03   -0.33110E-04   -0.33095E-04   688   0.343E-04 0.797E-06
 300 F= -.48894088E+03 E0= -.48894085E+03  d E =-.492769E-02  mag=    -0.0000
       N       E                     dE             d eps       ncg     rms          ort
SDA:   1    -0.484035110396E+03    0.22935E+00    0.00000E+00   688   0.565E+00 0.000E+00
CGA:   2    -0.484214955300E+03   -0.17984E+00   -0.17985E+00   688   0.173E+00-0.350E-04
CGA:   3    -0.484257086290E+03   -0.42131E-01   -0.42132E-01   688   0.348E-01 0.153E-04
CGA:   4    -0.484264889806E+03   -0.78035E-02   -0.78033E-02   688   0.749E-02-0.448E-05
CGA:   5    -0.484266745343E+03   -0.18555E-02   -0.18556E-02   688   0.227E-02 0.318E-05
CGA:   6    -0.484267386431E+03   -0.64109E-03   -0.64109E-03   688   0.900E-03-0.157E-05
CGA:   7    -0.484267677095E+03   -0.29066E-03   -0.29059E-03   688   0.435E-03 0.181E-05
CGA:   8    -0.484267806689E+03   -0.12959E-03   -0.12961E-03   688   0.163E-03-0.985E-06
CGA:   9    -0.484267853773E+03   -0.47084E-04   -0.47082E-04   688   0.463E-04 0.330E-06
 301 F= -.48894416E+03 E0= -.48894413E+03  d E =-.328044E-02  mag=    -0.0000
       N       E                     dE             d eps       ncg     rms          ort
SDA:   1    -0.483688543735E+03    0.57926E+00    0.00000E+00   688   0.141E+01 0.000E+00
CGA:   2    -0.484137764045E+03   -0.44922E+00   -0.44923E+00   688   0.433E+00-0.161E-03
CGA:   3    -0.484242978135E+03   -0.10521E+00   -0.10522E+00   688   0.877E-01 0.602E-04
CGA:   4    -0.484262496283E+03   -0.19518E-01   -0.19518E-01   688   0.193E-01-0.958E-05
CGA:   5    -0.484267112410E+03   -0.46161E-02   -0.46164E-02   688   0.621E-02 0.940E-05
CGA:   6    -0.484268752259E+03   -0.16398E-02   -0.16398E-02   688   0.245E-02-0.480E-05
CGA:   7    -0.484269520283E+03   -0.76802E-03   -0.76788E-03   688   0.113E-02 0.407E-05
CGA:   8    -0.484269876765E+03   -0.35648E-03   -0.35652E-03   688   0.402E-03-0.991E-06
CGA:   9    -0.484269998569E+03   -0.12180E-03   -0.12180E-03   688   0.117E-03 0.440E-07
CGA:  10    -0.484270034123E+03   -0.35554E-04   -0.35537E-04   688   0.364E-04 0.794E-06
 302 F= -.48894622E+03 E0= -.48894619E+03  d E =-.533887E-02  mag=    -0.0000
       N       E                     dE             d eps       ncg     rms          ort
SDA:   1    -0.484123662936E+03    0.14634E+00    0.00000E+00   688   0.364E+00 0.000E+00
CGA:   2    -0.484238712188E+03   -0.11505E+00   -0.11505E+00   688   0.110E+00-0.143E-04
CGA:   3    -0.484265794811E+03   -0.27083E-01   -0.27083E-01   688   0.226E-01 0.778E-05
CGA:   4    -0.484270840575E+03   -0.50458E-02   -0.50457E-02   688   0.487E-02-0.152E-05
CGA:   5    -0.484272046966E+03   -0.12064E-02   -0.12064E-02   688   0.144E-02 0.147E-05
CGA:   6    -0.484272461773E+03   -0.41481E-03   -0.41481E-03   688   0.571E-03 0.112E-06
CGA:   7    -0.484272647449E+03   -0.18568E-03   -0.18564E-03   688   0.282E-03 0.752E-06
CGA:   8    -0.484272729100E+03   -0.81650E-04   -0.81651E-04   688   0.106E-03-0.109E-06
 303 F= -.48894885E+03 E0= -.48894882E+03  d E =-.263194E-02  mag=    -0.0000
