       N       E                     dE             d eps       ncg     rms          rms(c)
DAV:   1     0.258673621715E+04    0.25867E+04   -0.10051E+05  3856   0.114E+03
DAV:   2     0.252575593786E+02   -0.25615E+04   -0.24495E+04  4696   0.294E+02
DAV:   3    -0.489904623869E+03   -0.51516E+03   -0.51075E+03  4040   0.148E+02
DAV:   4    -0.510395148816E+03   -0.20491E+02   -0.19941E+02  4192   0.409E+01
DAV:   5    -0.511273375391E+03   -0.87823E+00   -0.87022E+00  4968   0.688E+00    0.405E+01
DAV:   6    -0.485045062742E+03    0.26228E+02   -0.51540E+01  4264   0.254E+01    0.254E+01
DAV:   7    -0.480109853407E+03    0.49352E+01   -0.37722E+01  4152   0.177E+01    0.163E+01
DAV:   8    -0.478235600124E+03    0.18743E+01   -0.10371E+01  3976   0.122E+01    0.114E+01
DAV:   9    -0.478485477518E+03   -0.24988E+00   -0.13255E+01  4760   0.993E+00    0.645E+00
DAV:  10    -0.477731397834E+03    0.75408E+00   -0.61059E+00  4576   0.821E+00    0.317E+00
DAV:  11    -0.477688399617E+03    0.42998E-01   -0.20472E+00  4672   0.408E+00    0.226E+00
DAV:  12    -0.477606453889E+03    0.81946E-01   -0.13850E+00  4888   0.276E+00    0.140E+00
DAV:  13    -0.477564520412E+03    0.41933E-01   -0.18546E-01  3952   0.143E+00    0.607E-01
DAV:  14    -0.477563097867E+03    0.14225E-02   -0.48867E-02  3864   0.627E-01    0.301E-01
DAV:  15    -0.477563001945E+03    0.95923E-04   -0.11264E-02  4072   0.330E-01    0.247E-01
DAV:  16    -0.477562811328E+03    0.19062E-03   -0.93785E-03  4520   0.229E-01    0.165E-01
DAV:  17    -0.477563170591E+03   -0.35926E-03   -0.10640E-02  4200   0.190E-01    0.165E-01
DAV:  18    -0.477562714897E+03    0.45569E-03   -0.69546E-03  3120   0.151E-01    0.660E-02
DAV:  19    -0.477562751855E+03   -0.36958E-04   -0.27076E-04  2296   0.422E-02
   1 F= -.48162959E+03 E0= -.48162959E+03  d E =0.000000E+00  mag=    -0.0000
