 vasp.5.4.4.18Apr17-6-g9f103f2a35 (build Jan 14 2022 15:04:31) complex          
  
 executed on             LinuxIFC date 2023.04.05  11:31:16
 running on   48 total cores
 distrk:  each k-point on   48 cores,    1 groups
 distr:  one band on NCORES_PER_BAND=  12 cores,    4 groups


--------------------------------------------------------------------------------------------------------


 INCAR:
 POTCAR:    PAW_PBE C 08Apr2002                   
 POTCAR:    PAW_PBE N 08Apr2002                   
 POTCAR:    PAW_PBE Ge_d 03Jul2007                
 POTCAR:    PAW_PBE C 08Apr2002                   
   SHA256 =  253f7b50bb8d59471dbedb8285d89021f4a42ed1a2c5d38a03a736e69125dd95 C/
   COPYR  = (c) Copyright 08Apr2002 Georg Kresse                                
   COPYR  = This file is part of the software VASP. Any use, copying, and all ot
   COPYR  = If you do not have a valid VASP license, you may not use, copy or di
   VRHFIN =C: s2p2                                                              
   LEXCH  = PE                                                                  
   EATOM  =   147.1560 eV,   10.8157 Ry                                         
                                                                                
   TITEL  = PAW_PBE C 08Apr2002                                                 
   LULTRA =        F    use ultrasoft PP ?                                      
   IUNSCR =        1    unscreen: 0-lin 1-nonlin 2-no                           
   RPACOR =    1.200    partial core radius                                     
   POMASS =   12.011; ZVAL   =    4.000    mass and valenz                      
   RCORE  =    1.500    outmost cutoff radius                                   
   RWIGS  =    1.630; RWIGS  =    0.863    wigner-seitz radius (au A)           
   ENMAX  =  400.000; ENMIN  =  300.000 eV                                      
   ICORE  =        2    local potential                                         
   LCOR   =        T    correct aug charges                                     
   LPAW   =        T    paw PP                                                  
   EAUG   =  644.873                                                            
   DEXC   =    0.000                                                            
   RMAX   =    1.529    core radius for proj-oper                               
   RAUG   =    1.300    factor for augmentation sphere                          
   RDEP   =    1.501    radius for radial grids                                 
   RDEPT  =    1.300    core radius for aug-charge                              
                                                                                
   Atomic configuration                                                         
    4 entries                                                                   
     n  l   j            E        occ.                                          
     1  0  0.50      -273.3789   2.0000                                         
     2  0  0.50       -13.7508   2.0000                                         
     2  1  0.50        -5.2854   2.0000                                         
     3  2  1.50        -5.4423   0.0000                                         
   Description                                                                  
     l       E           TYP  RCUT    TYP  RCUT                                 
     0    -13.7508458     23  1.200                                             
     0     -8.2022199     23  1.200                                             
     1     -5.2854383     23  1.500                                             
     1     34.0145650     23  1.500                                             
     2     -5.4423304      7  1.500                                             
  local pseudopotential read in
  partial core-charges read in
  partial kinetic energy density read in
  atomic valenz-charges read in
  non local Contribution for L=           0  read in
    real space projection operators read in
  non local Contribution for L=           0  read in
    real space projection operators read in
  non local Contribution for L=           1  read in
    real space projection operators read in
  non local Contribution for L=           1  read in
    real space projection operators read in
    PAW grid and wavefunctions read in
 
   number of l-projection  operators is LMAX  =           4
   number of lm-projection operators is LMMAX =           8
 
 POTCAR:    PAW_PBE N 08Apr2002                   
   SHA256 =  e053789ff3a61a86a1b75d8a110fcc91f86041011e7b0817c7c99e4e8a6349d7 N/
   COPYR  = (c) Copyright 08Apr2002 Georg Kresse                                
   COPYR  = This file is part of the software VASP. Any use, copying, and all ot
   COPYR  = If you do not have a valid VASP license, you may not use, copy or di
   VRHFIN =N: s2p3                                                              
   LEXCH  = PE                                                                  
   EATOM  =   264.5486 eV,   19.4438 Ry                                         
                                                                                
   TITEL  = PAW_PBE N 08Apr2002                                                 
   LULTRA =        F    use ultrasoft PP ?                                      
   IUNSCR =        1    unscreen: 0-lin 1-nonlin 2-no                           
   RPACOR =    1.200    partial core radius                                     
   POMASS =   14.001; ZVAL   =    5.000    mass and valenz                      
   RCORE  =    1.500    outmost cutoff radius                                   
   RWIGS  =    1.400; RWIGS  =    0.741    wigner-seitz radius (au A)           
   ENMAX  =  400.000; ENMIN  =  300.000 eV                                      
   ICORE  =        2    local potential                                         
   LCOR   =        T    correct aug charges                                     
   LPAW   =        T    paw PP                                                  
   EAUG   =  627.112                                                            
   DEXC   =    0.000                                                            
   RMAX   =    1.529    core radius for proj-oper                               
   RAUG   =    1.300    factor for augmentation sphere                          
   RDEP   =    1.514    radius for radial grids                                 
   RDEPT  =    1.338    core radius for aug-charge                              
                                                                                
   Atomic configuration                                                         
    4 entries                                                                   
     n  l   j            E        occ.                                          
     1  0  0.50      -384.7179   2.0000                                         
     2  0  0.50       -18.5828   2.0000                                         
     2  1  0.50        -7.0898   3.0000                                         
     3  2  1.50        -6.8029   0.0000                                         
   Description                                                                  
     l       E           TYP  RCUT    TYP  RCUT                                 
     0    -18.5828119     23  1.200                                             
     0    -13.5018863     23  1.200                                             
     1     -7.0897853     23  1.500                                             
     1      9.5240782     23  1.500                                             
     2     -6.8029130      7  1.500                                             
  local pseudopotential read in
  partial core-charges read in
  partial kinetic energy density read in
  atomic valenz-charges read in
  non local Contribution for L=           0  read in
    real space projection operators read in
  non local Contribution for L=           0  read in
    real space projection operators read in
  non local Contribution for L=           1  read in
    real space projection operators read in
  non local Contribution for L=           1  read in
    real space projection operators read in
    PAW grid and wavefunctions read in
 
   number of l-projection  operators is LMAX  =           4
   number of lm-projection operators is LMMAX =           8
 
 POTCAR:    PAW_PBE Ge_d 03Jul2007                
   SHA256 =  944b26c40d2d7c4f4eb1ff3a2e8dbfdd7129146276cd341854bfd5c0e57780ed Ge
   COPYR  = (c) Copyright 03Jul2007 Georg Kresse                                
   COPYR  = This file is part of the software VASP. Any use, copying, and all ot
   COPYR  = If you do not have a valid VASP license, you may not use, copy or di
   VRHFIN =Ge: 3d4s4p                                                           
   LEXCH  = PE                                                                  
   EATOM  =  2596.2402 eV,  190.8183 Ry                                         
                                                                                
   TITEL  = PAW_PBE Ge_d 03Jul2007                                              
   LULTRA =        F    use ultrasoft PP ?                                      
   IUNSCR =        1    unscreen: 0-lin 1-nonlin 2-no                           
   RPACOR =    2.000    partial core radius                                     
   POMASS =   72.610; ZVAL   =   14.000    mass and valenz                      
   RCORE  =    2.300    outmost cutoff radius                                   
   RWIGS  =    2.300; RWIGS  =    1.217    wigner-seitz radius (au A)           
   ENMAX  =  310.294; ENMIN  =  232.720 eV                                      
   ICORE  =        3    local potential                                         
   LCOR   =        T    correct aug charges                                     
   LPAW   =        T    paw PP                                                  
   EAUG   =  531.356                                                            
   DEXC   =    0.000                                                            
   RMAX   =    2.342    core radius for proj-oper                               
   RAUG   =    1.300    factor for augmentation sphere                          
   RDEP   =    2.318    radius for radial grids                                 
   RDEPT  =    1.783    core radius for aug-charge                              
                                                                                
   Atomic configuration                                                         
    9 entries                                                                   
     n  l   j            E        occ.                                          
     1  0  0.50    -10959.8463   2.0000                                         
     2  0  0.50     -1371.6056   2.0000                                         
     2  1  1.50     -1198.4791   6.0000                                         
     3  0  0.50      -168.4733   2.0000                                         
     3  1  1.50      -115.6019   6.0000                                         
     3  2  2.50       -29.3106  10.0000                                         
     4  0  0.50       -11.7309   2.0000                                         
     4  1  0.50        -3.8952   2.0000                                         
     4  3  2.50        -4.0817   0.0000                                         
   Description                                                                  
     l       E           TYP  RCUT    TYP  RCUT                                 
     2    -29.3105938     23  2.200                                             
     2    -13.6058260     23  2.200                                             
     0    -11.7309493     23  2.300                                             
     0     -7.4578696     23  2.300                                             
     1     -3.8952261     23  2.300                                             
     1      6.1178114     23  2.300                                             
     3     -1.3605826     23  2.300                                             
  local pseudopotential read in
  partial core-charges read in
  partial kinetic energy density read in
  atomic valenz-charges read in
  non local Contribution for L=           2  read in
    real space projection operators read in
  non local Contribution for L=           2  read in
    real space projection operators read in
  non local Contribution for L=           0  read in
    real space projection operators read in
  non local Contribution for L=           0  read in
    real space projection operators read in
  non local Contribution for L=           1  read in
    real space projection operators read in
  non local Contribution for L=           1  read in
    real space projection operators read in
    PAW grid and wavefunctions read in
 
   number of l-projection  operators is LMAX  =           6
   number of lm-projection operators is LMMAX =          18
 

 ----------------------------------------------------------------------------- 
|                                                                             |
|  ADVICE TO THIS USER RUNNING 'VASP/VAMP'   (HEAR YOUR MASTER'S VOICE ...):  |
|                                                                             |
|      You have a (more or less) 'large supercell' and for larger cells       |
|      it might be more efficient to use real space projection opertators     |
|      So try LREAL= Auto  in the INCAR   file.                               |
|      Mind:          For very  accurate calculation you might also keep the  |
|      reciprocal projection scheme          (i.e. LREAL=.FALSE.)             |
|                                                                             |
 ----------------------------------------------------------------------------- 

  PAW_PBE C 08Apr2002                   :
 energy of atom  1       EATOM= -147.1560
 kinetic energy error for atom=    0.0132 (will be added to EATOM!!)
  PAW_PBE N 08Apr2002                   :
 energy of atom  2       EATOM= -264.5486
 kinetic energy error for atom=    0.0298 (will be added to EATOM!!)
  PAW_PBE Ge_d 03Jul2007                :
 energy of atom  3       EATOM=-2596.2402
 kinetic energy error for atom=    0.0090 (will be added to EATOM!!)
 
 
 POSCAR: POSCAR-c3n4                             
  positions in cartesian coordinates
  No initial velocities read in
 exchange correlation table for  LEXCH =        8
   RHO(1)=    0.500       N(1)  =     2000
   RHO(2)=  100.500       N(2)  =     4000

 VTST: version 3.2, (02/03/18)

 CHAIN: initializing optimizer
 
 OPT: Using VASP Dynamics algorithm
 CHAIN: Read ICHAIN            0
 
 POSCAR: POSCAR-c3n4                             
  positions in cartesian coordinates
  No initial velocities read in
 


--------------------------------------------------------------------------------------------------------


 ion  position               nearest neighbor table
   1  0.106  0.214  0.426-  26 1.34  46 1.34  25 1.41
   2  0.288  0.399  0.433-  29 1.32  35 1.39  25 1.43
   3  0.104  0.392  0.427-  44 1.32  39 1.38  25 1.43
   4  0.447  0.064  0.506-  30 1.32  27 1.34  48 1.41
   5  0.453  0.401  0.413-  28 1.33  29 1.34  56 1.43
   6  0.112  0.053  0.449-  26 1.32  31 1.33  32 1.40
   7  0.096  0.712  0.484-  54 1.33  34 1.36  33 1.40
   8  0.284  0.890  0.501-  27 1.34  37 1.35  33 1.42
   9  0.109  0.895  0.498-  31 1.33  52 1.34  33 1.43
  10  0.448  0.548  0.502-  38 1.32  56 1.35  35 1.36
  11  0.445  0.885  0.489-  37 1.34  36 1.34  48 1.38
  12  0.087  0.542  0.481-  34 1.32  40 1.35  39 1.36
  13  0.616  0.223  0.473-  42 1.35  30 1.35  41 1.40
  14  0.780  0.390  0.400-  45 1.35  51 1.36  41 1.40
  15  0.610  0.394  0.435-  28 1.34  55 1.34  41 1.45
  16  0.940  0.052  0.461-  46 1.32  43 1.33  32 1.40
  17  0.941  0.387  0.394-  45 1.32  44 1.34  40 1.42
  18  0.623  0.066  0.512-  42 1.33  47 1.34  48 1.41
  19  0.613  0.711  0.531-  50 1.33  38 1.37  49 1.41
  20  0.790  0.897  0.523-  43 1.33  53 1.34  49 1.45
  21  0.609  0.892  0.521-  47 1.34  36 1.35  49 1.44
  22  0.938  0.563  0.421-  51 1.31  54 1.35  40 1.42
  23  0.954  0.902  0.535-  52 1.34  53 1.34  32 1.40
  24  0.621  0.555  0.490-  55 1.32  50 1.33  56 1.41
  25  0.167  0.335  0.425-   1 1.41   3 1.43   2 1.43
  26  0.165  0.161  0.421-   6 1.32   1 1.34
  27  0.336  0.002  0.522-   8 1.34   4 1.34
  28  0.512  0.352  0.392-   5 1.33  15 1.34
  29  0.345  0.361  0.390-   2 1.32   5 1.34
  30  0.506  0.177  0.493-   4 1.32  13 1.35
  31  0.159  0.988  0.447-   9 1.33   6 1.33
  32  0.002  0.002  0.483-  16 1.40  23 1.40   6 1.40
  33  0.165  0.831  0.500-   7 1.40   8 1.42   9 1.43
  34  0.134  0.645  0.518-  12 1.32   7 1.36
  35  0.334  0.491  0.492-  10 1.36   2 1.39  57 2.06
  36  0.503  0.831  0.490-  11 1.34  21 1.35
  37  0.333  0.829  0.479-  11 1.34   8 1.35
  38  0.499  0.648  0.545-  10 1.32  19 1.37
  39  0.142  0.484  0.485-  12 1.36   3 1.38  57 2.08
  40  0.988  0.496  0.436-  12 1.35  22 1.42  17 1.42
  41  0.667  0.330  0.429-  13 1.40  14 1.40  15 1.45
  42  0.680  0.178  0.495-  18 1.33  13 1.35
  43  0.827  0.986  0.468-  20 1.33  16 1.33
  44  0.011  0.348  0.379-   3 1.32  17 1.34
  45  0.830  0.330  0.380-  17 1.32  14 1.35
  46  0.993  0.161  0.435-  16 1.32   1 1.34
  47  0.669  0.005  0.539-  21 1.34  18 1.34
  48  0.505  0.004  0.498-  11 1.38  18 1.41   4 1.41
  49  0.668  0.832  0.534-  19 1.41  21 1.44  20 1.45
  50  0.675  0.666  0.512-  19 1.33  24 1.33
  51  0.832  0.507  0.396-  22 1.31  14 1.36
  52  0.016  0.853  0.549-  23 1.34   9 1.34
  53  0.849  0.860  0.566-  20 1.34  23 1.34
  54  0.004  0.677  0.435-   7 1.33  22 1.35
  55  0.668  0.491  0.484-  24 1.32  15 1.34
  56  0.506  0.502  0.467-  10 1.35  24 1.41   5 1.43
  57  0.287  0.593  0.558-  35 2.06  39 2.08
 

IMPORTANT INFORMATION: All symmetrisations will be switched off!
NOSYMM: (Re-)initialisation of all symmetry stuff for point group C_1.

 
 
 KPOINTS: K-Points                                

Automatic generation of k-mesh.
Space group operators:
 irot       det(A)        alpha          n_x          n_y          n_z        tau_x        tau_y        tau_z
    1     1.000000     0.000000     1.000000     0.000000     0.000000     0.000000     0.000000     0.000000
 
 Subroutine IBZKPT returns following result:
 ===========================================
 
 Found      5 irreducible k-points:
 
 Following reciprocal coordinates:
            Coordinates               Weight
  0.000000  0.000000  0.000000      1.000000
  0.333333  0.000000  0.000000      2.000000
  0.000000  0.333333  0.000000      2.000000
  0.333333  0.333333  0.000000      2.000000
 -0.333333  0.333333  0.000000      2.000000
 
 Following cartesian coordinates:
            Coordinates               Weight
  0.000000  0.000000  0.000000      1.000000
  0.024277  0.014368  0.000000      2.000000
  0.000396  0.028736  0.000000      2.000000
  0.024673  0.043104  0.000000      2.000000
 -0.023881  0.014368  0.000000      2.000000
 
 TETIRR: Found     24 inequivalent tetrahedra from       54


--------------------------------------------------------------------------------------------------------




 Dimension of arrays:
   k-points           NKPTS =      5   k-points in BZ     NKDIM =      5   number of bands    NBANDS=    168
   number of dos      NEDOS =   4000   number of ions     NIONS =     57
   non local maximal  LDIM  =      6   non local SUM 2l+1 LMDIM =     18
   total plane-waves  NPLWV = 403200
   max r-space proj   IRMAX =      1   max aug-charges    IRDMAX=   5828
   dimension x,y,z NGX =    72 NGY =   70 NGZ =   80
   dimension x,y,z NGXF=   144 NGYF=  140 NGZF=  160
   support grid    NGXF=   144 NGYF=  140 NGZF=  160
   ions per type =              24  32   1
   NGX,Y,Z   is equivalent  to a cutoff of   8.65,  8.56,  8.87 a.u.
   NGXF,Y,Z  is equivalent  to a cutoff of  17.29, 17.13, 17.73 a.u.

 SYSTEM =  unknown system                          
 POSCAR =  POSCAR-c3n4                             

 Startparameter for this run:
   NWRITE =      2    write-flag & timer
   PREC   = normal    normal or accurate (medium, high low for compatibility)
   ISTART =      0    job   : 0-new  1-cont  2-samecut
   ICHARG =      2    charge: 1-file 2-atom 10-const
   ISPIN  =      2    spin polarized calculation?
   LNONCOLLINEAR =      F non collinear calculations
   LSORBIT =      F    spin-orbit coupling
   INIWAV =      1    electr: 0-lowe 1-rand  2-diag
   LASPH  =      F    aspherical Exc in radial PAW
   METAGGA=      F    non-selfconsistent MetaGGA calc.

 Electronic Relaxation 1
   ENCUT  =  440.0 eV  32.34 Ry    5.69 a.u.  23.68 23.24 25.66*2*pi/ulx,y,z
   ENINI  =  440.0     initial cutoff
   ENAUG  =  644.9 eV  augmentation charge cutoff
   NELM   =    100;   NELMIN=  2; NELMDL= -5     # of ELM steps 
   EDIFF  = 0.1E-03   stopping-criterion for ELM
   LREAL  =      F    real-space projection
   NLSPLINE    = F    spline interpolate recip. space projectors
   LCOMPAT=      F    compatible to vasp.4.4
   GGA_COMPAT  = T    GGA compatible to vasp.4.4-vasp.4.6
   LMAXPAW     = -100 max onsite density
   LMAXMIX     =    2 max onsite mixed and CHGCAR
   VOSKOWN=      0    Vosko Wilk Nusair interpolation
   ROPT   =    0.00000   0.00000   0.00000
 Ionic relaxation
   EDIFFG = -.1E-01   stopping-criterion for IOM
   NSW    =      0    number of steps for IOM
   NBLOCK =      1;   KBLOCK =      1    inner block; outer block 
   IBRION =     -1    ionic relax: 0-MD 1-quasi-New 2-CG
   NFREE  =      0    steps in history (QN), initial steepest desc. (CG)
   ISIF   =      2    stress and relaxation
   IWAVPR =     10    prediction:  0-non 1-charg 2-wave 3-comb
   ISYM   =      0    0-nonsym 1-usesym 2-fastsym
   LCORR  =      T    Harris-Foulkes like correction to forces

   POTIM  = 0.5000    time-step for ionic-motion
   TEIN   =    0.0    initial temperature
   TEBEG  =    0.0;   TEEND  =   0.0 temperature during run
   SMASS  =  -3.00    Nose mass-parameter (am)
   estimated Nose-frequenzy (Omega)   =  0.10E-29 period in steps =****** mass=  -0.438E-26a.u.
   SCALEE = 1.0000    scale energy and forces
   NPACO  =    256;   APACO  = 16.0  distance and # of slots for P.C.
   PSTRESS=    0.0 pullay stress

  Mass of Ions in am
   POMASS =  12.01 14.00 72.61
  Ionic Valenz
   ZVAL   =   4.00  5.00 14.00
  Atomic Wigner-Seitz radii
   RWIGS  =  -1.00 -1.00 -1.00
  virtual crystal weights 
   VCA    =   1.00  1.00  1.00
   NELECT =     270.0000    total number of electrons
   NUPDOWN=      -1.0000    fix difference up-down

 DOS related values:
   EMIN   = -14.00;   EMAX   =  6.00  energy-range for DOS
   EFERMI =   0.00
   ISMEAR =    -5;   SIGMA  =   0.20  broadening in eV -4-tet -1-fermi 0-gaus

 Electronic relaxation 2 (details)
   IALGO  =     38    algorithm
   LDIAG  =      T    sub-space diagonalisation (order eigenvalues)
   LSUBROT=      F    optimize rotation matrix (better conditioning)
   TURBO    =      0    0=normal 1=particle mesh
   IRESTART =      0    0=no restart 2=restart with 2 vectors
   NREBOOT  =      0    no. of reboots
   NMIN     =      0    reboot dimension
   EREF     =   0.00    reference energy to select bands
   IMIX   =      4    mixing-type and parameters
     AMIX     =   0.25;   BMIX     =  0.00
     AMIX_MAG =   1.00;   BMIX_MAG =  0.00
     AMIN     =   0.10
     WC   =   100.;   INIMIX=   1;  MIXPRE=   1;  MAXMIX= -45

 Intra band minimization:
   WEIMIN = 0.0000     energy-eigenvalue tresh-hold
   EBREAK =  0.15E-06  absolut break condition
   DEPER  =   0.30     relativ break condition  

   TIME   =   0.40     timestep for ELM

  volume/ion in A,a.u.               =      42.26       285.17
  Fermi-wavevector in a.u.,A,eV,Ry     =   0.789346  1.491648  8.477342  0.623067
  Thomas-Fermi vector in A             =   1.894469
 
 Write flags
   LWAVE        =      F    write WAVECAR
   LDOWNSAMPLE  =      F    k-point downsampling of WAVECAR
   LCHARG       =      F    write CHGCAR
   LVTOT        =      F    write LOCPOT, total local potential
   LVHAR        =      F    write LOCPOT, Hartree potential only
   LELF         =      F    write electronic localiz. function (ELF)
   LORBIT       =     11    0 simple, 1 ext, 2 COOP (PROOUT), +10 PAW based schemes


 Dipole corrections
   LMONO  =      F    monopole corrections only (constant potential shift)
   LDIPOL =      F    correct potential (dipole corrections)
   IDIPOL =      0    1-x, 2-y, 3-z, 4-all directions 
   EPSILON=  1.0000000 bulk dielectric constant

 Exchange correlation treatment:
   GGA     =    --    GGA type
   LEXCH   =     8    internal setting for exchange type
   VOSKOWN=      0    Vosko Wilk Nusair interpolation
   LHFCALC =     F    Hartree Fock is set to
   LHFONE  =     F    Hartree Fock one center treatment
   AEXX    =    0.0000 exact exchange contribution

 Linear response parameters
   LEPSILON=     F    determine dielectric tensor
   LRPA    =     F    only Hartree local field effects (RPA)
   LNABLA  =     F    use nabla operator in PAW spheres
   LVEL    =     F    velocity operator in full k-point grid
   LINTERFAST=   F  fast interpolation
   KINTER  =     0    interpolate to denser k-point grid
   CSHIFT  =0.1000    complex shift for real part using Kramers Kronig
   OMEGAMAX=  -1.0    maximum frequency
   DEG_THRESHOLD= 0.2000000E-02 threshold for treating states as degnerate
   RTIME   =   -0.100 relaxation time in fs
  (WPLASMAI=    0.000 imaginary part of plasma frequency in eV, 0.658/RTIME)
   DFIELD  = 0.0000000 0.0000000 0.0000000 field for delta impulse in time
 
 Orbital magnetization related:
   ORBITALMAG=     F  switch on orbital magnetization
   LCHIMAG   =     F  perturbation theory with respect to B field
   DQ        =  0.001000  dq finite difference perturbation B field
   LLRAUG    =     F  two centre corrections for induced B field



--------------------------------------------------------------------------------------------------------


 Static calculation
 charge density and potential will be updated during run
 spin polarized calculation
 Variant of blocked Davidson
 Davidson routine will perform the subspace rotation
 perform sub-space diagonalisation
    after iterative eigenvector-optimisation
 modified Broyden-mixing scheme, WC =      100.0
 initial mixing is a Kerker type mixing with AMIX =  0.2500 and BMIX =      0.0001
 Hartree-type preconditioning will be used
 using additional bands           33
 reciprocal scheme for non local part
 use partial core corrections
 calculate Harris-corrections to forces 
   (improved forces if not selfconsistent)
 use gradient corrections 
 use of overlap-Matrix (Vanderbilt PP)
 Fermi weights with tetrahedron method with Bloechl corrections


--------------------------------------------------------------------------------------------------------


  energy-cutoff  :      440.00
  volume of cell :     2408.72
      direct lattice vectors                 reciprocal lattice vectors
    13.843424235 -0.190740474  0.000000000     0.072830369  0.043104114  0.000000000
    -6.921712117 11.695190994  0.000000000     0.001187813  0.086208229  0.000000000
     0.000000000  0.000000000 15.000000000     0.000000000  0.000000000  0.066666667

  length of vectors
    13.844738223 13.589981274 15.000000000     0.084629944  0.086216411  0.066666667


 
 k-points in units of 2pi/SCALE and weight: K-Points                                
   0.00000000  0.00000000  0.00000000       0.111
   0.02427679  0.01436804  0.00000000       0.222
   0.00039594  0.02873608  0.00000000       0.222
   0.02467273  0.04310411  0.00000000       0.222
  -0.02388085  0.01436804  0.00000000       0.222
 
 k-points in reciprocal lattice and weights: K-Points                                
   0.00000000  0.00000000  0.00000000       0.111
   0.33333333  0.00000000  0.00000000       0.222
   0.00000000  0.33333333  0.00000000       0.222
   0.33333333  0.33333333  0.00000000       0.222
  -0.33333333  0.33333333  0.00000000       0.222
 
 position of ions in fractional coordinates (direct lattice) 
   0.10567936  0.21351909  0.42646415
   0.28750403  0.39866334  0.43315811
   0.10379301  0.39177313  0.42728737
   0.44732828  0.06383887  0.50569377
   0.45258916  0.40124889  0.41252546
   0.11203481  0.05273921  0.44868132
   0.09638015  0.71191070  0.48390127
   0.28433946  0.89006364  0.50120122
   0.10941441  0.89537413  0.49812536
   0.44792521  0.54827090  0.50190381
   0.44544784  0.88520183  0.48897001
   0.08690842  0.54210436  0.48067119
   0.61614813  0.22292684  0.47270451
   0.78023735  0.38968276  0.39988272
   0.61037743  0.39432339  0.43546161
   0.93951642  0.05229783  0.46070020
   0.94071854  0.38652888  0.39388003
   0.62278394  0.06558106  0.51203168
   0.61322902  0.71118454  0.53124878
   0.78984871  0.89727295  0.52288011
   0.60944297  0.89248269  0.52132702
   0.93832005  0.56283419  0.42050954
   0.95436023  0.90171878  0.53466451
   0.62130548  0.55465507  0.48986027
   0.16668926  0.33545237  0.42502835
   0.16473950  0.16097029  0.42095206
   0.33626584  0.00180669  0.52215766
   0.51175722  0.35246859  0.39238613
   0.34471728  0.36074551  0.38975287
   0.50565751  0.17673507  0.49315170
   0.15873210  0.98821904  0.44665654
   0.00214731  0.00186372  0.48284181
   0.16462634  0.83083069  0.50025956
   0.13400723  0.64526801  0.51778798
   0.33371346  0.49116238  0.49155062
   0.50288345  0.83078126  0.48972341
   0.33307237  0.82932770  0.47937372
   0.49902190  0.64803204  0.54483375
   0.14173676  0.48364631  0.48511610
   0.98839512  0.49595573  0.43598798
   0.66736443  0.33015381  0.42931770
   0.67970142  0.17802103  0.49523771
   0.82720183  0.98622484  0.46784919
   0.01097216  0.34809993  0.37880244
   0.83047981  0.33016544  0.37952861
   0.99296173  0.16101876  0.43513088
   0.66886761  0.00524437  0.53948092
   0.50484899  0.00388347  0.49830916
   0.66830364  0.83227641  0.53419919
   0.67536455  0.66551462  0.51246466
   0.83211404  0.50666912  0.39574663
   0.01584380  0.85299492  0.54867721
   0.84924332  0.85956436  0.56604968
   0.00424175  0.67726383  0.43455477
   0.66753141  0.49127771  0.48382075
   0.50565566  0.50179634  0.46716125
   0.28676550  0.59288202  0.55779478
 
 position of ions in cartesian coordinates  (Angst):
  -0.01495341  2.47698916  6.39696227
   1.22060735  4.60760523  6.49737170
  -1.27489022  4.56206407  6.40931056
   5.75068089  0.66128413  7.58540649
   3.48805436  4.60635537  6.18788190
   1.18589979  0.59542560  6.73021982
  -3.59340964  8.30754803  7.25851908
  -2.22453254 10.35522920  7.51801834
  -4.68285195 10.45070172  7.47188037
   2.40584542  6.32669544  7.52855712
   0.03941122 10.26763956  7.33455008
  -2.54918027  6.32343713  7.21006780
   6.98656454  2.48964760  7.09056761
   8.10388471  4.40859150  5.99824079
   5.72032065  4.49526372  6.53192419
  12.64413391  0.43242927  6.91050303
  10.34732423  4.34109601  5.90820048
   8.16752907  0.64819286  7.68047516
   3.56657488  8.20047146  7.96873166
   4.72354569 10.34312244  7.84320158
   2.25926930 10.32151003  7.81990533
   9.09378627  6.40347778  6.30764311
   6.97017567 10.36373826  8.01996771
   4.76183266  6.36828891  7.34790400
  -0.01435459  3.89138517  6.37542522
   1.16636883  1.85115575  6.31428088
   4.64256524 -0.04300995  7.83236485
   4.64478625  4.02457463  5.88579202
   2.27509095  4.15323612  5.84629310
   5.77672210  1.97050110  7.39727547
  -4.64277198 11.52713380  6.69984814
   0.01682601  0.02138698  7.24262720
  -3.47177850  9.68532266  7.50389344
  -2.61124046  7.52097199  7.76681965
   1.22005246  5.68058514  7.37325929
   1.21120026  9.62022522  7.34585122
  -1.12950549  9.63561545  7.19060584
   2.42268065  7.48367481  8.17250628
  -1.38553843  5.62930098  7.27674153
  10.24991020  5.61177007  6.53981966
   6.95337930  3.73391849  6.43976553
   8.17718484  1.95234336  7.42856564
   4.62494149 11.37630698  7.01773782
  -2.25755524  4.06900228  5.68203660
   9.21137417  3.70294177  5.69292916
  12.63146492  1.69374715  6.52696313
   9.22311816 -0.06624626  8.09221374
   6.96195851 -0.05087721  7.47463740
   3.49083317  9.60615900  8.01298791
   4.74285732  7.65450125  7.68696988
   8.01228982  5.76687433  5.93619945
  -5.68485288  9.97291647  8.23015819
   5.80677850  9.89078434  8.49074519
  -4.62910497  7.91992080  6.51832156
   5.84043755  5.61826141  7.25731121
   3.52671598  5.77215508  7.00741871
  -0.13394222  6.87917073  8.36692175
 


--------------------------------------------------------------------------------------------------------


 k-point  1 :   0.0000 0.0000 0.0000  plane waves:   50507
 k-point  2 :   0.3333 0.0000 0.0000  plane waves:   50502
 k-point  3 :   0.0000 0.3333 0.0000  plane waves:   50488
 k-point  4 :   0.3333 0.3333 0.0000  plane waves:   50491
 k-point  5 :  -0.3333 0.3333 0.0000  plane waves:   50463

 maximum and minimum number of plane-waves per node :      4234     4191

 maximum number of plane-waves:     50507
 maximum index in each direction: 
   IXMAX=   24   IYMAX=   23   IZMAX=   25
   IXMIN=  -24   IYMIN=  -23   IZMIN=  -25


 parallel 3D FFT for wavefunctions:
    minimum data exchange during FFTs selected (reduces bandwidth)
 parallel 3D FFT for charge:
    minimum data exchange during FFTs selected (reduces bandwidth)


 total amount of memory used by VASP MPI-rank0    83826. kBytes
=======================================================================

   base      :      30000. kBytes
   nonl-proj :      12951. kBytes
   fftplans  :       3349. kBytes
   grid      :       8691. kBytes
   one-center:        155. kBytes
   wavefun   :      28680. kBytes
 
     INWAV:  cpu time    0.0000: real time    0.0001
 Broyden mixing: mesh for mixing (old mesh)
   NGX = 47   NGY = 47   NGZ = 51
  (NGX  =144   NGY  =140   NGZ  =160)
  gives a total of 112659 points

 initial charge density was supplied:
 charge density of overlapping atoms calculated
 number of electron     270.0000000 magnetization       1.0000000
 keeping initial charge density in first step


--------------------------------------------------------------------------------------------------------


 Maximum index for augmentation-charges          231 (set IRDMAX)


--------------------------------------------------------------------------------------------------------


 First call to EWALD:  gamma=   0.132
 Maximum number of real-space cells 3x 3x 3
 Maximum number of reciprocal cells 3x 3x 3

    FEWALD:  cpu time    0.0045: real time    0.0047


--------------------------------------- Iteration      1(   1)  ---------------------------------------


    POTLOK:  cpu time    0.1726: real time    0.2085
    SETDIJ:  cpu time    0.0084: real time    0.0089
     EDDAV:  cpu time    7.4009: real time    7.4840
 BZINTS: Fermi energy:  9.102256;270.000000 electrons
         Band energy:***********;  BLOECHL correction: -0.026895
       DOS:  cpu time    0.1484: real time    0.1486
    --------------------------------------------
      LOOP:  cpu time    7.7303: real time    7.8501

 eigenvalue-minimisations  :  3856
 total energy-change (2. order) : 0.2586736E+04  (-0.1005070E+05)
 number of electron     270.0000000 magnetization       1.0000000
 augmentation part      270.0000000 magnetization       1.0000000

 Free energy of the ion-electron system (eV)
  ---------------------------------------------------
  alpha Z        PSCENC =       144.27357365
  Ewald energy   TEWEN  =     27383.33457375
  -Hartree energ DENC   =    -38789.17393906
  -exchange      EXHF   =         0.00000000
  -V(xc)+E(xc)   XCENC  =      1028.23345799
  PAW double counting   =     10998.91041168   -11485.61342155
  entropy T*S    EENTRO =         0.00000000
  eigenvalues    EBANDS =     -1285.48877126
  atomic energy  EATOM  =     14592.26033195
  Solvation  Ediel_sol  =         0.00000000
  ---------------------------------------------------
  free energy    TOTEN  =      2586.73621715 eV

  energy without entropy =     2586.73621715  energy(sigma->0) =     2586.73621715


--------------------------------------------------------------------------------------------------------




--------------------------------------- Iteration      1(   2)  ---------------------------------------


     EDDAV:  cpu time   10.1196: real time   10.4321
 BZINTS: Fermi energy: -0.136533;270.000000 electrons
         Band energy:***********;  BLOECHL correction:  0.000000
       DOS:  cpu time    0.0060: real time    0.0060
    --------------------------------------------
      LOOP:  cpu time   10.1256: real time   10.4381

 eigenvalue-minimisations  :  4696
 total energy-change (2. order) :-0.2561479E+04  (-0.2449489E+04)
 number of electron     270.0000000 magnetization       1.0000000
 augmentation part      270.0000000 magnetization       1.0000000

 Free energy of the ion-electron system (eV)
  ---------------------------------------------------
  alpha Z        PSCENC =       144.27357365
  Ewald energy   TEWEN  =     27383.33457375
  -Hartree energ DENC   =    -38789.17393906
  -exchange      EXHF   =         0.00000000
  -V(xc)+E(xc)   XCENC  =      1028.23345799
  PAW double counting   =     10998.91041168   -11485.61342155
  entropy T*S    EENTRO =         0.00000000
  eigenvalues    EBANDS =     -3846.96742904
  atomic energy  EATOM  =     14592.26033195
  Solvation  Ediel_sol  =         0.00000000
  ---------------------------------------------------
  free energy    TOTEN  =        25.25755938 eV

  energy without entropy =       25.25755938  energy(sigma->0) =       25.25755938


--------------------------------------------------------------------------------------------------------




--------------------------------------- Iteration      1(   3)  ---------------------------------------


     EDDAV:  cpu time    8.7411: real time    8.9412
 BZINTS: Fermi energy: -3.502641;270.000000 electrons
         Band energy:***********;  BLOECHL correction: -0.012644
       DOS:  cpu time    0.0108: real time    0.0108
    --------------------------------------------
      LOOP:  cpu time    8.7519: real time    8.9520

 eigenvalue-minimisations  :  4040
 total energy-change (2. order) :-0.5151622E+03  (-0.5107497E+03)
 number of electron     270.0000000 magnetization       1.0000000
 augmentation part      270.0000000 magnetization       1.0000000

 Free energy of the ion-electron system (eV)
  ---------------------------------------------------
  alpha Z        PSCENC =       144.27357365
  Ewald energy   TEWEN  =     27383.33457375
  -Hartree energ DENC   =    -38789.17393906
  -exchange      EXHF   =         0.00000000
  -V(xc)+E(xc)   XCENC  =      1028.23345799
  PAW double counting   =     10998.91041168   -11485.61342155
  entropy T*S    EENTRO =         0.00000000
  eigenvalues    EBANDS =     -4362.12961229
  atomic energy  EATOM  =     14592.26033195
  Solvation  Ediel_sol  =         0.00000000
  ---------------------------------------------------
  free energy    TOTEN  =      -489.90462387 eV

  energy without entropy =     -489.90462387  energy(sigma->0) =     -489.90462387


--------------------------------------------------------------------------------------------------------




--------------------------------------- Iteration      1(   4)  ---------------------------------------


     EDDAV:  cpu time    8.6087: real time    8.7892
 BZINTS: Fermi energy: -3.959990;270.000000 electrons
         Band energy:***********;  BLOECHL correction:  0.000000
       DOS:  cpu time    0.0036: real time    0.0036
    --------------------------------------------
      LOOP:  cpu time    8.6123: real time    8.7929

 eigenvalue-minimisations  :  4192
 total energy-change (2. order) :-0.2049052E+02  (-0.1994146E+02)
 number of electron     270.0000000 magnetization       1.0000000
 augmentation part      270.0000000 magnetization       1.0000000

 Free energy of the ion-electron system (eV)
  ---------------------------------------------------
  alpha Z        PSCENC =       144.27357365
  Ewald energy   TEWEN  =     27383.33457375
  -Hartree energ DENC   =    -38789.17393906
  -exchange      EXHF   =         0.00000000
  -V(xc)+E(xc)   XCENC  =      1028.23345799
  PAW double counting   =     10998.91041168   -11485.61342155
  entropy T*S    EENTRO =         0.00000000
  eigenvalues    EBANDS =     -4382.62013723
  atomic energy  EATOM  =     14592.26033195
  Solvation  Ediel_sol  =         0.00000000
  ---------------------------------------------------
  free energy    TOTEN  =      -510.39514882 eV

  energy without entropy =     -510.39514882  energy(sigma->0) =     -510.39514882


--------------------------------------------------------------------------------------------------------




--------------------------------------- Iteration      1(   5)  ---------------------------------------


     EDDAV:  cpu time    9.5849: real time    9.7765
 BZINTS: Fermi energy: -3.981245;270.000000 electrons
         Band energy:***********;  BLOECHL correction:  0.000000
       DOS:  cpu time    0.0041: real time    0.0041
    CHARGE:  cpu time    0.1328: real time    0.1372
    MIXING:  cpu time    0.0038: real time    0.0038
    --------------------------------------------
      LOOP:  cpu time    9.7256: real time    9.9216

 eigenvalue-minimisations  :  4968
 total energy-change (2. order) :-0.8782266E+00  (-0.8702162E+00)
 number of electron     270.0000048 magnetization       0.0000001
 augmentation part       19.5341731 magnetization       0.0029515

 Broyden mixing:
  rms(total) = 0.40540E+01    rms(broyden)= 0.40510E+01
  rms(prec ) = 0.44900E+01
  weight for this iteration     100.00

 Free energy of the ion-electron system (eV)
  ---------------------------------------------------
  alpha Z        PSCENC =       144.27357365
  Ewald energy   TEWEN  =     27383.33457375
  -Hartree energ DENC   =    -38789.17393906
  -exchange      EXHF   =         0.00000000
  -V(xc)+E(xc)   XCENC  =      1028.23345799
  PAW double counting   =     10998.91041168   -11485.61342155
  entropy T*S    EENTRO =         0.00000000
  eigenvalues    EBANDS =     -4383.49836381
  atomic energy  EATOM  =     14592.26033195
  Solvation  Ediel_sol  =         0.00000000
  ---------------------------------------------------
  free energy    TOTEN  =      -511.27337539 eV

  energy without entropy =     -511.27337539  energy(sigma->0) =     -511.27337539


--------------------------------------------------------------------------------------------------------




--------------------------------------- Iteration      1(   6)  ---------------------------------------


    POTLOK:  cpu time    0.0993: real time    0.1015
    SETDIJ:  cpu time    0.0296: real time    0.0297
     EDDAV:  cpu time    8.2441: real time    8.3235
 BZINTS: Fermi energy: -3.604901;270.000000 electrons
         Band energy:***********;  BLOECHL correction:  0.000000
       DOS:  cpu time    0.0035: real time    0.0036
    CHARGE:  cpu time    0.1118: real time    0.1180
    MIXING:  cpu time    0.0028: real time    0.0034
    --------------------------------------------
      LOOP:  cpu time    8.4911: real time    8.5797

 eigenvalue-minimisations  :  4264
 total energy-change (2. order) : 0.2622831E+02  (-0.5154012E+01)
 number of electron     270.0000037 magnetization      -0.0000000
 augmentation part       18.4822940 magnetization      -0.0034056

 Broyden mixing:
  rms(total) = 0.25384E+01    rms(broyden)= 0.25380E+01
  rms(prec ) = 0.27223E+01
  weight for this iteration     100.00

 eigenvalues of (default mixing * dielectric matrix)
  average eigenvalue GAMMA=   1.4609
  1.4609

 Free energy of the ion-electron system (eV)
  ---------------------------------------------------
  alpha Z        PSCENC =       144.27357365
  Ewald energy   TEWEN  =     27383.33457375
  -Hartree energ DENC   =    -39085.12204844
  -exchange      EXHF   =         0.00000000
  -V(xc)+E(xc)   XCENC  =      1042.67110690
  PAW double counting   =     14456.00556802   -14944.85936432
  entropy T*S    EENTRO =         0.00000000
  eigenvalues    EBANDS =     -4073.60880425
  atomic energy  EATOM  =     14592.26033195
  Solvation  Ediel_sol  =         0.00000000
  ---------------------------------------------------
  free energy    TOTEN  =      -485.04506274 eV

  energy without entropy =     -485.04506274  energy(sigma->0) =     -485.04506274


--------------------------------------------------------------------------------------------------------




--------------------------------------- Iteration      1(   7)  ---------------------------------------


    POTLOK:  cpu time    0.1282: real time    0.1317
    SETDIJ:  cpu time    0.0095: real time    0.0095
     EDDAV:  cpu time    8.2255: real time    8.3021
 BZINTS: Fermi energy: -3.099775;270.000000 electrons
         Band energy:***********;  BLOECHL correction:  0.000000
       DOS:  cpu time    0.0035: real time    0.0035
    CHARGE:  cpu time    0.1452: real time    0.1476
    MIXING:  cpu time    0.0028: real time    0.0032
    --------------------------------------------
      LOOP:  cpu time    8.5147: real time    8.5976

 eigenvalue-minimisations  :  4152
 total energy-change (2. order) : 0.4935209E+01  (-0.3772203E+01)
 number of electron     270.0000033 magnetization      -0.0000000
 augmentation part       18.0410730 magnetization      -0.0026523

 Broyden mixing:
  rms(total) = 0.16273E+01    rms(broyden)= 0.16269E+01
  rms(prec ) = 0.17593E+01
  weight for this iteration     100.00

 eigenvalues of (default mixing * dielectric matrix)
  average eigenvalue GAMMA=   1.5171
  0.9372  2.0971

 Free energy of the ion-electron system (eV)
  ---------------------------------------------------
  alpha Z        PSCENC =       144.27357365
  Ewald energy   TEWEN  =     27383.33457375
  -Hartree energ DENC   =    -39354.97985436
  -exchange      EXHF   =         0.00000000
  -V(xc)+E(xc)   XCENC  =      1053.90918286
  PAW double counting   =     19146.48326468   -19638.52043177
  entropy T*S    EENTRO =         0.00000000
  eigenvalues    EBANDS =     -3806.87049417
  atomic energy  EATOM  =     14592.26033195
  Solvation  Ediel_sol  =         0.00000000
  ---------------------------------------------------
  free energy    TOTEN  =      -480.10985341 eV

  energy without entropy =     -480.10985341  energy(sigma->0) =     -480.10985341


--------------------------------------------------------------------------------------------------------




--------------------------------------- Iteration      1(   8)  ---------------------------------------


    POTLOK:  cpu time    0.0983: real time    0.1003
    SETDIJ:  cpu time    0.0099: real time    0.0099
     EDDAV:  cpu time    7.7089: real time    7.7664
 BZINTS: Fermi energy: -2.580895;270.000000 electrons
         Band energy:***********;  BLOECHL correction:  0.000000
       DOS:  cpu time    0.0038: real time    0.0038
    CHARGE:  cpu time    0.1373: real time    0.1393
    MIXING:  cpu time    0.0025: real time    0.0025
    --------------------------------------------
      LOOP:  cpu time    7.9607: real time    8.0223

 eigenvalue-minimisations  :  3976
 total energy-change (2. order) : 0.1874253E+01  (-0.1037109E+01)
 number of electron     270.0000032 magnetization       0.0000000
 augmentation part       17.8172316 magnetization      -0.0016421

 Broyden mixing:
  rms(total) = 0.11376E+01    rms(broyden)= 0.11374E+01
  rms(prec ) = 0.12102E+01
  weight for this iteration     100.00

 eigenvalues of (default mixing * dielectric matrix)
  average eigenvalue GAMMA=   1.6677
  3.0594  1.2728  0.6711

 Free energy of the ion-electron system (eV)
  ---------------------------------------------------
  alpha Z        PSCENC =       144.27357365
  Ewald energy   TEWEN  =     27383.33457375
  -Hartree energ DENC   =    -39457.13236745
  -exchange      EXHF   =         0.00000000
  -V(xc)+E(xc)   XCENC  =      1058.27589259
  PAW double counting   =     22324.43871074   -22818.76300008
  entropy T*S    EENTRO =         0.00000000
  eigenvalues    EBANDS =     -3704.92331526
  atomic energy  EATOM  =     14592.26033195
  Solvation  Ediel_sol  =         0.00000000
  ---------------------------------------------------
  free energy    TOTEN  =      -478.23560012 eV

  energy without entropy =     -478.23560012  energy(sigma->0) =     -478.23560012


--------------------------------------------------------------------------------------------------------




--------------------------------------- Iteration      1(   9)  ---------------------------------------


    POTLOK:  cpu time    0.1023: real time    0.1041
    SETDIJ:  cpu time    0.0082: real time    0.0084
     EDDAV:  cpu time    8.9143: real time    9.0394
 BZINTS: Fermi energy: -2.435859;270.000000 electrons
         Band energy:***********;  BLOECHL correction:  0.000000
       DOS:  cpu time    0.0038: real time    0.0038
    CHARGE:  cpu time    0.1121: real time    0.1127
    MIXING:  cpu time    0.0026: real time    0.0026
    --------------------------------------------
      LOOP:  cpu time    9.1433: real time    9.2709

 eigenvalue-minimisations  :  4760
 total energy-change (2. order) :-0.2498774E+00  (-0.1325473E+01)
 number of electron     270.0000034 magnetization       0.0000000
 augmentation part       17.9177396 magnetization      -0.0004793

 Broyden mixing:
  rms(total) = 0.64454E+00    rms(broyden)= 0.64418E+00
  rms(prec ) = 0.82119E+00
  weight for this iteration     100.00

 eigenvalues of (default mixing * dielectric matrix)
  average eigenvalue GAMMA=   1.5872
  3.6068  1.3600  0.6910  0.6910

 Free energy of the ion-electron system (eV)
  ---------------------------------------------------
  alpha Z        PSCENC =       144.27357365
  Ewald energy   TEWEN  =     27383.33457375
  -Hartree energ DENC   =    -39519.16355584
  -exchange      EXHF   =         0.00000000
  -V(xc)+E(xc)   XCENC  =      1060.72121287
  PAW double counting   =     26313.73181152   -26812.67904065
  entropy T*S    EENTRO =         0.00000000
  eigenvalues    EBANDS =     -3640.96438477
  atomic energy  EATOM  =     14592.26033195
  Solvation  Ediel_sol  =         0.00000000
  ---------------------------------------------------
  free energy    TOTEN  =      -478.48547752 eV

  energy without entropy =     -478.48547752  energy(sigma->0) =     -478.48547752


--------------------------------------------------------------------------------------------------------




--------------------------------------- Iteration      1(  10)  ---------------------------------------


    POTLOK:  cpu time    0.1275: real time    0.1295
    SETDIJ:  cpu time    0.0083: real time    0.0083
     EDDAV:  cpu time    8.5248: real time    8.5927
 BZINTS: Fermi energy: -2.070768;270.000000 electrons
         Band energy:***********;  BLOECHL correction:  0.000000
       DOS:  cpu time    0.0038: real time    0.0038
    CHARGE:  cpu time    0.1130: real time    0.1134
    MIXING:  cpu time    0.0029: real time    0.0029
    --------------------------------------------
      LOOP:  cpu time    8.7802: real time    8.8506

 eigenvalue-minimisations  :  4576
 total energy-change (2. order) : 0.7540797E+00  (-0.6105881E+00)
 number of electron     270.0000034 magnetization       0.0000000
 augmentation part       17.9020007 magnetization      -0.0001470

 Broyden mixing:
  rms(total) = 0.31685E+00    rms(broyden)= 0.31611E+00
  rms(prec ) = 0.38807E+00
  weight for this iteration     100.00

 eigenvalues of (default mixing * dielectric matrix)
  average eigenvalue GAMMA=   1.4950
  3.8525  1.4953  0.9950  0.5661  0.5661

 Free energy of the ion-electron system (eV)
  ---------------------------------------------------
  alpha Z        PSCENC =       144.27357365
  Ewald energy   TEWEN  =     27383.33457375
  -Hartree energ DENC   =    -39540.23297360
  -exchange      EXHF   =         0.00000000
  -V(xc)+E(xc)   XCENC  =      1061.93859220
  PAW double counting   =     28275.47358085   -28774.56111388
  entropy T*S    EENTRO =         0.00000000
  eigenvalues    EBANDS =     -3620.21796275
  atomic energy  EATOM  =     14592.26033195
  Solvation  Ediel_sol  =         0.00000000
  ---------------------------------------------------
  free energy    TOTEN  =      -477.73139783 eV

  energy without entropy =     -477.73139783  energy(sigma->0) =     -477.73139783


--------------------------------------------------------------------------------------------------------




--------------------------------------- Iteration      1(  11)  ---------------------------------------


    POTLOK:  cpu time    0.0970: real time    0.0990
    SETDIJ:  cpu time    0.0083: real time    0.0083
     EDDAV:  cpu time    8.8081: real time    8.8691
 BZINTS: Fermi energy: -2.169542;270.000000 electrons
         Band energy:***********;  BLOECHL correction:  0.000000
       DOS:  cpu time    0.0035: real time    0.0035
    CHARGE:  cpu time    0.1468: real time    0.1492
    MIXING:  cpu time    0.0031: real time    0.0031
    --------------------------------------------
      LOOP:  cpu time    9.0667: real time    9.1322

 eigenvalue-minimisations  :  4672
 total energy-change (2. order) : 0.4299822E-01  (-0.2047186E+00)
 number of electron     270.0000033 magnetization      -0.0000000
 augmentation part       17.8898606 magnetization      -0.0000459

 Broyden mixing:
  rms(total) = 0.22639E+00    rms(broyden)= 0.22608E+00
  rms(prec ) = 0.30082E+00
  weight for this iteration     100.00

 eigenvalues of (default mixing * dielectric matrix)
  average eigenvalue GAMMA=   1.4183
  3.8526  1.5418  1.0951  0.9773  0.5213  0.5213

 Free energy of the ion-electron system (eV)
  ---------------------------------------------------
  alpha Z        PSCENC =       144.27357365
  Ewald energy   TEWEN  =     27383.33457375
  -Hartree energ DENC   =    -39529.12017708
  -exchange      EXHF   =         0.00000000
  -V(xc)+E(xc)   XCENC  =      1061.73542950
  PAW double counting   =     29065.60022034   -29564.17901034
  entropy T*S    EENTRO =         0.00000000
  eigenvalues    EBANDS =     -3631.59334138
  atomic energy  EATOM  =     14592.26033195
  Solvation  Ediel_sol  =         0.00000000
  ---------------------------------------------------
  free energy    TOTEN  =      -477.68839962 eV

  energy without entropy =     -477.68839962  energy(sigma->0) =     -477.68839962


--------------------------------------------------------------------------------------------------------




--------------------------------------- Iteration      1(  12)  ---------------------------------------


    POTLOK:  cpu time    0.0962: real time    0.0982
    SETDIJ:  cpu time    0.0095: real time    0.0096
     EDDAV:  cpu time    8.9272: real time    9.1443
 BZINTS: Fermi energy: -2.195799;270.000000 electrons
         Band energy:***********;  BLOECHL correction:  0.000000
       DOS:  cpu time    0.0038: real time    0.0038
    CHARGE:  cpu time    0.1868: real time    0.1878
    MIXING:  cpu time    0.0030: real time    0.0030
    --------------------------------------------
      LOOP:  cpu time    9.2264: real time    9.4466

 eigenvalue-minimisations  :  4888
 total energy-change (2. order) : 0.8194573E-01  (-0.1385031E+00)
 number of electron     270.0000033 magnetization      -0.0000000
 augmentation part       17.8615636 magnetization      -0.0000733

 Broyden mixing:
  rms(total) = 0.13959E+00    rms(broyden)= 0.13925E+00
  rms(prec ) = 0.17840E+00
  weight for this iteration     100.00

 eigenvalues of (default mixing * dielectric matrix)
  average eigenvalue GAMMA=   1.4177
  3.8118  2.0866  1.2685  0.8599  0.8599  0.5185  0.5185

 Free energy of the ion-electron system (eV)
  ---------------------------------------------------
  alpha Z        PSCENC =       144.27357365
  Ewald energy   TEWEN  =     27383.33457375
  -Hartree energ DENC   =    -39512.75999212
  -exchange      EXHF   =         0.00000000
  -V(xc)+E(xc)   XCENC  =      1061.23041541
  PAW double counting   =     29280.81982860   -29778.71141873
  entropy T*S    EENTRO =         0.00000000
  eigenvalues    EBANDS =     -3648.05376639
  atomic energy  EATOM  =     14592.26033195
  Solvation  Ediel_sol  =         0.00000000
  ---------------------------------------------------
  free energy    TOTEN  =      -477.60645389 eV

  energy without entropy =     -477.60645389  energy(sigma->0) =     -477.60645389


--------------------------------------------------------------------------------------------------------




--------------------------------------- Iteration      1(  13)  ---------------------------------------


    POTLOK:  cpu time    0.0964: real time    0.0984
    SETDIJ:  cpu time    0.0093: real time    0.0094
     EDDAV:  cpu time    7.6699: real time    7.8002
 BZINTS: Fermi energy: -2.230808;270.000000 electrons
         Band energy:***********;  BLOECHL correction:  0.000000
       DOS:  cpu time    0.0037: real time    0.0037
    CHARGE:  cpu time    0.1125: real time    0.1129
    MIXING:  cpu time    0.0029: real time    0.0030
    --------------------------------------------
      LOOP:  cpu time    7.8949: real time    8.0274

 eigenvalue-minimisations  :  3952
 total energy-change (2. order) : 0.4193348E-01  (-0.1854575E-01)
 number of electron     270.0000033 magnetization      -0.0000000
 augmentation part       17.8801377 magnetization      -0.0000991

 Broyden mixing:
  rms(total) = 0.60730E-01    rms(broyden)= 0.60689E-01
  rms(prec ) = 0.68163E-01
  weight for this iteration     100.00

 eigenvalues of (default mixing * dielectric matrix)
  average eigenvalue GAMMA=   1.4018
  3.8001  2.4728  1.3512  0.8615  0.8615  0.8320  0.5177  0.5177

 Free energy of the ion-electron system (eV)
  ---------------------------------------------------
  alpha Z        PSCENC =       144.27357365
  Ewald energy   TEWEN  =     27383.33457375
  -Hartree energ DENC   =    -39494.74629205
  -exchange      EXHF   =         0.00000000
  -V(xc)+E(xc)   XCENC  =      1060.59102278
  PAW double counting   =     29401.81593609   -29899.60297026
  entropy T*S    EENTRO =         0.00000000
  eigenvalues    EBANDS =     -3665.49069632
  atomic energy  EATOM  =     14592.26033195
  Solvation  Ediel_sol  =         0.00000000
  ---------------------------------------------------
  free energy    TOTEN  =      -477.56452041 eV

  energy without entropy =     -477.56452041  energy(sigma->0) =     -477.56452041


--------------------------------------------------------------------------------------------------------




--------------------------------------- Iteration      1(  14)  ---------------------------------------


    POTLOK:  cpu time    0.0976: real time    0.0994
    SETDIJ:  cpu time    0.0081: real time    0.0081
     EDDAV:  cpu time    7.7347: real time    7.8656
 BZINTS: Fermi energy: -2.264566;270.000000 electrons
         Band energy:***********;  BLOECHL correction:  0.000000
       DOS:  cpu time    0.0034: real time    0.0034
    CHARGE:  cpu time    0.1125: real time    0.1129
    MIXING:  cpu time    0.0030: real time    0.0030
    --------------------------------------------
      LOOP:  cpu time    7.9593: real time    8.0924

 eigenvalue-minimisations  :  3864
 total energy-change (2. order) : 0.1422545E-02  (-0.4886738E-02)
 number of electron     270.0000033 magnetization      -0.0000000
 augmentation part       17.8862345 magnetization      -0.0000471

 Broyden mixing:
  rms(total) = 0.30055E-01    rms(broyden)= 0.30007E-01
  rms(prec ) = 0.33165E-01
  weight for this iteration     100.00

 eigenvalues of (default mixing * dielectric matrix)
  average eigenvalue GAMMA=   1.3715
  3.7835  2.5203  1.3731  0.9632  0.9632  0.8508  0.8508  0.5192  0.5192

 Free energy of the ion-electron system (eV)
  ---------------------------------------------------
  alpha Z        PSCENC =       144.27357365
  Ewald energy   TEWEN  =     27383.33457375
  -Hartree energ DENC   =    -39487.97169020
  -exchange      EXHF   =         0.00000000
  -V(xc)+E(xc)   XCENC  =      1060.35442637
  PAW double counting   =     29479.26114495   -29976.97301794
  entropy T*S    EENTRO =         0.00000000
  eigenvalues    EBANDS =     -3672.10244039
  atomic energy  EATOM  =     14592.26033195
  Solvation  Ediel_sol  =         0.00000000
  ---------------------------------------------------
  free energy    TOTEN  =      -477.56309787 eV

  energy without entropy =     -477.56309787  energy(sigma->0) =     -477.56309787


--------------------------------------------------------------------------------------------------------




--------------------------------------- Iteration      1(  15)  ---------------------------------------


    POTLOK:  cpu time    0.0959: real time    0.0978
    SETDIJ:  cpu time    0.0082: real time    0.0082
     EDDAV:  cpu time    7.9297: real time    8.0449
 BZINTS: Fermi energy: -2.259565;270.000000 electrons
         Band energy:***********;  BLOECHL correction:  0.000000
       DOS:  cpu time    0.0034: real time    0.0034
    CHARGE:  cpu time    0.1120: real time    0.1125
    MIXING:  cpu time    0.0032: real time    0.0032
    --------------------------------------------
      LOOP:  cpu time    8.1523: real time    8.2700

 eigenvalue-minimisations  :  4072
 total energy-change (2. order) : 0.9592251E-04  (-0.1126357E-02)
 number of electron     270.0000033 magnetization      -0.0000000
 augmentation part       17.8851353 magnetization      -0.0000444

 Broyden mixing:
  rms(total) = 0.24695E-01    rms(broyden)= 0.24684E-01
  rms(prec ) = 0.28539E-01
  weight for this iteration     100.00

 eigenvalues of (default mixing * dielectric matrix)
  average eigenvalue GAMMA=   1.3845
  3.7148  2.6951  1.5065  1.2407  1.2407  0.8500  0.8500  0.7099  0.5188  0.5188

 Free energy of the ion-electron system (eV)
  ---------------------------------------------------
  alpha Z        PSCENC =       144.27357365
  Ewald energy   TEWEN  =     27383.33457375
  -Hartree energ DENC   =    -39489.01037770
  -exchange      EXHF   =         0.00000000
  -V(xc)+E(xc)   XCENC  =      1060.37632214
  PAW double counting   =     29496.41138805   -29994.17696707
  entropy T*S    EENTRO =         0.00000000
  eigenvalues    EBANDS =     -3671.03184671
  atomic energy  EATOM  =     14592.26033195
  Solvation  Ediel_sol  =         0.00000000
  ---------------------------------------------------
  free energy    TOTEN  =      -477.56300194 eV

  energy without entropy =     -477.56300194  energy(sigma->0) =     -477.56300194


--------------------------------------------------------------------------------------------------------




--------------------------------------- Iteration      1(  16)  ---------------------------------------


    POTLOK:  cpu time    0.0954: real time    0.0976
    SETDIJ:  cpu time    0.0081: real time    0.0081
     EDDAV:  cpu time    8.4715: real time    8.5809
 BZINTS: Fermi energy: -2.260815;270.000000 electrons
         Band energy:***********;  BLOECHL correction:  0.000000
       DOS:  cpu time    0.0037: real time    0.0037
    CHARGE:  cpu time    0.1599: real time    0.1634
    MIXING:  cpu time    0.0035: real time    0.0035
    --------------------------------------------
      LOOP:  cpu time    8.7421: real time    8.8571

 eigenvalue-minimisations  :  4520
 total energy-change (2. order) : 0.1906170E-03  (-0.9378537E-03)
 number of electron     270.0000033 magnetization       0.0000000
 augmentation part       17.8858208 magnetization      -0.0000260

 Broyden mixing:
  rms(total) = 0.16454E-01    rms(broyden)= 0.16425E-01
  rms(prec ) = 0.19694E-01
  weight for this iteration     100.00

 eigenvalues of (default mixing * dielectric matrix)
  average eigenvalue GAMMA=   1.4351
  3.6596  3.0929  2.0391  1.2149  1.2149  1.1114  0.8339  0.8339  0.7510  0.5174
  0.5174

 Free energy of the ion-electron system (eV)
  ---------------------------------------------------
  alpha Z        PSCENC =       144.27357365
  Ewald energy   TEWEN  =     27383.33457375
  -Hartree energ DENC   =    -39488.99355691
  -exchange      EXHF   =         0.00000000
  -V(xc)+E(xc)   XCENC  =      1060.36639444
  PAW double counting   =     29499.08103867   -29996.88609238
  entropy T*S    EENTRO =         0.00000000
  eigenvalues    EBANDS =     -3670.99907449
  atomic energy  EATOM  =     14592.26033195
  Solvation  Ediel_sol  =         0.00000000
  ---------------------------------------------------
  free energy    TOTEN  =      -477.56281133 eV

  energy without entropy =     -477.56281133  energy(sigma->0) =     -477.56281133


--------------------------------------------------------------------------------------------------------




--------------------------------------- Iteration      1(  17)  ---------------------------------------


    POTLOK:  cpu time    0.0954: real time    0.0977
    SETDIJ:  cpu time    0.0086: real time    0.0087
     EDDAV:  cpu time    8.0531: real time    8.1793
 BZINTS: Fermi energy: -2.255814;270.000000 electrons
         Band energy:***********;  BLOECHL correction:  0.000000
       DOS:  cpu time    0.0040: real time    0.0040
    CHARGE:  cpu time    0.1100: real time    0.1103
    MIXING:  cpu time    0.0035: real time    0.0035
    --------------------------------------------
      LOOP:  cpu time    8.2745: real time    8.4036

 eigenvalue-minimisations  :  4200
 total energy-change (2. order) :-0.3592626E-03  (-0.1064048E-02)
 number of electron     270.0000033 magnetization      -0.0000000
 augmentation part       17.8853993 magnetization      -0.0000341

 Broyden mixing:
  rms(total) = 0.16463E-01    rms(broyden)= 0.16428E-01
  rms(prec ) = 0.23251E-01
  weight for this iteration     100.00

 eigenvalues of (default mixing * dielectric matrix)
  average eigenvalue GAMMA=   1.4426
  3.7556  3.2262  2.2949  1.2198  1.2198  1.0700  1.0700  0.8644  0.8644  0.5158
  0.5158  0.6943

 Free energy of the ion-electron system (eV)
  ---------------------------------------------------
  alpha Z        PSCENC =       144.27357365
  Ewald energy   TEWEN  =     27383.33457375
  -Hartree energ DENC   =    -39489.29419833
  -exchange      EXHF   =         0.00000000
  -V(xc)+E(xc)   XCENC  =      1060.37539846
  PAW double counting   =     29509.05801572   -30006.86432088
  entropy T*S    EENTRO =         0.00000000
  eigenvalues    EBANDS =     -3670.70654491
  atomic energy  EATOM  =     14592.26033195
  Solvation  Ediel_sol  =         0.00000000
  ---------------------------------------------------
  free energy    TOTEN  =      -477.56317059 eV

  energy without entropy =     -477.56317059  energy(sigma->0) =     -477.56317059


--------------------------------------------------------------------------------------------------------




--------------------------------------- Iteration      1(  18)  ---------------------------------------


    POTLOK:  cpu time    0.0964: real time    0.0989
    SETDIJ:  cpu time    0.0094: real time    0.0094
     EDDAV:  cpu time    6.7284: real time    6.8070
 BZINTS: Fermi energy: -2.259565;270.000000 electrons
         Band energy:***********;  BLOECHL correction:  0.000000
       DOS:  cpu time    0.0035: real time    0.0035
    CHARGE:  cpu time    0.1403: real time    0.1407
    MIXING:  cpu time    0.0038: real time    0.0038
    --------------------------------------------
      LOOP:  cpu time    6.9818: real time    7.0633

 eigenvalue-minimisations  :  3120
 total energy-change (2. order) : 0.4556941E-03  (-0.6954592E-03)
 number of electron     270.0000033 magnetization      -0.0000000
 augmentation part       17.8849908 magnetization      -0.0000359

 Broyden mixing:
  rms(total) = 0.66004E-02    rms(broyden)= 0.65461E-02
  rms(prec ) = 0.87223E-02
  weight for this iteration     100.00

 eigenvalues of (default mixing * dielectric matrix)
  average eigenvalue GAMMA=   1.4650
  3.8456  3.4365  2.6859  1.6917  1.1901  1.1901  0.9992  0.8338  0.8338  0.7337
  0.5152  0.5152  0.5737

 Free energy of the ion-electron system (eV)
  ---------------------------------------------------
  alpha Z        PSCENC =       144.27357365
  Ewald energy   TEWEN  =     27383.33457375
  -Hartree energ DENC   =    -39489.41275709
  -exchange      EXHF   =         0.00000000
  -V(xc)+E(xc)   XCENC  =      1060.38256091
  PAW double counting   =     29517.33968723   -30015.14643584
  entropy T*S    EENTRO =         0.00000000
  eigenvalues    EBANDS =     -3670.59424945
  atomic energy  EATOM  =     14592.26033195
  Solvation  Ediel_sol  =         0.00000000
  ---------------------------------------------------
  free energy    TOTEN  =      -477.56271490 eV

  energy without entropy =     -477.56271490  energy(sigma->0) =     -477.56271490


--------------------------------------------------------------------------------------------------------




--------------------------------------- Iteration      1(  19)  ---------------------------------------


    POTLOK:  cpu time    0.1118: real time    0.1136
    SETDIJ:  cpu time    0.0096: real time    0.0097
     EDDAV:  cpu time    5.6000: real time    5.6590
 BZINTS: Fermi energy: -2.255814;270.000000 electrons
         Band energy:***********;  BLOECHL correction:  0.000000
       DOS:  cpu time    0.0040: real time    0.0040
    --------------------------------------------
      LOOP:  cpu time    5.7253: real time    5.7864

 eigenvalue-minimisations  :  2296
 total energy-change (2. order) :-0.3695817E-04  (-0.2707580E-04)
 number of electron     270.0000033 magnetization      -0.0000000
 augmentation part       17.8849908 magnetization      -0.0000359

 Free energy of the ion-electron system (eV)
  ---------------------------------------------------
  alpha Z        PSCENC =       144.27357365
  Ewald energy   TEWEN  =     27383.33457375
  -Hartree energ DENC   =    -39489.55624662
  -exchange      EXHF   =         0.00000000
  -V(xc)+E(xc)   XCENC  =      1060.38763748
  PAW double counting   =     29518.15790287   -30015.96511254
  entropy T*S    EENTRO =         0.00000000
  eigenvalues    EBANDS =     -3670.45541239
  atomic energy  EATOM  =     14592.26033195
  Solvation  Ediel_sol  =         0.00000000
  ---------------------------------------------------
  free energy    TOTEN  =      -477.56275185 eV

  energy without entropy =     -477.56275185  energy(sigma->0) =     -477.56275185


--------------------------------------------------------------------------------------------------------




 average (electrostatic) potential at core
  the test charge radii are     0.6991  0.7089  0.9911
  (the norm of the test charge is              1.0000)
       1 -60.5355       2 -60.8850       3 -60.8765       4 -60.5459       5 -60.5628
       6 -60.5653       7 -60.7281       8 -60.5708       9 -60.4740      10 -61.2262
      11 -60.6963      12 -61.1976      13 -60.5267      14 -60.4925      15 -60.2839
      16 -60.5660      17 -60.5487      18 -60.5264      19 -60.8255      20 -60.5288
      21 -60.5713      22 -60.6384      23 -60.6180      24 -60.5943      25 -74.5008
      26 -72.2080      27 -72.1836      28 -72.4278      29 -72.5520      30 -72.2410
      31 -72.2320      32 -74.8012      33 -74.1596      34 -72.6933      35 -73.6757
      36 -72.3233      37 -72.3360      38 -72.7555      39 -73.6235      40 -74.9006
      41 -74.2751      42 -72.3166      43 -72.2352      44 -72.5592      45 -72.5178
      46 -72.2184      47 -72.2297      48 -74.6709      49 -74.3367      50 -72.4961
      51 -72.3654      52 -72.2195      53 -72.1776      54 -72.4598      55 -72.3786
      56 -74.9378      57 -82.2432
 
 
 
 E-fermi :  -2.2558     XC(G=0):  -2.9771     alpha+bet : -2.2508


 spin component 1

 k-point     1 :       0.0000    0.0000    0.0000
  band No.  band energies     occupation 
      1     -27.5743      1.00000
      2     -27.5722      1.00000
      3     -27.5431      1.00000
      4     -27.4963      1.00000
      5     -27.4752      1.00000
      6     -26.3632      1.00000
      7     -26.2442      1.00000
      8     -26.0271      1.00000
      9     -25.9341      1.00000
     10     -25.0917      1.00000
     11     -24.9874      1.00000
     12     -24.9516      1.00000
     13     -24.1068      1.00000
     14     -24.0365      1.00000
     15     -23.9269      1.00000
     16     -23.8561      1.00000
     17     -23.7992      1.00000
     18     -23.6868      1.00000
     19     -23.0270      1.00000
     20     -22.8263      1.00000
     21     -22.8112      1.00000
     22     -22.0810      1.00000
     23     -22.0303      1.00000
     24     -21.8712      1.00000
     25     -21.7704      1.00000
     26     -21.6994      1.00000
     27     -21.6963      1.00000
     28     -21.5919      1.00000
     29     -21.5694      1.00000
     30     -21.2154      1.00000
     31     -21.1353      1.00000
     32     -21.0521      1.00000
     33     -20.7895      1.00000
     34     -20.5935      1.00000
     35     -20.4927      1.00000
     36     -20.3149      1.00000
     37     -20.1207      1.00000
     38     -17.5595      1.00000
     39     -17.4734      1.00000
     40     -17.3430      1.00000
     41     -17.1105      1.00000
     42     -16.9982      1.00000
     43     -16.9603      1.00000
     44     -16.5911      1.00000
     45     -16.3731      1.00000
     46     -15.7963      1.00000
     47     -15.6857      1.00000
     48     -15.5790      1.00000
     49     -15.3002      1.00000
     50     -15.0774      1.00000
     51     -15.0422      1.00000
     52     -14.3966      1.00000
     53     -14.3161      1.00000
     54     -14.0898      1.00000
     55     -13.9028      1.00000
     56     -13.8079      1.00000
     57     -13.7842      1.00000
     58     -13.5935      1.00000
     59     -13.5863      1.00000
     60     -13.5232      1.00000
     61     -13.4412      1.00000
     62     -13.3495      1.00000
     63     -12.5903      1.00000
     64     -12.4274      1.00000
     65     -12.3863      1.00000
     66     -12.2365      1.00000
     67     -12.1499      1.00000
     68     -12.1048      1.00000
     69     -12.0746      1.00000
     70     -12.0191      1.00000
     71     -11.8053      1.00000
     72     -11.7653      1.00000
     73     -11.6759      1.00000
     74     -11.4922      1.00000
     75     -11.4201      1.00000
     76     -11.2412      1.00000
     77     -11.1902      1.00000
     78     -10.8115      1.00000
     79     -10.7059      1.00000
     80     -10.4234      1.00000
     81     -10.3495      1.00000
     82     -10.1313      1.00000
     83     -10.0438      1.00000
     84      -9.7860      1.00000
     85      -9.6234      1.00000
     86      -9.3381      1.00000
     87      -9.2376      1.00000
     88      -9.2147      1.00000
     89      -9.1389      1.00000
     90      -9.0994      1.00000
     91      -8.8028      1.00000
     92      -8.2705      1.00000
     93      -8.2454      1.00000
     94      -8.1587      1.00000
     95      -8.0402      1.00000
     96      -7.9841      1.00000
     97      -7.7862      1.00000
     98      -7.6708      1.00000
     99      -7.5339      1.00000
    100      -7.3600      1.00000
    101      -7.3493      1.00000
    102      -7.3370      1.00000
    103      -7.2384      1.00000
    104      -7.1928      1.00000
    105      -7.1721      1.00000
    106      -7.0691      1.00000
    107      -7.0216      1.00000
    108      -6.9601      1.00000
    109      -6.7671      1.00000
    110      -6.6072      1.00000
    111      -6.5099      1.00000
    112      -6.4247      1.00000
    113      -6.2889      1.00000
    114      -6.2021      1.00000
    115      -5.9020      1.00000
    116      -5.7361      1.00000
    117      -5.6469      1.00000
    118      -5.6346      1.00000
    119      -5.5736      1.00000
    120      -5.4654      1.00000
    121      -5.4069      1.00000
    122      -5.2748      1.00000
    123      -5.1100      1.00000
    124      -5.0652      1.00000
    125      -5.0357      1.00000
    126      -4.9446      1.00000
    127      -4.8348      1.00000
    128      -4.6941      1.00000
    129      -4.5945      1.00000
    130      -4.4966      1.00000
    131      -4.3576      1.00000
    132      -4.3018      1.00000
    133      -4.2314      1.00000
    134      -4.0357      1.00000
    135      -2.3787      1.00000
    136      -2.1231      0.00000
    137      -1.9204      0.00000
    138      -1.6337      0.00000
    139      -1.4408      0.00000
    140      -1.3562      0.00000
    141      -1.2681      0.00000
    142      -1.0272      0.00000
    143      -0.9108      0.00000
    144      -0.7115      0.00000
    145      -0.6402      0.00000
    146      -0.3422      0.00000
    147      -0.1843      0.00000
    148       0.6470      0.00000
    149       0.8229      0.00000
    150       0.9482      0.00000
    151       1.0764      0.00000
    152       1.1356      0.00000
    153       1.2593      0.00000
    154       1.3442      0.00000
    155       1.4397      0.00000
    156       1.6400      0.00000
    157       1.7463      0.00000
    158       1.7574      0.00000
    159       1.8622      0.00000
    160       2.0201      0.00000
    161       2.0415      0.00000
    162       2.1716      0.00000
    163       2.2368      0.00000
    164       2.3032      0.00000
    165       2.4239      0.00000
    166       2.5163      0.00000
    167       2.5943      0.00000
    168       2.6342      0.00000

 k-point     2 :       0.3333    0.0000    0.0000
  band No.  band energies     occupation 
      1     -27.5743      1.00000
      2     -27.5722      1.00000
      3     -27.5432      1.00000
      4     -27.4963      1.00000
      5     -27.4752      1.00000
      6     -26.3410      1.00000
      7     -26.2662      1.00000
      8     -26.0276      1.00000
      9     -25.9527      1.00000
     10     -25.0677      1.00000
     11     -24.9578      1.00000
     12     -24.8445      1.00000
     13     -24.4871      1.00000
     14     -23.9971      1.00000
     15     -23.9319      1.00000
     16     -23.8328      1.00000
     17     -23.7875      1.00000
     18     -23.4166      1.00000
     19     -23.0713      1.00000
     20     -22.8364      1.00000
     21     -22.7418      1.00000
     22     -22.1092      1.00000
     23     -21.9976      1.00000
     24     -21.9324      1.00000
     25     -21.8320      1.00000
     26     -21.8235      1.00000
     27     -21.7422      1.00000
     28     -21.6132      1.00000
     29     -21.5995      1.00000
     30     -21.1475      1.00000
     31     -21.0762      1.00000
     32     -20.9537      1.00000
     33     -20.8282      1.00000
     34     -20.5385      1.00000
     35     -20.4872      1.00000
     36     -20.2636      1.00000
     37     -20.1643      1.00000
     38     -17.4664      1.00000
     39     -17.4385      1.00000
     40     -17.2950      1.00000
     41     -17.2051      1.00000
     42     -17.0701      1.00000
     43     -16.8966      1.00000
     44     -16.8058      1.00000
     45     -16.6105      1.00000
     46     -15.7079      1.00000
     47     -15.6323      1.00000
     48     -15.5096      1.00000
     49     -15.4325      1.00000
     50     -14.7998      1.00000
     51     -14.5786      1.00000
     52     -14.4228      1.00000
     53     -14.2525      1.00000
     54     -14.1295      1.00000
     55     -13.9631      1.00000
     56     -13.8461      1.00000
[...]
   -.145E+02 0.297E+02 0.119E+03   0.119E+02 -.297E+02 -.119E+03   0.263E+01 0.572E-01 0.515E+00   -.632E-01 -.467E-03 -.231E-02
   0.650E+02 -.528E+02 -.819E+02   -.676E+02 0.542E+02 0.821E+02   0.259E+01 -.138E+01 -.220E+00   0.768E-02 -.238E-02 -.390E-02
   -.129E+02 0.502E+02 0.188E+03   0.134E+02 -.528E+02 -.190E+03   -.455E+00 0.270E+01 0.154E+01   0.205E-02 -.230E-01 -.196E-01
   -.606E+02 -.172E+02 0.904E+02   0.631E+02 0.185E+02 -.914E+02   -.263E+01 -.127E+01 0.963E+00   0.236E-03 -.928E-02 -.142E-02
   0.378E+02 -.274E+02 -.325E+02   -.382E+02 0.249E+02 0.317E+02   0.467E+00 0.249E+01 0.814E+00   0.244E-02 -.233E-01 -.700E-02
   0.253E+02 -.138E+02 -.463E+02   -.224E+02 0.156E+02 0.459E+02   -.279E+01 -.175E+01 0.376E+00   0.434E-02 -.562E-02 -.205E-02
   -.887E+01 0.810E-01 -.564E+02   0.571E+01 0.152E+01 0.562E+02   0.307E+01 -.154E+01 0.243E+00   0.385E-02 -.810E-02 -.219E-02
   -.226E+02 0.171E+02 -.679E+02   0.217E+02 -.153E+02 0.689E+02   0.101E+01 -.172E+01 -.110E+01   -.364E-01 0.315E-01 0.220E-01
   -.325E+01 0.207E+02 0.450E+02   0.322E+01 -.236E+02 -.443E+02   0.595E-01 0.295E+01 -.632E+00   -.112E-01 0.300E-02 0.224E-02
   0.302E+02 0.158E+02 -.614E+02   -.290E+02 -.137E+02 0.622E+02   -.118E+01 -.207E+01 -.793E+00   -.199E-01 -.191E-01 -.176E-01
   -.375E+01 -.170E+02 -.133E+02   0.384E+01 0.135E+02 0.139E+02   -.951E-01 0.335E+01 -.635E+00   0.340E-01 -.152E-01 -.711E-03
   0.374E+02 0.279E+02 0.182E+03   -.346E+02 -.265E+02 -.181E+03   -.282E+01 -.143E+01 -.622E+00   0.656E-01 0.848E-03 -.600E-02
   -.137E+02 0.222E+02 0.821E+02   0.107E+02 -.207E+02 -.815E+02   0.294E+01 -.134E+01 -.527E+00   0.627E-01 -.263E-01 -.665E-02
   0.628E+02 -.160E+02 0.622E+02   -.654E+02 0.174E+02 -.627E+02   0.265E+01 -.133E+01 0.489E+00   -.100E-01 0.124E-01 -.224E-02
   0.220E+01 0.714E+02 0.202E+03   -.227E+01 -.739E+02 -.204E+03   0.313E-01 0.264E+01 0.156E+01   -.903E-02 0.437E-02 0.129E-01
   -.621E+02 -.559E+02 -.930E+02   0.647E+02 0.572E+02 0.934E+02   -.258E+01 -.138E+01 -.407E+00   0.352E-03 0.170E-01 -.760E-02
   -.314E+02 -.268E+02 -.134E+03   0.316E+02 0.243E+02 0.133E+03   -.202E+00 0.246E+01 0.889E+00   -.422E-02 0.298E-01 0.684E-02
   0.121E+02 -.140E+01 -.103E+03   -.895E+01 0.290E+01 0.103E+03   -.310E+01 -.147E+01 0.487E+00   0.960E-02 0.223E-01 -.216E-02
   -.280E+02 -.971E+01 -.844E+02   0.251E+02 0.116E+02 0.836E+02   0.280E+01 -.184E+01 0.828E+00   -.184E-01 0.245E-01 -.216E-02
   0.685E+02 -.671E+02 0.130E+03   -.711E+02 0.689E+02 -.131E+03   0.261E+01 -.182E+01 0.924E-01   0.190E-01 -.358E-01 0.901E-03
   -.101E+02 0.414E+02 -.178E+03   0.101E+02 -.445E+02 0.179E+03   -.337E-01 0.315E+01 -.134E+01   0.922E-02 -.209E-02 0.237E-03
   -.798E+02 -.246E+02 -.570E+02   0.825E+02 0.254E+02 0.580E+02   -.286E+01 -.790E+00 -.102E+01   0.260E-01 0.317E-01 0.146E-01
   -.134E+02 0.346E+02 0.159E+03   0.139E+02 -.357E+02 -.162E+03   -.338E+00 0.960E+00 0.255E+01   -.122E+00 -.969E-02 -.208E-02
   -.188E+03 -.321E+02 0.213E+03   0.219E+03 0.487E+02 -.225E+03   -.306E+02 -.166E+02 0.122E+02   -.262E-01 -.330E-01 0.108E-03
   0.152E+03 -.147E+03 -.226E+03   -.182E+03 0.164E+03 0.237E+03   0.303E+02 -.160E+02 -.110E+02   0.131E-01 -.153E-01 -.614E-02
   0.482E+01 0.166E+03 0.375E+03   -.233E+01 -.194E+03 -.398E+03   -.260E+01 0.286E+02 0.223E+02   0.452E-01 -.633E-01 -.443E-01
   -.346E+02 0.135E+03 0.397E+03   0.321E+02 -.161E+03 -.422E+03   0.248E+01 0.266E+02 0.249E+02   -.409E-01 -.499E-01 -.467E-01
   0.187E+03 -.958E+02 -.107E+03   -.217E+03 0.116E+03 0.107E+03   0.294E+02 -.198E+02 -.123E+00   0.432E-01 -.351E-01 0.193E-02
   -.142E+03 -.778E+02 0.241E+03   0.172E+03 0.871E+02 -.261E+03   -.297E+02 -.925E+01 0.195E+02   -.814E-03 -.180E-01 0.530E-02
   -.434E+01 -.168E+01 -.230E+02   0.453E+01 0.165E+01 0.240E+02   -.186E+00 0.737E-02 -.103E+01   0.167E-02 0.152E-02 -.242E-02
   0.148E+02 -.212E+02 -.920E+02   -.151E+02 0.219E+02 0.960E+02   0.212E+00 -.714E+00 -.407E+01   0.605E-02 -.219E-01 -.738E-02
   -.370E+01 -.591E+02 -.289E+03   0.251E+02 0.722E+02 0.312E+03   -.214E+02 -.131E+02 -.229E+02   -.149E-01 -.182E-01 -.209E-01
   0.101E+02 0.639E+02 -.724E+02   -.293E+02 -.598E+02 0.828E+02   0.192E+02 -.416E+01 -.105E+02   -.682E-01 0.260E-01 0.269E-01
   -.154E+02 0.112E+03 0.118E+03   0.183E+02 -.145E+03 -.128E+03   -.290E+01 0.335E+02 0.992E+01   -.232E-01 0.231E-01 0.387E-02
   -.465E+00 0.109E+03 0.131E+03   -.158E+01 -.142E+03 -.142E+03   0.204E+01 0.333E+02 0.100E+02   -.153E-01 -.131E-02 0.445E-02
   0.414E+02 -.579E+02 -.316E+03   -.672E+02 0.715E+02 0.334E+03   0.257E+02 -.137E+02 -.175E+02   -.247E-01 0.349E-01 0.163E-01
   -.368E+01 0.730E+02 -.102E+03   0.213E+02 -.695E+02 0.117E+03   -.175E+02 -.357E+01 -.142E+02   -.555E-01 -.254E-01 -.294E-01
   0.468E+02 0.173E+02 0.715E+02   -.509E+02 -.202E+02 -.711E+02   0.420E+01 0.292E+01 -.418E+00   -.848E-02 -.425E-01 -.167E-01
   0.137E+02 0.373E+02 0.141E+03   -.157E+02 -.388E+02 -.146E+03   0.192E+01 0.164E+01 0.420E+01   0.125E+00 -.282E-01 -.113E-01
   -.185E+03 -.101E+03 -.116E+03   0.215E+03 0.120E+03 0.117E+03   -.299E+02 -.191E+02 -.806E+00   -.623E-04 0.100E-01 -.155E-01
   0.146E+03 -.664E+02 0.187E+03   -.176E+03 0.752E+02 -.204E+03   0.308E+02 -.889E+01 0.167E+02   0.362E-03 0.229E-01 -.669E-03
   0.971E+01 0.156E+03 0.410E+03   -.482E+01 -.183E+03 -.433E+03   -.481E+01 0.275E+02 0.230E+02   -.403E-01 0.393E-01 0.451E-01
   0.266E+01 0.228E+03 0.341E+03   -.429E+01 -.261E+03 -.352E+03   0.160E+01 0.338E+02 0.108E+02   0.185E-01 0.568E-01 0.284E-01
   0.190E+03 -.335E+02 0.129E+03   -.221E+03 0.512E+02 -.135E+03   0.312E+02 -.177E+02 0.585E+01   -.190E-01 0.219E-01 -.198E-02
   -.138E+03 -.152E+03 -.277E+03   0.167E+03 0.168E+03 0.292E+03   -.289E+02 -.158E+02 -.142E+02   -.140E-01 0.219E-01 -.103E-01
   0.759E+00 -.310E+02 -.120E+02   -.650E+00 0.322E+02 0.974E+01   -.136E+00 -.120E+01 0.229E+01   0.733E-03 0.130E-01 -.979E-03
   -.142E+02 -.242E+02 -.179E+03   0.141E+02 0.261E+02 0.185E+03   0.132E+00 -.197E+01 -.544E+01   -.584E-02 0.326E-01 0.369E-04
   -.217E+03 -.634E+02 -.880E+02   0.247E+03 0.817E+02 0.888E+02   -.303E+02 -.184E+02 -.812E+00   0.188E-01 0.485E-01 0.145E-01
   0.172E+03 -.142E+03 0.290E+03   -.203E+03 0.158E+03 -.297E+03   0.309E+02 -.158E+02 0.687E+01   0.859E-01 -.463E-01 0.227E-02
   -.261E+00 0.144E+03 -.365E+03   0.483E+01 -.172E+03 0.388E+03   -.458E+01 0.282E+02 -.227E+02   0.135E-01 -.140E-02 -.949E-02
   -.334E+02 0.111E+03 -.410E+03   0.318E+02 -.137E+03 0.436E+03   0.155E+01 0.262E+02 -.260E+02   0.153E-01 0.181E-01 -.220E-02
   0.181E+03 -.123E+03 0.224E+03   -.205E+03 0.146E+03 -.237E+03   0.240E+02 -.227E+02 0.125E+02   0.288E-01 -.368E-01 0.611E-02
   -.163E+03 -.709E+02 -.176E+03   0.195E+03 0.796E+02 0.191E+03   -.319E+02 -.885E+01 -.142E+02   0.865E-01 0.389E-02 0.184E-01
   -.439E+02 0.200E+02 0.423E+02   0.469E+02 -.223E+02 -.445E+02   -.296E+01 0.221E+01 0.219E+01   -.553E-02 0.321E-01 0.177E-01
   0.442E+02 -.110E+03 -.944E+03   -.452E+02 0.126E+03 0.963E+03   0.113E+01 -.159E+02 -.189E+02   -.158E+00 0.547E-04 -.903E-02
 -----------------------------------------------------------------------------------------------
   0.292E+01 -.441E+01 -.730E+00   -.711E-13 -.142E-13 0.682E-12   -.277E+01 0.447E+01 0.805E+00   -.162E+00 -.486E-01 -.727E-01
 
 
 POSITION                                       TOTAL-FORCE (eV/Angst)
 -----------------------------------------------------------------------------------
     -0.01495      2.47699      6.39696        -0.017571      0.032053      0.039085
      1.22061      4.60761      6.49737         0.022789      0.128664      0.057030
     -1.27489      4.56206      6.40931        -0.052726      0.098017      0.040216
      5.75068      0.66128      7.58541        -0.018800     -0.019308      0.007111
      3.48805      4.60636      6.18788         0.039461      0.038750      0.018976
      1.18590      0.59543      6.73022        -0.000373      0.040131     -0.014029
     -3.59341      8.30755      7.25852         0.001994      0.034924      0.004002
     -2.22453     10.35523      7.51802         0.041629     -0.010689      0.003685
     -4.68285     10.45070      7.47188        -0.021948      0.012753     -0.019704
      2.40585      6.32670      7.52856         0.041288      0.057397      0.001658
      0.03941     10.26764      7.33455         0.018534     -0.023854     -0.003462
     -2.54918      6.32344      7.21007        -0.058201      0.023430     -0.030225
      6.98656      2.48965      7.09057         0.035803     -0.081427      0.033697
      8.10388      4.40859      5.99824        -0.037695      0.003782      0.007299
      5.72032      4.49526      6.53192         0.045219      0.069425      0.063928
     12.64413      0.43243      6.91050        -0.008931      0.033890     -0.012091
     10.34732      4.34110      5.90820        -0.040252      0.059744      0.021036
      8.16753      0.64819      7.68048         0.045352     -0.041952      0.036075
      3.56657      8.20047      7.96873         0.003849      0.092308     -0.010273
      4.72355     10.34312      7.84320         0.005432      0.020397     -0.005666
      2.25927     10.32151      7.81991         0.012840     -0.016864      0.003187
      9.09379      6.40348      6.30764         0.025805     -0.015286      0.011240
      6.97018     10.36374      8.01997        -0.008098      0.015420     -0.001785
      4.76183      6.36829      7.34790        -0.039266      0.101536      0.017121
     -0.01435      3.89139      6.37543         0.019120     -0.114037      0.029574
      1.16637      1.85116      6.31428         0.021256     -0.039628      0.002953
      4.64257     -0.04301      7.83236         0.013108      0.030439      0.004547
      4.64479      4.02457      5.88579        -0.060458      0.000872     -0.002190
      2.27509      4.15324      5.84629        -0.013099      0.006677     -0.027935
      5.77672      1.97050      7.39728        -0.002962      0.005397     -0.012614
     -4.64277     11.52713      6.69985         0.007404     -0.019362     -0.000110
      0.01683      0.02139      7.24263         0.010026     -0.024388      0.020726
     -3.47178      9.68532      7.50389        -0.009586     -0.039302     -0.011854
     -2.61124      7.52097      7.76682         0.003162      0.004856      0.005083
      1.22005      5.68059      7.37326        -0.036084     -0.128261     -0.083649
      1.21120      9.62023      7.34585        -0.020652     -0.003855     -0.020797
     -1.12951      9.63562      7.19061        -0.025135      0.009788     -0.008086
      2.42268      7.48367      8.17251        -0.046843     -0.054780      0.016372
     -1.38554      5.62930      7.27674         0.057054     -0.108711     -0.046622
     10.24991      5.61177      6.53982         0.048385     -0.018943     -0.018629
      6.95338      3.73392      6.43977         0.009123      0.061486     -0.028886
      8.17718      1.95234      7.42857        -0.032447      0.060557     -0.028302
      4.62494     11.37631      7.01774        -0.005554     -0.014217      0.008757
     -2.25756      4.06900      5.68204         0.048558      0.002710     -0.030376
      9.21137      3.70294      5.69293        -0.003746      0.024220      0.024642
     12.63146      1.69375      6.52696        -0.009956     -0.029404     -0.000452
      9.22312     -0.06625      8.09221        -0.025804      0.045753     -0.010159
      6.96196     -0.05088      7.47464        -0.025574      0.011654     -0.014363
      3.49083      9.60616      8.01299        -0.005578     -0.044792     -0.017515
      4.74286      7.65450      7.68697         0.026067     -0.069946     -0.009749
      8.01229      5.76687      5.93620        -0.011437     -0.051631     -0.004683
     -5.68485      9.97292      8.23016         0.002553     -0.010081      0.002720
      5.80678      9.89078      8.49075         0.015706     -0.006222      0.005635
     -4.62910      7.91992      6.51832         0.009459     -0.004394     -0.003434
      5.84044      5.61826      7.25731         0.026443     -0.114369     -0.049101
      3.52672      5.77216      7.00742        -0.034820     -0.060499     -0.014294
     -0.13394      6.87917      8.36692         0.016176      0.039172      0.054682
 -----------------------------------------------------------------------------------
    total drift:                               -0.005289      0.002953      0.002350


--------------------------------------------------------------------------------------------------------



  FREE ENERGIE OF THE ION-ELECTRON SYSTEM (eV)
  ---------------------------------------------------
  free  energy   TOTEN  =      -481.62959457 eV

  energy  without entropy=     -481.62959457  energy(sigma->0) =     -481.62959457
 


--------------------------------------------------------------------------------------------------------


    POTLOK:  cpu time    0.1249: real time    0.1260


--------------------------------------------------------------------------------------------------------


 stress matrix after NEB project (eV)
     -3.10607     -0.21057      0.08718
     -0.21057     -4.41480     -0.14960
      0.08718     -0.14960     -7.32353
  FORCES: max atom, RMS     0.157322    0.066210
  FORCE total and by dimension    0.499872    0.128664
  Stress total and by dimension    9.106089    7.323530
     LOOP+:  cpu time  167.6395: real time  170.1758
    4ORBIT:  cpu time    0.0000: real time    0.0000
 


 total charge     
 
# of ion       s       p       d       tot
------------------------------------------
    1        0.849   1.729   0.000   2.579
    2        0.836   1.717   0.000   2.554
    3        0.839   1.721   0.000   2.560
    4        0.862   1.738   0.000   2.600
    5        0.852   1.736   0.000   2.589
    6        0.865   1.748   0.000   2.613
    7        0.850   1.723   0.000   2.573
    8        0.849   1.717   0.000   2.566
    9        0.854   1.720   0.000   2.574
   10        0.865   1.768   0.000   2.633
   11        0.862   1.741   0.000   2.604
   12        0.869   1.777   0.000   2.647
   13        0.848   1.717   0.000   2.565
   14        0.844   1.720   0.000   2.564
   15        0.842   1.725   0.000   2.567
   16        0.866   1.753   0.000   2.619
   17        0.854   1.743   0.000   2.598
   18        0.859   1.735   0.000   2.594
   19        0.848   1.721   0.000   2.569
   20        0.851   1.717   0.000   2.568
   21        0.846   1.711   0.000   2.556
   22        0.860   1.738   0.000   2.598
   23        0.860   1.726   0.000   2.586
   24        0.863   1.756   0.000   2.618
   25        1.205   2.723   0.000   3.928
   26        1.271   2.656   0.000   3.928
   27        1.268   2.653   0.000   3.921
   28        1.272   2.625   0.000   3.896
   29        1.269   2.646   0.000   3.915
   30        1.267   2.649   0.000   3.916
   31        1.277   2.649   0.000   3.926
   32        1.232   2.755   0.000   3.986
   33        1.214   2.738   0.000   3.952
   34        1.265   2.663   0.000   3.928
   35        1.242   2.668   0.000   3.910
   36        1.265   2.647   0.000   3.912
   37        1.264   2.647   0.000   3.911
   38        1.262   2.655   0.000   3.917
   39        1.243   2.673   0.000   3.916
   40        1.230   2.771   0.000   4.001
   41        1.212   2.722   0.000   3.934
   42        1.266   2.639   0.000   3.905
   43        1.274   2.656   0.000   3.931
   44        1.269   2.647   0.000   3.916
   45        1.270   2.629   0.000   3.899
   46        1.271   2.662   0.000   3.933
   47        1.268   2.645   0.000   3.913
   48        1.228   2.758   0.000   3.986
   49        1.212   2.706   0.000   3.918
   50        1.270   2.659   0.000   3.929
   51        1.268   2.648   0.000   3.915
   52        1.270   2.631   0.000   3.901
   53        1.270   2.635   0.000   3.905
   54        1.266   2.641   0.000   3.907
   55        1.276   2.644   0.000   3.920
   56        1.229   2.767   0.000   3.996
   57        1.341   0.727  10.048  12.116
--------------------------------------------------
tot         62.002 127.831  10.048 199.882
 


 magnetization (x)
 
# of ion       s       p       d       tot
------------------------------------------
    1       -0.000  -0.000   0.000  -0.000
    2        0.000   0.001   0.000   0.001
    3       -0.000  -0.001   0.000  -0.001
    4       -0.000  -0.000   0.000  -0.000
    5        0.000   0.001   0.000   0.001
    6       -0.000  -0.000   0.000  -0.000
    7       -0.000  -0.000   0.000  -0.000
    8       -0.000  -0.000   0.000  -0.000
    9       -0.000  -0.000   0.000  -0.000
   10       -0.000  -0.000   0.000  -0.000
   11        0.000   0.000   0.000   0.000
   12        0.000   0.000   0.000   0.000
   13       -0.000  -0.000   0.000  -0.000
   14       -0.000  -0.001   0.000  -0.001
   15        0.000   0.001   0.000   0.001
   16        0.000   0.000   0.000   0.000
   17       -0.000  -0.001   0.000  -0.001
   18       -0.000  -0.000   0.000  -0.000
   19        0.000   0.000   0.000   0.000
   20        0.000   0.000   0.000   0.000
   21        0.000   0.000   0.000   0.000
   22       -0.000  -0.000   0.000  -0.000
   23        0.000   0.000   0.000   0.000
   24        0.000   0.000   0.000   0.000
   25        0.000   0.000   0.000   0.000
   26        0.000   0.000   0.000   0.000
   27        0.000  -0.000   0.000  -0.000
   28       -0.000  -0.000   0.000  -0.000
   29       -0.000  -0.000   0.000  -0.000
   30       -0.000  -0.000   0.000  -0.000
   31        0.000  -0.000   0.000  -0.000
   32       -0.000  -0.000   0.000  -0.000
   33        0.000   0.000   0.000   0.000
   34       -0.000  -0.000   0.000  -0.000
   35        0.000   0.000   0.000   0.000
   36        0.000  -0.000   0.000  -0.000
   37       -0.000  -0.000   0.000  -0.000
   38        0.000   0.000   0.000   0.000
   39        0.000  -0.000   0.000  -0.000
   40       -0.000  -0.000   0.000  -0.000
   41        0.000   0.000   0.000   0.000
   42        0.000  -0.000   0.000   0.000
   43        0.000   0.000   0.000   0.000
   44        0.000   0.000   0.000   0.000
   45       -0.000   0.000   0.000   0.000
   46        0.000   0.000   0.000   0.000
   47        0.000   0.000   0.000   0.000
   48       -0.000  -0.000   0.000  -0.000
   49       -0.000   0.000   0.000  -0.000
   50        0.000  -0.000   0.000  -0.000
   51       -0.000  -0.000   0.000  -0.000
   52       -0.000  -0.000   0.000  -0.000
   53        0.000   0.000   0.000   0.000
   54        0.000   0.000   0.000   0.000
   55        0.000   0.000   0.000   0.000
   56        0.000   0.000   0.000   0.000
   57        0.000   0.000   0.000   0.000
--------------------------------------------------
tot         -0.000  -0.000   0.000  -0.000
 
 BZINTS: Fermi energy: -2.255814;270.000000 electrons
         Band energy:***********;  BLOECHL correction:  0.000000

 total amount of memory used by VASP MPI-rank0    83826. kBytes
=======================================================================

   base      :      30000. kBytes
   nonl-proj :      12951. kBytes
   fftplans  :       3349. kBytes
   grid      :       8691. kBytes
   one-center:        155. kBytes
   wavefun   :      28680. kBytes
 
  
  
 General timing and accounting informations for this job:
 ========================================================
  
                  Total CPU time used (sec):      180.649
                            User time (sec):      173.889
                          System time (sec):        6.760
                         Elapsed time (sec):      191.025
  
                   Maximum memory used (kb):      445972.
                   Average memory used (kb):           0.
  
                          Minor page faults:       915963
                          Major page faults:            0
                 Voluntary context switches:         8134
