 running on   48 total cores
 distrk:  each k-point on   48 cores,    1 groups
 distr:  one band on   12 cores,    4 groups
 using from now: INCAR     
 vasp.5.4.4.18Apr17-6-g9f103f2a35 (build Jan 14 2022 15:04:31) complex          
  
 POSCAR found type information on POSCAR  C  N  C  Cr
 POSCAR found :  4 types and      71 ions
 scaLAPACK will be used
 LDA part: xc-table for Pade appr. of Perdew
 POSCAR found type information on POSCAR  C  N  C  Cr
 POSCAR found :  4 types and      71 ions


 VERY BAD NEWS! internal error in subroutine IBZKPT:
 Reciprocal lattice and k-lattice belong to different class of lattices. Often results are still useful...      96


 VERY BAD NEWS! internal error in subroutine IBZKPT:
 Reciprocal lattice and k-lattice belong to different class of lattices. Often results are still useful...      96


 VERY BAD NEWS! internal error in subroutine IBZKPT:
 Reciprocal lattice and k-lattice belong to different class of lattices. Often results are still useful...      96


 VERY BAD NEWS! internal error in subroutine IBZKPT:
 Reciprocal lattice and k-lattice belong to different class of lattices. Often results are still useful...      96


 VERY BAD NEWS! internal error in subroutine IBZKPT:
 Reciprocal lattice and k-lattice belong to different class of lattices. Often results are still useful...      96


 VERY BAD NEWS! internal error in subroutine IBZKPT:
 Reciprocal lattice and k-lattice belong to different class of lattices. Often results are still useful...      96


 VERY BAD NEWS! internal error in subroutine IBZKPT:
 Reciprocal lattice and k-lattice belong to different class of lattices. Often results are still useful...      96


 VERY BAD NEWS! internal error in subroutine IBZKPT:
 Reciprocal lattice and k-lattice belong to different class of lattices. Often results are still useful...      96


 VERY BAD NEWS! internal error in subroutine IBZKPT:
 Reciprocal lattice and k-lattice belong to different class of lattices. Often results are still useful...      96


 VERY BAD NEWS! internal error in subroutine IBZKPT:
 Reciprocal lattice and k-lattice belong to different class of lattices. Often results are still useful...      96


 VERY BAD NEWS! internal error in subroutine IBZKPT:
 Reciprocal lattice and k-lattice belong to different class of lattices. Often results are still useful...      96


 VERY BAD NEWS! internal error in subroutine IBZKPT:
 Reciprocal lattice and k-lattice belong to different class of lattices. Often results are still useful...      96


 VERY BAD NEWS! internal error in subroutine IBZKPT:
 Reciprocal lattice and k-lattice belong to different class of lattices. Often results are still useful...      96


 VERY BAD NEWS! internal error in subroutine IBZKPT:
 Reciprocal lattice and k-lattice belong to different class of lattices. Often results are still useful...      96


 VERY BAD NEWS! internal error in subroutine IBZKPT:
 Reciprocal lattice and k-lattice belong to different class of lattices. Often results are still useful...      96


 VERY BAD NEWS! internal error in subroutine IBZKPT:
 Reciprocal lattice and k-lattice belong to different class of lattices. Often results are still useful...      96


 VERY BAD NEWS! internal error in subroutine IBZKPT:
 Reciprocal lattice and k-lattice belong to different class of lattices. Often results are still useful...      96


 VERY BAD NEWS! internal error in subroutine IBZKPT:
 Reciprocal lattice and k-lattice belong to different class of lattices. Often results are still useful...      96


 VERY BAD NEWS! internal error in subroutine IBZKPT:
 Reciprocal lattice and k-lattice belong to different class of lattices. Often results are still useful...      96


 VERY BAD NEWS! internal error in subroutine IBZKPT:
 Reciprocal lattice and k-lattice belong to different class of lattices. Often results are still useful...      96


 VERY BAD NEWS! internal error in subroutine IBZKPT:
 Reciprocal lattice and k-lattice belong to different class of lattices. Often results are still useful...      96


 VERY BAD NEWS! internal error in subroutine IBZKPT:
 Reciprocal lattice and k-lattice belong to different class of lattices. Often results are still useful...      96


 VERY BAD NEWS! internal error in subroutine IBZKPT:
 Reciprocal lattice and k-lattice belong to different class of lattices. Often results are still useful...      96


 VERY BAD NEWS! internal error in subroutine IBZKPT:
 Reciprocal lattice and k-lattice belong to different class of lattices. Often results are still useful...      96


 VERY BAD NEWS! internal error in subroutine IBZKPT:
 Reciprocal lattice and k-lattice belong to different class of lattices. Often results are still useful...      96


 VERY BAD NEWS! internal error in subroutine IBZKPT:
 Reciprocal lattice and k-lattice belong to different class of lattices. Often results are still useful...      96


 VERY BAD NEWS! internal error in subroutine IBZKPT:
 Reciprocal lattice and k-lattice belong to different class of lattices. Often results are still useful...      96


 VERY BAD NEWS! internal error in subroutine IBZKPT:
 Reciprocal lattice and k-lattice belong to different class of lattices. Often results are still useful...      96


 VERY BAD NEWS! internal error in subroutine IBZKPT:
 Reciprocal lattice and k-lattice belong to different class of lattices. Often results are still useful...      96


 VERY BAD NEWS! internal error in subroutine IBZKPT:
 Reciprocal lattice and k-lattice belong to different class of lattices. Often results are still useful...      96


 VERY BAD NEWS! internal error in subroutine IBZKPT:
 Reciprocal lattice and k-lattice belong to different class of lattices. Often results are still useful...      96


 VERY BAD NEWS! internal error in subroutine IBZKPT:
 Reciprocal lattice and k-lattice belong to different class of lattices. Often results are still useful...      96


 VERY BAD NEWS! internal error in subroutine IBZKPT:
 Reciprocal lattice and k-lattice belong to different class of lattices. Often results are still useful...      96


 VERY BAD NEWS! internal error in subroutine IBZKPT:
 Reciprocal lattice and k-lattice belong to different class of lattices. Often results are still useful...      96


 VERY BAD NEWS! internal error in subroutine IBZKPT:
 Reciprocal lattice and k-lattice belong to different class of lattices. Often results are still useful...      96


 VERY BAD NEWS! internal error in subroutine IBZKPT:
 Reciprocal lattice and k-lattice belong to different class of lattices. Often results are still useful...      96


 VERY BAD NEWS! internal error in subroutine IBZKPT:
 Reciprocal lattice and k-lattice belong to different class of lattices. Often results are still useful...      96


 VERY BAD NEWS! internal error in subroutine IBZKPT:
 Reciprocal lattice and k-lattice belong to different class of lattices. Often results are still useful...      96


 VERY BAD NEWS! internal error in subroutine IBZKPT:
 Reciprocal lattice and k-lattice belong to different class of lattices. Often results are still useful...      96


 VERY BAD NEWS! internal error in subroutine IBZKPT:
 Reciprocal lattice and k-lattice belong to different class of lattices. Often results are still useful...      96


 VERY BAD NEWS! internal error in subroutine IBZKPT:
 Reciprocal lattice and k-lattice belong to different class of lattices. Often results are still useful...      96


 VERY BAD NEWS! internal error in subroutine IBZKPT:
 Reciprocal lattice and k-lattice belong to different class of lattices. Often results are still useful...      96


 VERY BAD NEWS! internal error in subroutine IBZKPT:
 Reciprocal lattice and k-lattice belong to different class of lattices. Often results are still useful...      96


 VERY BAD NEWS! internal error in subroutine IBZKPT:
 Reciprocal lattice and k-lattice belong to different class of lattices. Often results are still useful...      96


 VERY BAD NEWS! internal error in subroutine IBZKPT:
 Reciprocal lattice and k-lattice belong to different class of lattices. Often results are still useful...      96


 VERY BAD NEWS! internal error in subroutine IBZKPT:
 Reciprocal lattice and k-lattice belong to different class of lattices. Often results are still useful...      96


 VERY BAD NEWS! internal error in subroutine IBZKPT:
 Reciprocal lattice and k-lattice belong to different class of lattices. Often results are still useful...      96


 VERY BAD NEWS! internal error in subroutine IBZKPT:
 Reciprocal lattice and k-lattice belong to different class of lattices. Often results are still useful...      96
 POSCAR, INCAR and KPOINTS ok, starting setup
 FFT: planning ...
 WAVECAR not read
 entering main loop
       N       E                     dE             d eps       ncg     rms          rms(c)
DAV:   1     0.246815001462E+04    0.24682E+04   -0.10819E+05  3368   0.107E+03
DAV:   2    -0.229752625310E+03   -0.26979E+04   -0.25778E+04  4232   0.280E+02
DAV:   3    -0.687317776951E+03   -0.45757E+03   -0.45468E+03  3576   0.121E+02
DAV:   4    -0.704029313885E+03   -0.16712E+02   -0.16560E+02  3568   0.284E+01
DAV:   5    -0.704572695935E+03   -0.54338E+00   -0.54141E+00  4064   0.433E+00    0.469E+01
RMM:   6    -0.730894994212E+03   -0.26322E+02   -0.52289E+02  4127   0.393E+01    0.831E+01
RMM:   7    -0.662326360226E+03    0.68569E+02   -0.59456E+01  3067   0.138E+01    0.319E+01
RMM:   8    -0.662493716703E+03   -0.16736E+00   -0.23082E+01  3126   0.710E+00    0.284E+01
RMM:   9    -0.647345090671E+03    0.15149E+02   -0.20481E+01  2966   0.846E+00    0.116E+01
RMM:  10    -0.647849429511E+03   -0.50434E+00   -0.33792E+00  3008   0.314E+00    0.147E+01
RMM:  11    -0.646734316566E+03    0.11151E+01   -0.43904E-01  3113   0.108E+00    0.769E+00
RMM:  12    -0.646620828553E+03    0.11349E+00   -0.15862E-01  2944   0.939E-01    0.634E+00
RMM:  13    -0.646700559429E+03   -0.79731E-01   -0.25713E-02  2988   0.355E-01    0.722E+00
RMM:  14    -0.646520543975E+03    0.18002E+00   -0.26223E-02  2968   0.405E-01    0.733E+00
RMM:  15    -0.646520891490E+03   -0.34752E-03   -0.39304E-03  3162   0.838E-02    0.647E+00
RMM:  16    -0.646574851854E+03   -0.53960E-01   -0.15687E-02  2944   0.247E-01    0.649E+00
RMM:  17    -0.646576190861E+03   -0.13390E-02   -0.61461E-02  2955   0.367E-01    0.429E+00
RMM:  18    -0.646644236912E+03   -0.68046E-01   -0.80495E-02  2964   0.381E-01    0.379E+00
RMM:  19    -0.646611348479E+03    0.32888E-01   -0.26869E-02  3150   0.184E-01    0.320E+00
RMM:  20    -0.646623487756E+03   -0.12139E-01   -0.48072E-03  3231   0.966E-02    0.321E+00
RMM:  21    -0.646565814400E+03    0.57673E-01   -0.20146E-02  2984   0.203E-01    0.288E+00
RMM:  22    -0.646508882878E+03    0.56932E-01   -0.28222E-02  2992   0.238E-01    0.230E+00
RMM:  23    -0.646545736125E+03   -0.36853E-01   -0.75691E-03  2999   0.236E-01    0.253E+00
RMM:  24    -0.646552653263E+03   -0.69171E-02   -0.15816E-02  2980   0.201E-01    0.175E+00
RMM:  25    -0.646593134804E+03   -0.40482E-01   -0.56936E-03  2945   0.223E-01    0.306E+00
RMM:  26    -0.646584235226E+03    0.88996E-02   -0.30760E-03  2956   0.174E-01    0.341E+00
RMM:  27    -0.646581394780E+03    0.28404E-02   -0.71124E-04  2910   0.651E-02    0.361E+00
RMM:  28    -0.646581805021E+03   -0.41024E-03   -0.54367E-04  2556   0.367E-02    0.375E+00
RMM:  29    -0.646578047551E+03    0.37575E-02   -0.16921E-02  2954   0.211E-01    0.404E+00
RMM:  30    -0.646536193990E+03    0.41854E-01   -0.31049E-02  2990   0.219E-01    0.386E+00
RMM:  31    -0.646523118777E+03    0.13075E-01   -0.71432E-03  3185   0.975E-02    0.273E+00
RMM:  32    -0.646544553441E+03   -0.21435E-01   -0.24381E-03  2950   0.108E-01    0.186E+00
RMM:  33    -0.646568878474E+03   -0.24325E-01   -0.20288E-03  2969   0.125E-01    0.167E+00
RMM:  34    -0.646622239544E+03   -0.53361E-01   -0.11496E-02  2970   0.197E-01    0.354E+00
RMM:  35    -0.646621134950E+03    0.11046E-02   -0.11607E-02  3003   0.217E-01    0.433E+00
RMM:  36    -0.646537810507E+03    0.83324E-01   -0.12451E-02  2970   0.203E-01    0.271E+00
RMM:  37    -0.646588135346E+03   -0.50325E-01   -0.72303E-03  2990   0.152E-01    0.205E+00
RMM:  38    -0.646597041461E+03   -0.89061E-02   -0.18302E-03  2946   0.767E-02    0.181E+00
RMM:  39    -0.646612877884E+03   -0.15836E-01   -0.46138E-03  2962   0.111E-01    0.179E+00
RMM:  40    -0.646629938557E+03   -0.17061E-01   -0.44438E-03  2973   0.895E-02    0.214E+00
RMM:  41    -0.646634659005E+03   -0.47204E-02   -0.16011E-03  2910   0.596E-02    0.231E+00
RMM:  42    -0.646634930752E+03   -0.27175E-03   -0.35162E-04  2423   0.396E-02    0.238E+00
RMM:  43    -0.646671705229E+03   -0.36774E-01   -0.75306E-03  2947   0.152E-01    0.223E+00
RMM:  44    -0.646686125658E+03   -0.14420E-01   -0.44299E-03  2968   0.946E-02    0.218E+00
RMM:  45    -0.646681763937E+03    0.43617E-02   -0.94503E-04  2960   0.491E-02    0.202E+00
RMM:  46    -0.646681241618E+03    0.52232E-03   -0.23042E-04  2290   0.204E-02    0.197E+00
RMM:  47    -0.646681406710E+03   -0.16509E-03   -0.17371E-04  2149   0.197E-02    0.192E+00
RMM:  48    -0.646681159447E+03    0.24726E-03   -0.10010E-04  2124   0.151E-02    0.191E+00
RMM:  49    -0.646678587145E+03    0.25723E-02   -0.37870E-04  2631   0.298E-02    0.186E+00
RMM:  50    -0.646674400899E+03    0.41862E-02   -0.15272E-03  2935   0.603E-02
   1 F= -.65307483E+03 E0= -.65305547E+03  d E =-.653075E+03  mag=    -0.1652
 curvature:   0.00 expect dE= 0.000E+00 dE for cont linesearch  0.000E+00
 trial: gam= 0.00000 g(F)=  0.252E-01 g(S)=  0.000E+00 ort = 0.000E+00 (trialstep = 0.100E+01)
 search vector abs. value=  0.252E-01
 bond charge predicted
       N       E                     dE             d eps       ncg     rms          rms(c)
DAV:   1    -0.646681849749E+03   -0.32626E-02   -0.19539E+00  3168   0.366E+00    0.247E+00
RMM:   2    -0.646785681218E+03   -0.10383E+00   -0.27789E-01  2984   0.968E-01    0.340E+00
RMM:   3    -0.646827829176E+03   -0.42148E-01   -0.20539E-01  3114   0.651E-01    0.421E+00
RMM:   4    -0.646726395160E+03    0.10143E+00   -0.69057E-02  3084   0.349E-01    0.279E+00
RMM:   5    -0.646730760209E+03   -0.43650E-02   -0.81130E-03  3171   0.113E-01    0.298E+00
RMM:   6    -0.646670633766E+03    0.60126E-01   -0.50401E-02  3001   0.285E-01    0.296E+00
RMM:   7    -0.646670240233E+03    0.39353E-03   -0.94760E-03  3279   0.101E-01    0.322E+00
RMM:   8    -0.646623360441E+03    0.46880E-01   -0.12969E-02  2965   0.181E-01    0.298E+00
RMM:   9    -0.646598466536E+03    0.24894E-01   -0.89307E-02  2969   0.413E-01    0.234E+00
RMM:  10    -0.646436244868E+03    0.16222E+00   -0.26013E-01  2973   0.662E-01    0.248E+00
RMM:  11    -0.646605070913E+03   -0.16883E+00   -0.36621E-02  3137   0.265E-01    0.232E+00
RMM:  12    -0.646605227961E+03   -0.15705E-03   -0.65077E-03  3337   0.606E-02    0.235E+00
RMM:  13    -0.646683926816E+03   -0.78699E-01   -0.68911E-02  2951   0.291E-01    0.213E+00
RMM:  14    -0.646763970034E+03   -0.80043E-01   -0.27682E-01  2987   0.612E-01    0.238E+00
RMM:  15    -0.646794322409E+03   -0.30352E-01   -0.66403E-02  3165   0.256E-01    0.274E+00
RMM:  16    -0.646791143383E+03    0.31790E-02   -0.10255E-02  3292   0.125E-01    0.295E+00
RMM:  17    -0.646607339914E+03    0.18380E+00   -0.10812E-01  2967   0.463E-01    0.230E+00
RMM:  18    -0.646457587352E+03    0.14975E+00   -0.27414E-01  3002   0.683E-01    0.249E+00
RMM:  19    -0.645862484724E+03    0.59510E+00   -0.40419E-01  3052   0.817E-01    0.341E+00
RMM:  20    -0.645875323521E+03   -0.12839E-01   -0.43327E-02  3581   0.197E-01    0.343E+00
RMM:  21    -0.646000909512E+03   -0.12559E+00   -0.68117E-03  2981   0.116E-01    0.320E+00
RMM:  22    -0.645911078130E+03    0.89831E-01   -0.65623E-03  2997   0.113E-01    0.321E+00
RMM:  23    -0.646059219041E+03   -0.14814E+00   -0.88000E-03  2975   0.131E-01    0.300E+00
RMM:  24    -0.646079405968E+03   -0.20187E-01   -0.11034E-03  3001   0.490E-02    0.303E+00
RMM:  25    -0.645989283435E+03    0.90123E-01   -0.49798E-03  2942   0.102E-01    0.311E+00
RMM:  26    -0.646011195098E+03   -0.21912E-01   -0.27920E-04  2219   0.221E-02    0.309E+00
RMM:  27    -0.646044373875E+03   -0.33179E-01   -0.67653E-04  2708   0.393E-02    0.307E+00
RMM:  28    -0.646099623714E+03   -0.55250E-01   -0.21253E-03  2767   0.611E-02    0.301E+00
RMM:  29    -0.645978115555E+03    0.12151E+00   -0.69364E-03  2933   0.113E-01    0.315E+00
RMM:  30    -0.646290576787E+03   -0.31246E+00   -0.54853E-02  2972   0.309E-01    0.282E+00
RMM:  31    -0.646625544360E+03   -0.33497E+00   -0.17082E-01  3024   0.491E-01    0.256E+00
RMM:  32    -0.646642318578E+03   -0.16774E-01   -0.23690E-02  3297   0.138E-01    0.255E+00
RMM:  33    -0.646675091613E+03   -0.32773E-01   -0.10929E-02  3105   0.113E-01    0.245E+00
RMM:  34    -0.646640437512E+03    0.34654E-01   -0.47950E-03  2969   0.783E-02    0.259E+00
RMM:  35    -0.646694154474E+03   -0.53717E-01   -0.10888E-02  3038   0.134E-01    0.253E+00
RMM:  36    -0.646828090358E+03   -0.13394E+00   -0.19552E-01  3031   0.417E-01    0.243E+00
RMM:  37    -0.646819318878E+03    0.87715E-02   -0.24273E-02  3420   0.113E-01    0.237E+00
RMM:  38    -0.646797016208E+03    0.22303E-01   -0.47022E-03  2581   0.601E-02    0.231E+00
RMM:  39    -0.646816010539E+03   -0.18994E-01   -0.33951E-03  2958   0.608E-02    0.226E+00
RMM:  40    -0.646842089419E+03   -0.26079E-01   -0.91170E-03  2990   0.987E-02    0.233E+00
RMM:  41    -0.646822982530E+03    0.19107E-01   -0.19977E-03  2555   0.542E-02    0.235E+00
RMM:  42    -0.646902017066E+03   -0.79035E-01   -0.28073E-02  2964   0.217E-01    0.245E+00
RMM:  43    -0.646884254125E+03    0.17763E-01   -0.37680E-03  3011   0.887E-02    0.251E+00
RMM:  44    -0.646889635416E+03   -0.53813E-02   -0.19592E-03  3208   0.449E-02    0.255E+00
RMM:  45    -0.646918465089E+03   -0.28830E-01   -0.45715E-03  2998   0.881E-02    0.260E+00
RMM:  46    -0.646910916567E+03    0.75485E-02   -0.94446E-04  2520   0.406E-02    0.262E+00
RMM:  47    -0.646996120631E+03   -0.85204E-01   -0.17496E-02  2983   0.185E-01    0.268E+00
RMM:  48    -0.646956927362E+03    0.39193E-01   -0.22376E-03  2969   0.877E-02    0.269E+00
RMM:  49    -0.647065793214E+03   -0.10887E+00   -0.30155E-02  2994   0.238E-01    0.267E+00
RMM:  50    -0.647058132134E+03    0.76611E-02   -0.66437E-03  3384   0.854E-02
   2 F= -.65345923E+03 E0= -.65344251E+03  d E =-.384397E+00  mag=    -1.1309
 trial-energy change:   -0.384397  1 .order   -0.002015   -0.025212    0.021183
 step:   0.9909(harm=  0.5434)  dis= 0.01060  next Energy=  -653.459326 (dE=-0.384E+00)
 bond charge predicted
       N       E                     dE             d eps       ncg     rms          rms(c)
DAV:   1    -0.646966448151E+03    0.99345E-01   -0.84777E-02  3520   0.299E-01    0.278E+00
RMM:   2    -0.647130015740E+03   -0.16357E+00   -0.36803E-01  3030   0.838E-01    0.312E+00
RMM:   3    -0.647086189606E+03    0.43826E-01   -0.24964E-01  3073   0.713E-01    0.198E+00
RMM:   4    -0.647001237162E+03    0.84952E-01   -0.49534E-02  3205   0.312E-01    0.745E-01
RMM:   5    -0.646998985940E+03    0.22512E-02   -0.30005E-02  3127   0.217E-01    0.409E-01
RMM:   6    -0.647057339819E+03   -0.58354E-01   -0.14666E-02  2978   0.135E-01    0.211E-01
RMM:   7    -0.647111296112E+03   -0.53956E-01   -0.11324E-02  2956   0.917E-02    0.124E-01
RMM:   8    -0.647135257821E+03   -0.23962E-01   -0.52706E-03  2783   0.519E-02    0.787E-02
RMM:   9    -0.647147875305E+03   -0.12617E-01   -0.14053E-03  2392   0.330E-02    0.600E-02
RMM:  10    -0.647155019268E+03   -0.71440E-02   -0.63959E-04  2270   0.224E-02    0.336E-02
RMM:  11    -0.647156362089E+03   -0.13428E-02   -0.18701E-04  2234   0.144E-02    0.150E-02
RMM:  12    -0.647156341740E+03    0.20349E-04   -0.50030E-05  2132   0.730E-03    0.464E-03
RMM:  13    -0.647157038347E+03   -0.69661E-03   -0.14735E-05  1425   0.456E-03    0.500E-03
RMM:  14    -0.647157310868E+03   -0.27252E-03   -0.13089E-05  1344   0.372E-03    0.262E-03
RMM:  15    -0.647157428176E+03   -0.11731E-03   -0.13046E-05  1399   0.375E-03    0.183E-03
RMM:  16    -0.647157476709E+03   -0.48533E-04   -0.74072E-06  1229   0.279E-03    0.107E-03
RMM:  17    -0.647157523903E+03   -0.47194E-04   -0.39486E-06  1061   0.218E-03    0.698E-04
RMM:  18    -0.647157548493E+03   -0.24590E-04   -0.16514E-06   921   0.179E-03    0.409E-04
RMM:  19    -0.647157556396E+03   -0.79029E-05   -0.53836E-07   756   0.151E-03
   3 F= -.65355865E+03 E0= -.65354023E+03  d E =-.483815E+00  mag=    -1.6729
 curvature:  -0.01 expect dE=-0.451E-03 dE for cont linesearch -0.268E-03
 ZBRENT: interpolating
 opt :   0.4970  next Energy=  -653.564834 (dE=-0.490E+00)
 bond charge predicted
       N       E                     dE             d eps       ncg     rms          rms(c)
DAV:   1    -0.647166491318E+03   -0.89428E-02   -0.47790E-01  3224   0.180E+00    0.255E-01
RMM:   2    -0.647168703904E+03   -0.22126E-02   -0.24267E-02  2985   0.335E-01    0.520E-01
RMM:   3    -0.647166089926E+03    0.26140E-02   -0.29816E-03  3274   0.101E-01    0.138E-01
RMM:   4    -0.647165181812E+03    0.90811E-03   -0.56585E-04  2973   0.418E-02    0.930E-02
RMM:   5    -0.647164818644E+03    0.36317E-03   -0.34152E-04  2870   0.348E-02    0.320E-02
RMM:   6    -0.647165478296E+03   -0.65965E-03   -0.50458E-05  2052   0.132E-02    0.147E-02
RMM:   7    -0.647166323907E+03   -0.84561E-03   -0.36112E-05  1998   0.797E-03    0.733E-03
RMM:   8    -0.647166754727E+03   -0.43082E-03   -0.20012E-05  1847   0.506E-03    0.390E-03
RMM:   9    -0.647166981324E+03   -0.22660E-03   -0.94535E-06  1348   0.331E-03    0.257E-03
RMM:  10    -0.647167087953E+03   -0.10663E-03   -0.56022E-06  1235   0.274E-03    0.126E-03
RMM:  11    -0.647167105947E+03   -0.17994E-04   -0.21698E-06  1117   0.219E-03    0.613E-04
RMM:  12    -0.647167109622E+03   -0.36750E-05   -0.62869E-07   859   0.170E-03
   4 F= -.65356789E+03 E0= -.65355011E+03  d E =-.493053E+00  mag=    -1.7516
 curvature:  -0.25 expect dE=-0.254E-02 dE for cont linesearch -0.150E-02
 ZBRENT: interpolating
 opt :   0.1754  next Energy=  -653.570521 (dE=-0.496E+00)
 bond charge predicted
       N       E                     dE             d eps       ncg     rms          rms(c)
DAV:   1    -0.647169674264E+03   -0.25683E-02   -0.20294E-01  3144   0.117E+00    0.161E-01
RMM:   2    -0.647170473085E+03   -0.79882E-03   -0.97473E-03  2985   0.215E-01    0.323E-01
RMM:   3    -0.647169468990E+03    0.10041E-02   -0.11338E-03  3240   0.636E-02    0.896E-02
RMM:   4    -0.647169096812E+03    0.37218E-03   -0.22307E-04  2825   0.265E-02    0.611E-02
RMM:   5    -0.647168913084E+03    0.18373E-03   -0.14389E-04  2675   0.228E-02    0.204E-02
RMM:   6    -0.647169204144E+03   -0.29106E-03   -0.19733E-05  1878   0.886E-03    0.902E-03
RMM:   7    -0.647169580198E+03   -0.37605E-03   -0.13913E-05  1837   0.547E-03    0.464E-03
RMM:   8    -0.647169773190E+03   -0.19299E-03   -0.81111E-06  1434   0.349E-03    0.232E-03
RMM:   9    -0.647169892663E+03   -0.11947E-03   -0.50255E-06  1239   0.266E-03    0.157E-03
RMM:  10    -0.647169937069E+03   -0.44405E-04   -0.22112E-06  1140   0.212E-03    0.844E-04
RMM:  11    -0.647169948320E+03   -0.11251E-04   -0.14196E-06  1048   0.187E-03    0.389E-04
RMM:  12    -0.647169951687E+03   -0.33670E-05   -0.25260E-07   636   0.145E-03
   5 F= -.65357051E+03 E0= -.65355340E+03  d E =-.495675E+00  mag=    -1.7979
 curvature:  -0.44 expect dE=-0.623E-03 dE for cont linesearch -0.258E-03
 ZBRENT: interpolating
 opt :   0.0693  next Energy=  -653.570770 (dE=-0.496E+00)
 bond charge predicted
       N       E                     dE             d eps       ncg     rms          rms(c)
DAV:   1    -0.647170259188E+03   -0.31087E-03   -0.22079E-02  3296   0.387E-01    0.523E-02
RMM:   2    -0.647170303516E+03   -0.44327E-04   -0.10402E-03  2977   0.707E-02    0.104E-01
RMM:   3    -0.647170193325E+03    0.11019E-03   -0.11524E-04  2176   0.207E-02    0.291E-02
RMM:   4    -0.647170145428E+03    0.47897E-04   -0.24216E-05  1888   0.103E-02    0.196E-02
RMM:   5    -0.647170116160E+03    0.29268E-04   -0.17341E-05  1832   0.850E-03    0.663E-03
RMM:   6    -0.647170164106E+03   -0.47946E-04   -0.27986E-06  1698   0.423E-03    0.307E-03
RMM:   7    -0.647170226163E+03   -0.62057E-04   -0.18064E-06  1311   0.254E-03    0.152E-03
RMM:   8    -0.647170261094E+03   -0.34931E-04   -0.87898E-07   918   0.184E-03    0.863E-04
RMM:   9    -0.647170280541E+03   -0.19446E-04   -0.67911E-07   819   0.166E-03    0.488E-04
RMM:  10    -0.647170291615E+03   -0.11074E-04   -0.40428E-07   691   0.155E-03    0.269E-04
RMM:  11    -0.647170295256E+03   -0.36415E-05   -0.28899E-07   671   0.154E-03
   6 F= -.65357078E+03 E0= -.65355392E+03  d E =-.495944E+00  mag=    -1.8120
 curvature:  -0.44 expect dE=-0.286E-03 dE for cont linesearch -0.182E-04
 trial: gam= 0.06602 g(F)=  0.647E-03 g(S)=  0.000E+00 ort =-0.102E-02 (trialstep = 0.814E+00)
 search vector abs. value=  0.622E-03
 reached required accuracy - stopping structural energy minimisation
