       N       E                     dE             d eps       ncg     rms          rms(c)
DAV:   1     0.261795367031E+04    0.26180E+04   -0.10921E+05  3904   0.121E+03
DAV:   2    -0.435654756012E+02   -0.26615E+04   -0.25738E+04  4656   0.313E+02
DAV:   3    -0.505446141648E+03   -0.46188E+03   -0.45811E+03  4036   0.148E+02
DAV:   4    -0.523432082128E+03   -0.17986E+02   -0.17636E+02  4360   0.406E+01
DAV:   5    -0.524122408708E+03   -0.69033E+00   -0.68412E+00  4936   0.621E+00    0.420E+01
DAV:   6    -0.498008110088E+03    0.26114E+02   -0.56855E+01  4368   0.262E+01    0.263E+01
DAV:   7    -0.492577168969E+03    0.54309E+01   -0.44098E+01  4136   0.189E+01    0.170E+01
DAV:   8    -0.490505645694E+03    0.20715E+01   -0.17082E+01  4000   0.125E+01    0.118E+01
DAV:   9    -0.490450138700E+03    0.55507E-01   -0.14612E+01  4808   0.104E+01    0.685E+00
DAV:  10    -0.490029071993E+03    0.42107E+00   -0.61344E+00  4072   0.693E+00    0.342E+00
DAV:  11    -0.489937405862E+03    0.91666E-01   -0.34339E+00  5136   0.437E+00    0.248E+00
DAV:  12    -0.489811210490E+03    0.12620E+00   -0.19134E+00  5048   0.311E+00    0.138E+00
DAV:  13    -0.489778042865E+03    0.33168E-01   -0.29817E-01  3912   0.138E+00    0.536E-01
DAV:  14    -0.489777561984E+03    0.48088E-03   -0.44932E-02  4192   0.647E-01    0.362E-01
DAV:  15    -0.489776257329E+03    0.13047E-02   -0.20921E-02  4040   0.335E-01    0.245E-01
DAV:  16    -0.489776508239E+03   -0.25091E-03   -0.74797E-03  4320   0.204E-01    0.169E-01
DAV:  17    -0.489776234815E+03    0.27342E-03   -0.31674E-03  4032   0.137E-01    0.684E-02
DAV:  18    -0.489776249126E+03   -0.14311E-04   -0.26805E-04  2568   0.524E-02
   1 F= -.49405179E+03 E0= -.49405179E+03  d E =0.000000E+00  mag=     0.0000
