 vasp.5.4.4.18Apr17-6-g9f103f2a35 (build Nov  8 2022 18:58:45) complex           
 executed on             LinuxGNU date 2023.04.13  15:54:38
 running on   48 total cores
 distrk:  each k-point on   48 cores,    1 groups
 distr:  one band on NCORES_PER_BAND=  12 cores,    4 groups


--------------------------------------------------------------------------------------------------------


 INCAR:
 POTCAR:    PAW_PBE C 08Apr2002                   
 POTCAR:    PAW_PBE N 08Apr2002                   
 POTCAR:    PAW_PBE Ge_d 03Jul2007                
 POTCAR:    PAW_PBE C 08Apr2002                   
 POTCAR:    PAW_PBE O 08Apr2002                   
 POTCAR:    PAW_PBE C 08Apr2002                   
   SHA256 =  253f7b50bb8d59471dbedb8285d89021f4a42ed1a2c5d38a03a736e69125dd95 C/
   COPYR  = (c) Copyright 08Apr2002 Georg Kresse                                
   COPYR  = This file is part of the software VASP. Any use, copying, and all ot
   COPYR  = If you do not have a valid VASP license, you may not use, copy or di
   VRHFIN =C: s2p2                                                              
   LEXCH  = PE                                                                  
   EATOM  =   147.1560 eV,   10.8157 Ry                                         
                                                                                
   TITEL  = PAW_PBE C 08Apr2002                                                 
   LULTRA =        F    use ultrasoft PP ?                                      
   IUNSCR =        1    unscreen: 0-lin 1-nonlin 2-no                           
   RPACOR =    1.200    partial core radius                                     
   POMASS =   12.011; ZVAL   =    4.000    mass and valenz                      
   RCORE  =    1.500    outmost cutoff radius                                   
   RWIGS  =    1.630; RWIGS  =    0.863    wigner-seitz radius (au A)           
   ENMAX  =  400.000; ENMIN  =  300.000 eV                                      
   ICORE  =        2    local potential                                         
   LCOR   =        T    correct aug charges                                     
   LPAW   =        T    paw PP                                                  
   EAUG   =  644.873                                                            
   DEXC   =    0.000                                                            
   RMAX   =    1.529    core radius for proj-oper                               
   RAUG   =    1.300    factor for augmentation sphere                          
   RDEP   =    1.501    radius for radial grids                                 
   RDEPT  =    1.300    core radius for aug-charge                              
                                                                                
   Atomic configuration                                                         
    4 entries                                                                   
     n  l   j            E        occ.                                          
     1  0  0.50      -273.3789   2.0000                                         
     2  0  0.50       -13.7508   2.0000                                         
     2  1  0.50        -5.2854   2.0000                                         
     3  2  1.50        -5.4423   0.0000                                         
   Description                                                                  
     l       E           TYP  RCUT    TYP  RCUT                                 
     0    -13.7508458     23  1.200                                             
     0     -8.2022199     23  1.200                                             
     1     -5.2854383     23  1.500                                             
     1     34.0145650     23  1.500                                             
     2     -5.4423304      7  1.500                                             
  local pseudopotential read in
  partial core-charges read in
  partial kinetic energy density read in
  atomic valenz-charges read in
  non local Contribution for L=           0  read in
    real space projection operators read in
  non local Contribution for L=           0  read in
    real space projection operators read in
  non local Contribution for L=           1  read in
    real space projection operators read in
  non local Contribution for L=           1  read in
    real space projection operators read in
    PAW grid and wavefunctions read in

   number of l-projection  operators is LMAX  =           4
   number of lm-projection operators is LMMAX =           8

 POTCAR:    PAW_PBE N 08Apr2002                   
   SHA256 =  e053789ff3a61a86a1b75d8a110fcc91f86041011e7b0817c7c99e4e8a6349d7 N/
   COPYR  = (c) Copyright 08Apr2002 Georg Kresse                                
   COPYR  = This file is part of the software VASP. Any use, copying, and all ot
   COPYR  = If you do not have a valid VASP license, you may not use, copy or di
   VRHFIN =N: s2p3                                                              
   LEXCH  = PE                                                                  
   EATOM  =   264.5486 eV,   19.4438 Ry                                         
                                                                                
   TITEL  = PAW_PBE N 08Apr2002                                                 
   LULTRA =        F    use ultrasoft PP ?                                      
   IUNSCR =        1    unscreen: 0-lin 1-nonlin 2-no                           
   RPACOR =    1.200    partial core radius                                     
   POMASS =   14.001; ZVAL   =    5.000    mass and valenz                      
   RCORE  =    1.500    outmost cutoff radius                                   
   RWIGS  =    1.400; RWIGS  =    0.741    wigner-seitz radius (au A)           
   ENMAX  =  400.000; ENMIN  =  300.000 eV                                      
   ICORE  =        2    local potential                                         
   LCOR   =        T    correct aug charges                                     
   LPAW   =        T    paw PP                                                  
   EAUG   =  627.112                                                            
   DEXC   =    0.000                                                            
   RMAX   =    1.529    core radius for proj-oper                               
   RAUG   =    1.300    factor for augmentation sphere                          
   RDEP   =    1.514    radius for radial grids                                 
   RDEPT  =    1.338    core radius for aug-charge                              
                                                                                
   Atomic configuration                                                         
    4 entries                                                                   
     n  l   j            E        occ.                                          
     1  0  0.50      -384.7179   2.0000                                         
     2  0  0.50       -18.5828   2.0000                                         
     2  1  0.50        -7.0898   3.0000                                         
     3  2  1.50        -6.8029   0.0000                                         
   Description                                                                  
     l       E           TYP  RCUT    TYP  RCUT                                 
     0    -18.5828119     23  1.200                                             
     0    -13.5018863     23  1.200                                             
     1     -7.0897853     23  1.500                                             
     1      9.5240782     23  1.500                                             
     2     -6.8029130      7  1.500                                             
  local pseudopotential read in
  partial core-charges read in
  partial kinetic energy density read in
  atomic valenz-charges read in
  non local Contribution for L=           0  read in
    real space projection operators read in
  non local Contribution for L=           0  read in
    real space projection operators read in
  non local Contribution for L=           1  read in
    real space projection operators read in
  non local Contribution for L=           1  read in
    real space projection operators read in
    PAW grid and wavefunctions read in

   number of l-projection  operators is LMAX  =           4
   number of lm-projection operators is LMMAX =           8

 POTCAR:    PAW_PBE Ge_d 03Jul2007                
   SHA256 =  944b26c40d2d7c4f4eb1ff3a2e8dbfdd7129146276cd341854bfd5c0e57780ed Ge
   COPYR  = (c) Copyright 03Jul2007 Georg Kresse                                
   COPYR  = This file is part of the software VASP. Any use, copying, and all ot
   COPYR  = If you do not have a valid VASP license, you may not use, copy or di
   VRHFIN =Ge: 3d4s4p                                                           
   LEXCH  = PE                                                                  
   EATOM  =  2596.2402 eV,  190.8183 Ry                                         
                                                                                
   TITEL  = PAW_PBE Ge_d 03Jul2007                                              
   LULTRA =        F    use ultrasoft PP ?                                      
   IUNSCR =        1    unscreen: 0-lin 1-nonlin 2-no                           
   RPACOR =    2.000    partial core radius                                     
   POMASS =   72.610; ZVAL   =   14.000    mass and valenz                      
   RCORE  =    2.300    outmost cutoff radius                                   
   RWIGS  =    2.300; RWIGS  =    1.217    wigner-seitz radius (au A)           
   ENMAX  =  310.294; ENMIN  =  232.720 eV                                      
   ICORE  =        3    local potential                                         
   LCOR   =        T    correct aug charges                                     
   LPAW   =        T    paw PP                                                  
   EAUG   =  531.356                                                            
   DEXC   =    0.000                                                            
   RMAX   =    2.342    core radius for proj-oper                               
   RAUG   =    1.300    factor for augmentation sphere                          
   RDEP   =    2.318    radius for radial grids                                 
   RDEPT  =    1.783    core radius for aug-charge                              
                                                                                
   Atomic configuration                                                         
    9 entries                                                                   
     n  l   j            E        occ.                                          
     1  0  0.50    -10959.8463   2.0000                                         
     2  0  0.50     -1371.6056   2.0000                                         
     2  1  1.50     -1198.4791   6.0000                                         
     3  0  0.50      -168.4733   2.0000                                         
     3  1  1.50      -115.6019   6.0000                                         
     3  2  2.50       -29.3106  10.0000                                         
     4  0  0.50       -11.7309   2.0000                                         
     4  1  0.50        -3.8952   2.0000                                         
     4  3  2.50        -4.0817   0.0000                                         
   Description                                                                  
     l       E           TYP  RCUT    TYP  RCUT                                 
     2    -29.3105938     23  2.200                                             
     2    -13.6058260     23  2.200                                             
     0    -11.7309493     23  2.300                                             
     0     -7.4578696     23  2.300                                             
     1     -3.8952261     23  2.300                                             
     1      6.1178114     23  2.300                                             
     3     -1.3605826     23  2.300                                             
  local pseudopotential read in
  partial core-charges read in
  partial kinetic energy density read in
  atomic valenz-charges read in
  non local Contribution for L=           2  read in
    real space projection operators read in
  non local Contribution for L=           2  read in
    real space projection operators read in
  non local Contribution for L=           0  read in
    real space projection operators read in
  non local Contribution for L=           0  read in
    real space projection operators read in
  non local Contribution for L=           1  read in
    real space projection operators read in
  non local Contribution for L=           1  read in
    real space projection operators read in
    PAW grid and wavefunctions read in

   number of l-projection  operators is LMAX  =           6
   number of lm-projection operators is LMMAX =          18

 POTCAR:    PAW_PBE C 08Apr2002                   
   SHA256 =  253f7b50bb8d59471dbedb8285d89021f4a42ed1a2c5d38a03a736e69125dd95 C/
   COPYR  = (c) Copyright 08Apr2002 Georg Kresse                                
   COPYR  = This file is part of the software VASP. Any use, copying, and all ot
   COPYR  = If you do not have a valid VASP license, you may not use, copy or di
   VRHFIN =C: s2p2                                                              
   LEXCH  = PE                                                                  
   EATOM  =   147.1560 eV,   10.8157 Ry                                         
                                                                                
   TITEL  = PAW_PBE C 08Apr2002                                                 
   LULTRA =        F    use ultrasoft PP ?                                      
   IUNSCR =        1    unscreen: 0-lin 1-nonlin 2-no                           
   RPACOR =    1.200    partial core radius                                     
   POMASS =   12.011; ZVAL   =    4.000    mass and valenz                      
   RCORE  =    1.500    outmost cutoff radius                                   
   RWIGS  =    1.630; RWIGS  =    0.863    wigner-seitz radius (au A)           
   ENMAX  =  400.000; ENMIN  =  300.000 eV                                      
   ICORE  =        2    local potential                                         
   LCOR   =        T    correct aug charges                                     
   LPAW   =        T    paw PP                                                  
   EAUG   =  644.873                                                            
   DEXC   =    0.000                                                            
   RMAX   =    1.529    core radius for proj-oper                               
   RAUG   =    1.300    factor for augmentation sphere                          
   RDEP   =    1.501    radius for radial grids                                 
   RDEPT  =    1.300    core radius for aug-charge                              
                                                                                
   Atomic configuration                                                         
    4 entries                                                                   
     n  l   j            E        occ.                                          
     1  0  0.50      -273.3789   2.0000                                         
     2  0  0.50       -13.7508   2.0000                                         
     2  1  0.50        -5.2854   2.0000                                         
     3  2  1.50        -5.4423   0.0000                                         
   Description                                                                  
     l       E           TYP  RCUT    TYP  RCUT                                 
     0    -13.7508458     23  1.200                                             
     0     -8.2022199     23  1.200                                             
     1     -5.2854383     23  1.500                                             
     1     34.0145650     23  1.500                                             
     2     -5.4423304      7  1.500                                             
  local pseudopotential read in
  partial core-charges read in
  partial kinetic energy density read in
  atomic valenz-charges read in
  non local Contribution for L=           0  read in
    real space projection operators read in
  non local Contribution for L=           0  read in
    real space projection operators read in
  non local Contribution for L=           1  read in
    real space projection operators read in
  non local Contribution for L=           1  read in
    real space projection operators read in
    PAW grid and wavefunctions read in

   number of l-projection  operators is LMAX  =           4
   number of lm-projection operators is LMMAX =           8

 POTCAR:    PAW_PBE O 08Apr2002                   
   SHA256 =  818f92134a0a090dccd8ba1447fa70422a3b330e708bb4f08108d8ae51209ddf O/
   COPYR  = (c) Copyright 08Apr2002 Georg Kresse                                
   COPYR  = This file is part of the software VASP. Any use, copying, and all ot
   COPYR  = If you do not have a valid VASP license, you may not use, copy or di
   VRHFIN =O: s2p4                                                              
   LEXCH  = PE                                                                  
   EATOM  =   432.3788 eV,   31.7789 Ry                                         
                                                                                
   TITEL  = PAW_PBE O 08Apr2002                                                 
   LULTRA =        F    use ultrasoft PP ?                                      
   IUNSCR =        1    unscreen: 0-lin 1-nonlin 2-no                           
   RPACOR =    1.200    partial core radius                                     
   POMASS =   16.000; ZVAL   =    6.000    mass and valenz                      
   RCORE  =    1.520    outmost cutoff radius                                   
   RWIGS  =    1.550; RWIGS  =    0.820    wigner-seitz radius (au A)           
   ENMAX  =  400.000; ENMIN  =  300.000 eV                                      
   ICORE  =        2    local potential                                         
   LCOR   =        T    correct aug charges                                     
   LPAW   =        T    paw PP                                                  
   EAUG   =  605.392                                                            
   DEXC   =    0.000                                                            
   RMAX   =    1.553    core radius for proj-oper                               
   RAUG   =    1.300    factor for augmentation sphere                          
   RDEP   =    1.550    radius for radial grids                                 
   RDEPT  =    1.329    core radius for aug-charge                              
                                                                                
   Atomic configuration                                                         
    4 entries                                                                   
     n  l   j            E        occ.                                          
     1  0  0.50      -514.6923   2.0000                                         
     2  0  0.50       -23.9615   2.0000                                         
     2  1  0.50        -9.0305   4.0000                                         
     3  2  1.50        -9.5241   0.0000                                         
   Description                                                                  
     l       E           TYP  RCUT    TYP  RCUT                                 
     0    -23.9615318     23  1.200                                             
     0     -9.5240782     23  1.200                                             
     1     -9.0304911     23  1.520                                             
     1      8.1634956     23  1.520                                             
     2     -9.5240782      7  1.500                                             
  local pseudopotential read in
  partial core-charges read in
  partial kinetic energy density read in
  kinetic energy density of atom read in
  atomic valenz-charges read in
  non local Contribution for L=           0  read in
    real space projection operators read in
  non local Contribution for L=           0  read in
    real space projection operators read in
  non local Contribution for L=           1  read in
    real space projection operators read in
  non local Contribution for L=           1  read in
    real space projection operators read in
    PAW grid and wavefunctions read in

   number of l-projection  operators is LMAX  =           4
   number of lm-projection operators is LMMAX =           8


 ----------------------------------------------------------------------------- 
|                                                                             |
|  ADVICE TO THIS USER RUNNING 'VASP/VAMP'   (HEAR YOUR MASTER'S VOICE ...):  |
|                                                                             |
|      You have a (more or less) 'large supercell' and for larger cells       |
|      it might be more efficient to use real space projection opertators     |
|      So try LREAL= Auto  in the INCAR   file.                               |
|      Mind:          For very  accurate calculation you might also keep the  |
|      reciprocal projection scheme          (i.e. LREAL=.FALSE.)             |
|                                                                             |
 ----------------------------------------------------------------------------- 

  PAW_PBE C 08Apr2002                   :
 energy of atom  1       EATOM= -147.1560
 kinetic energy error for atom=    0.0132 (will be added to EATOM!!)
  PAW_PBE N 08Apr2002                   :
 energy of atom  2       EATOM= -264.5486
 kinetic energy error for atom=    0.0298 (will be added to EATOM!!)
  PAW_PBE Ge_d 03Jul2007                :
 energy of atom  3       EATOM=-2596.2402
 kinetic energy error for atom=    0.0090 (will be added to EATOM!!)
  PAW_PBE C 08Apr2002                   :
 energy of atom  4       EATOM= -147.1560
 kinetic energy error for atom=    0.0132 (will be added to EATOM!!)
  PAW_PBE O 08Apr2002                   :
 energy of atom  5       EATOM= -432.3788
 kinetic energy error for atom=    0.0458 (will be added to EATOM!!)


 POSCAR: POSCAR-c3n4                             
  positions in direct lattice
  velocities in cartesian coordinates
 exchange correlation table for  LEXCH =        8
   RHO(1)=    0.500       N(1)  =     2000
   RHO(2)=  100.500       N(2)  =     4000



--------------------------------------------------------------------------------------------------------


 ion  position               nearest neighbor table
   1  0.102  0.209  0.418-  26 1.33  46 1.36  25 1.38
   2  0.291  0.408  0.435-  29 1.31  35 1.39  25 1.41
   3  0.100  0.392  0.418-  44 1.31  39 1.36  25 1.38
   4  0.448  0.063  0.516-  30 1.32  27 1.33  48 1.41
   5  0.471  0.431  0.408-  28 1.32  29 1.33  56 1.41
   6  0.116  0.052  0.465-  31 1.31  26 1.32  32 1.41
   7  0.075  0.702  0.512-  54 1.33  34 1.35  33 1.39
   8  0.279  0.878  0.533-  27 1.34  37 1.34  33 1.38
   9  0.114  0.901  0.540-  31 1.32  52 1.33  33 1.40
  10  0.447  0.543  0.535-  38 1.32  35 1.36  56 1.36
  11  0.444  0.872  0.508-  36 1.33  37 1.33  48 1.37
  12  0.059  0.523  0.492-  34 1.32  39 1.34  40 1.34
  13  0.625  0.224  0.466-  42 1.35  30 1.36  41 1.39
  14  0.776  0.394  0.362-  45 1.35  41 1.35  51 1.39
  15  0.623  0.404  0.434-  28 1.32  55 1.34  41 1.42
  16  0.934  0.051  0.479-  46 1.32  43 1.33  32 1.40
  17  0.943  0.396  0.360-  45 1.31  44 1.33  40 1.43
  18  0.632  0.066  0.526-  42 1.33  47 1.33  48 1.42
  19  0.616  0.701  0.592-  50 1.33  38 1.37  49 1.39
  20  0.795  0.904  0.574-  53 1.32  43 1.34  49 1.43
  21  0.609  0.886  0.566-  36 1.33  47 1.34  49 1.40
  22  0.928  0.572  0.411-  51 1.30  54 1.35  40 1.42
  23  0.976  0.936  0.592-  52 1.33  53 1.34  32 1.38
  24  0.631  0.551  0.525-  55 1.32  50 1.33  56 1.42
  25  0.167  0.335  0.417-   1 1.38   3 1.38   2 1.41
  26  0.165  0.154  0.414-   6 1.32   1 1.33
  27  0.337  0.999  0.549-   4 1.33   8 1.34
  28  0.535  0.386  0.376-   5 1.32  15 1.32
  29  0.360  0.389  0.378-   2 1.31   5 1.33
  30  0.509  0.180  0.493-   4 1.32  13 1.36
  31  0.153  0.974  0.466-   6 1.31   9 1.32
  32  0.014  0.021  0.520-  23 1.38  16 1.40   6 1.41
  33  0.156  0.820  0.544-   8 1.38   7 1.39   9 1.40
  34  0.096  0.618  0.549-  12 1.32   7 1.35
  35  0.328  0.485  0.513-  10 1.36   2 1.39  57 2.07
  36  0.504  0.815  0.522-  11 1.33  21 1.33
  37  0.324  0.809  0.506-  11 1.33   8 1.34
  38  0.493  0.631  0.599-  10 1.32  19 1.37
  39  0.117  0.462  0.496-  12 1.34   3 1.36  57 2.14
  40  0.977  0.496  0.424-  12 1.34  22 1.42  17 1.43
  41  0.673  0.331  0.413-  14 1.35  13 1.39  15 1.42
  42  0.695  0.181  0.496-  18 1.33  13 1.35
  43  0.818  0.970  0.495-  16 1.33  20 1.34
  44  0.024  0.363  0.348-   3 1.31  17 1.33
  45  0.833  0.338  0.330-  17 1.31  14 1.35
  46  0.981  0.152  0.428-  16 1.32   1 1.36
  47  0.671  0.007  0.578-  18 1.33  21 1.34
  48  0.507  0.998  0.504-  11 1.37   4 1.41  18 1.42
  49  0.670  0.828  0.596-  19 1.39  21 1.40  20 1.43
  50  0.685  0.656  0.573-  24 1.33  19 1.33
  51  0.827  0.521  0.364-  22 1.30  14 1.39
  52  0.041  0.885  0.612-  23 1.33   9 1.33
  53  0.869  0.894  0.633-  20 1.32  23 1.34
  54  0.994  0.686  0.447-   7 1.33  22 1.35
  55  0.675  0.480  0.508-  24 1.32  15 1.34
  56  0.516  0.512  0.486-  10 1.36   5 1.41  24 1.42
  57  0.262  0.576  0.589-  35 2.07  39 2.14
  58  0.277  0.592  0.815-  59 1.14
  59  0.223  0.500  0.854-  58 1.14


IMPORTANT INFORMATION: All symmetrisations will be switched off!
NOSYMM: (Re-)initialisation of all symmetry stuff for point group C_1.



 KPOINTS: K-Points                                

Automatic generation of k-mesh.
Space group operators:
 irot       det(A)        alpha          n_x          n_y          n_z        tau_x        tau_y        tau_z
    1     1.000000     0.000000     1.000000     0.000000     0.000000     0.000000     0.000000     0.000000
 
 Subroutine IBZKPT returns following result:
 ===========================================
 
 Found      5 irreducible k-points:
 
 Following reciprocal coordinates:
            Coordinates               Weight
  0.000000  0.000000  0.000000      1.000000
  0.333333  0.000000  0.000000      2.000000
  0.000000  0.333333  0.000000      2.000000
  0.333333  0.333333  0.000000      2.000000
 -0.333333  0.333333  0.000000      2.000000
 
 Following cartesian coordinates:
            Coordinates               Weight
  0.000000  0.000000  0.000000      1.000000
  0.024277  0.014368  0.000000      2.000000
  0.000396  0.028736  0.000000      2.000000
  0.024673  0.043104  0.000000      2.000000
 -0.023881  0.014368  0.000000      2.000000
 
 TETIRR: Found     24 inequivalent tetrahedra from       54


--------------------------------------------------------------------------------------------------------




 Dimension of arrays:
   k-points           NKPTS =      5   k-points in BZ     NKDIM =      5   number of bands    NBANDS=    172
   number of dos      NEDOS =   4000   number of ions     NIONS =     59
   non local maximal  LDIM  =      6   non local SUM 2l+1 LMDIM =     18
   total plane-waves  NPLWV = 352800
   max r-space proj   IRMAX =      1   max aug-charges    IRDMAX=   6129
   dimension x,y,z NGX =    70 NGY =   70 NGZ =   72
   dimension x,y,z NGXF=   140 NGYF=  140 NGZF=  144
   support grid    NGXF=   140 NGYF=  140 NGZF=  144
   ions per type =              24  32   1   1   1
   NGX,Y,Z   is equivalent  to a cutoff of   8.94,  9.11,  8.49 a.u.
   NGXF,Y,Z  is equivalent  to a cutoff of  17.88, 18.22, 16.98 a.u.

 SYSTEM =  unknown system                          
 POSCAR =  POSCAR-c3n4                             

 Startparameter for this run:
   NWRITE =      2    write-flag & timer
   PREC   = normal    normal or accurate (medium, high low for compatibility)
   ISTART =      0    job   : 0-new  1-cont  2-samecut
   ICHARG =      2    charge: 1-file 2-atom 10-const
   ISPIN  =      2    spin polarized calculation?
   LNONCOLLINEAR =      F non collinear calculations
   LSORBIT =      F    spin-orbit coupling
   INIWAV =      1    electr: 0-lowe 1-rand  2-diag
   LASPH  =      F    aspherical Exc in radial PAW
   METAGGA=      F    non-selfconsistent MetaGGA calc.

 Electronic Relaxation 1
   ENCUT  =  440.0 eV  32.34 Ry    5.69 a.u.  22.26 21.85 24.12*2*pi/ulx,y,z
   ENINI  =  440.0     initial cutoff
   ENAUG  =  644.9 eV  augmentation charge cutoff
   NELM   =    100;   NELMIN=  2; NELMDL= -5     # of ELM steps 
   EDIFF  = 0.1E-03   stopping-criterion for ELM
   LREAL  =      F    real-space projection
   NLSPLINE    = F    spline interpolate recip. space projectors
   LCOMPAT=      F    compatible to vasp.4.4
   GGA_COMPAT  = T    GGA compatible to vasp.4.4-vasp.4.6
   LMAXPAW     = -100 max onsite density
   LMAXMIX     =    2 max onsite mixed and CHGCAR
   VOSKOWN=      0    Vosko Wilk Nusair interpolation
   ROPT   =    0.00000   0.00000   0.00000   0.00000
   ROPT   =    0.00000
 Ionic relaxation
   EDIFFG = -.1E-01   stopping-criterion for IOM
   NSW    =      0    number of steps for IOM
   NBLOCK =      1;   KBLOCK =      1    inner block; outer block 
   IBRION =     -1    ionic relax: 0-MD 1-quasi-New 2-CG
   NFREE  =      0    steps in history (QN), initial steepest desc. (CG)
   ISIF   =      2    stress and relaxation
   IWAVPR =     10    prediction:  0-non 1-charg 2-wave 3-comb
   ISYM   =      0    0-nonsym 1-usesym 2-fastsym
   LCORR  =      T    Harris-Foulkes like correction to forces

   POTIM  = 0.5000    time-step for ionic-motion
   TEIN   =    0.0    initial temperature
   TEBEG  =    0.0;   TEEND  =   0.0 temperature during run
   SMASS  =  -3.00    Nose mass-parameter (am)
   estimated Nose-frequenzy (Omega)   =  0.10E-29 period in steps =****** mass=  -0.387E-26a.u.
   SCALEE = 1.0000    scale energy and forces
   NPACO  =    256;   APACO  = 16.0  distance and # of slots for P.C.
   PSTRESS=    0.0 pullay stress

  Mass of Ions in am
   POMASS =  12.01 14.00 72.61 12.01 16.00
  Ionic Valenz
   ZVAL   =   4.00  5.00 14.00  4.00  6.00
  Atomic Wigner-Seitz radii
   RWIGS  =  -1.00 -1.00 -1.00 -1.00 -1.00
  virtual crystal weights 
   VCA    =   1.00  1.00  1.00  1.00  1.00
   NELECT =     280.0000    total number of electrons
   NUPDOWN=      -1.0000    fix difference up-down

 DOS related values:
   EMIN   = -14.00;   EMAX   =  6.00  energy-range for DOS
   EFERMI =   0.00
   ISMEAR =    -5;   SIGMA  =   0.20  broadening in eV -4-tet -1-fermi 0-gaus

 Electronic relaxation 2 (details)
   IALGO  =     38    algorithm
   LDIAG  =      T    sub-space diagonalisation (order eigenvalues)
   LSUBROT=      F    optimize rotation matrix (better conditioning)
   TURBO    =      0    0=normal 1=particle mesh
   IRESTART =      0    0=no restart 2=restart with 2 vectors
   NREBOOT  =      0    no. of reboots
   NMIN     =      0    reboot dimension
   EREF     =   0.00    reference energy to select bands
   IMIX   =      4    mixing-type and parameters
     AMIX     =   0.25;   BMIX     =  0.00
     AMIX_MAG =   1.00;   BMIX_MAG =  0.00
     AMIN     =   0.10
     WC   =   100.;   INIMIX=   1;  MIXPRE=   1;  MAXMIX= -45

 Intra band minimization:
   WEIMIN = 0.0000     energy-eigenvalue tresh-hold
   EBREAK =  0.15E-06  absolut break condition
   DEPER  =   0.30     relativ break condition  

   TIME   =   0.40     timestep for ELM

  volume/ion in A,a.u.               =      33.91       228.83
  Fermi-wavevector in a.u.,A,eV,Ry     =   0.849971  1.606213  9.829547  0.722451
  Thomas-Fermi vector in A             =   1.965876

 Write flags
   LWAVE        =      F    write WAVECAR
   LDOWNSAMPLE  =      F    k-point downsampling of WAVECAR
   LCHARG       =      F    write CHGCAR
   LVTOT        =      F    write LOCPOT, total local potential
   LVHAR        =      F    write LOCPOT, Hartree potential only
   LELF         =      F    write electronic localiz. function (ELF)
   LORBIT       =     11    0 simple, 1 ext, 2 COOP (PROOUT), +10 PAW based schemes


 Dipole corrections
   LMONO  =      F    monopole corrections only (constant potential shift)
   LDIPOL =      F    correct potential (dipole corrections)
   IDIPOL =      0    1-x, 2-y, 3-z, 4-all directions 
   EPSILON=  1.0000000 bulk dielectric constant

 Exchange correlation treatment:
   GGA     =    --    GGA type
   LEXCH   =     8    internal setting for exchange type
   VOSKOWN=      0    Vosko Wilk Nusair interpolation
   LHFCALC =     F    Hartree Fock is set to
   LHFONE  =     F    Hartree Fock one center treatment
   AEXX    =    0.0000 exact exchange contribution

 Linear response parameters
   LEPSILON=     F    determine dielectric tensor
   LRPA    =     F    only Hartree local field effects (RPA)
   LNABLA  =     F    use nabla operator in PAW spheres
   LVEL    =     F    velocity operator in full k-point grid
   LINTERFAST=   F  fast interpolation
   KINTER  =     0    interpolate to denser k-point grid
   CSHIFT  =0.1000    complex shift for real part using Kramers Kronig
   OMEGAMAX=  -1.0    maximum frequency
   DEG_THRESHOLD= 0.2000000E-02 threshold for treating states as degnerate
   RTIME   =   -0.100 relaxation time in fs
  (WPLASMAI=    0.000 imaginary part of plasma frequency in eV, 0.658/RTIME)
   DFIELD  = 0.0000000 0.0000000 0.0000000 field for delta impulse in time

 Orbital magnetization related:
   ORBITALMAG=     F  switch on orbital magnetization
   LCHIMAG   =     F  perturbation theory with respect to B field
   DQ        =  0.001000  dq finite difference perturbation B field
   LLRAUG    =     F  two centre corrections for induced B field



--------------------------------------------------------------------------------------------------------


 Static calculation
 charge density and potential will be updated during run
 spin polarized calculation
 Variant of blocked Davidson
 Davidson routine will perform the subspace rotation
 perform sub-space diagonalisation
    after iterative eigenvector-optimisation
 modified Broyden-mixing scheme, WC =      100.0
 initial mixing is a Kerker type mixing with AMIX =  0.2500 and BMIX =      0.0001
 Hartree-type preconditioning will be used
 using additional bands           32
 reciprocal scheme for non local part
 use partial core corrections
 calculate Harris-corrections to forces   (improved forces if not selfconsistent)
 use gradient corrections 
 use of overlap-Matrix (Vanderbilt PP)
 Fermi weights with tetrahedron method with Bloechl corrections


--------------------------------------------------------------------------------------------------------


  energy-cutoff  :      440.00
  volume of cell :     2000.64
      direct lattice vectors                 reciprocal lattice vectors
    13.012818781 -0.179296046  0.000000000     0.077479116  0.045855441 -0.000000000
    -6.506409390 10.993479534  0.000000000     0.001263631  0.091710882 -0.000000000
     0.000000000  0.000000000 14.100000000    -0.000000000 -0.000000000  0.070921986

  length of vectors
    13.014053930 12.774582397 14.100000000     0.090031855  0.091719587  0.070921986



 k-points in units of 2pi/SCALE and weight: K-Points                                
   0.00000000  0.00000000  0.00000000       0.111
   0.02427679  0.01436804  0.00000000       0.222
   0.00039594  0.02873608  0.00000000       0.222
   0.02467273  0.04310411  0.00000000       0.222
  -0.02388085  0.01436804  0.00000000       0.222

 k-points in reciprocal lattice and weights: K-Points                                
   0.00000000  0.00000000  0.00000000       0.111
   0.33333333  0.00000000  0.00000000       0.222
   0.00000000  0.33333333  0.00000000       0.222
   0.33333333  0.33333333  0.00000000       0.222
  -0.33333333  0.33333333  0.00000000       0.222

 position of ions in fractional coordinates (direct lattice) 
   0.10216821  0.20901912  0.41758052
   0.29109160  0.40756756  0.43475235
   0.10029057  0.39191468  0.41766922
   0.44833084  0.06336790  0.51576496
   0.47104943  0.43052279  0.40768133
   0.11556071  0.05248427  0.46456053
   0.07464264  0.70171954  0.51226700
   0.27913309  0.87799871  0.53282448
   0.11418452  0.90103284  0.54048296
   0.44651089  0.54348798  0.53477183
   0.44423912  0.87235011  0.50809893
   0.05931952  0.52329784  0.49169944
   0.62482057  0.22399919  0.46592624
   0.77636467  0.39401326  0.36220903
   0.62287878  0.40428457  0.43388402
   0.93426908  0.05084001  0.47891496
   0.94344291  0.39612591  0.36045070
   0.63165278  0.06631784  0.52641743
   0.61612523  0.70136582  0.59198400
   0.79535335  0.90384875  0.57434354
   0.60860969  0.88582565  0.56601291
   0.92802391  0.57167890  0.41072946
   0.97626446  0.93591680  0.59243643
   0.63113159  0.55051269  0.52532267
   0.16650472  0.33520389  0.41749780
   0.16507852  0.15376758  0.41382275
   0.33680739  0.99891465  0.54938179
   0.53541196  0.38551751  0.37564915
   0.35973008  0.38897168  0.37779859
   0.50897174  0.18048532  0.49334035
   0.15261135  0.97445653  0.46583774
   0.01391458  0.02138996  0.52040404
   0.15599144  0.82020907  0.54355154
   0.09574183  0.61759847  0.54925008
   0.32763287  0.48472500  0.51282161
   0.50363691  0.81510377  0.52198161
   0.32425095  0.80923571  0.50565731
   0.49321717  0.63079832  0.59943563
   0.11691572  0.46205696  0.49576062
   0.97662711  0.49574149  0.42424549
   0.67303750  0.33106724  0.41261226
   0.69453021  0.18147956  0.49628793
   0.81819638  0.97018715  0.49517846
   0.02402245  0.36308233  0.34759463
   0.83260638  0.33780207  0.32951812
   0.98106154  0.15170654  0.42752638
   0.67104351  0.00748914  0.57838726
   0.50730466  0.99754415  0.50356194
   0.66988429  0.82833139  0.59599891
   0.68544682  0.65589008  0.57261126
   0.82665965  0.52058408  0.36400524
   0.04089908  0.88546939  0.61182847
   0.86894493  0.89391151  0.63307273
   0.99360594  0.68606463  0.44727981
   0.67537063  0.48048689  0.50750217
   0.51642451  0.51210984  0.48561091
   0.26242745  0.57611258  0.58918384
   0.27667072  0.59202368  0.81495579
   0.22348213  0.50031161  0.85406288

 position of ions in cartesian coordinates  (Angst):
  -0.03046759  2.27952904  5.88788535
   1.13612076  4.42839409  6.13000812
  -1.24489431  4.29052430  5.88913596
   5.42175052  0.61624979  7.27228598
   3.32852338  4.64848618  5.74830671
   1.16228647  0.55626516  6.55030344
  -3.59436336  7.70095622  7.22296473
  -2.08031070  9.60221342  7.51282515
  -4.37662611  9.88501324  7.62080967
   2.27420999  5.89476636  7.54028282
   0.10493626  9.51051275  7.16419489
  -2.63287585  5.74222833  6.93296214
   6.67324650  2.35050262  6.56955993
   7.53908123  4.19237760  5.10714735
   5.47496772  4.33281445  6.11776472
  11.82668837  0.39139781  6.75270097
   9.69949429  4.18564653  5.08235484
   7.78809208  0.61581097  7.42248581
   3.45415284  7.59998194  8.34697441
   4.46897899  9.79383902  8.09824392
   2.15618326  9.62918480  7.98078207
   8.35662992  6.11834930  5.79128533
   6.61449463 10.11394184  8.35335360
   4.63094013  5.93889058  7.40704969
  -0.01427800  3.65520343  5.88671893
   1.14766203  1.66084286  5.83490071
  -2.11653410 10.92115952  7.74628324
   4.45888403  4.14218165  5.29665295
   2.15029339  4.21165404  5.32696010
   5.44884566  1.89290504  6.95609899
  -4.35430933 10.68530533  6.56831212
   0.04189609  0.23265521  7.33769696
  -3.30672773  8.98898301  7.66407676
  -2.77247738  6.77239005  7.74442619
   1.10960782  5.27007114  7.23078477
   1.25033708  8.87052645  7.35994065
  -1.04579997  8.83817930  7.12976807
   2.31391354  6.84623652  8.45204236
  -1.48492871  5.05865125  6.99022470
   9.48317450  5.27481857  5.98186134
   6.60405596  3.51890802  5.81783291
   7.85701545  1.87056527  6.99765977
   4.33460634 10.51903326  6.98201629
  -2.04976244  3.98723101  4.90108434
   8.63667735  3.56433710  4.64620544
  11.77931109  1.49188233  6.02812195
   8.68344015 -0.03798374  8.15526033
   0.11103294 10.87552348  7.10022341
   3.32761974  8.98613660  8.40358464
   4.65210588  7.08761626  8.07381872
   7.37003909  5.57481357  5.13247393
  -5.22901398  9.72705658  8.62678141
   5.49126866  9.67139953  8.92632550
   8.46579671  7.36408782  6.30664526
   5.66223121  5.16113154  7.15578054
   3.38814226  5.53727615  6.84711383
  -0.33350342  6.28642970  8.30749210
  -0.25168244  6.45879420 11.49087667
  -0.34709971  5.46009600 12.04228654



--------------------------------------------------------------------------------------------------------


 k-point  1 :   0.0000 0.0000 0.0000  plane waves:   41921
 k-point  2 :   0.3333 0.0000 0.0000  plane waves:   41903
 k-point  3 :   0.0000 0.3333 0.0000  plane waves:   41888
 k-point  4 :   0.3333 0.3333 0.0000  plane waves:   41918
 k-point  5 :  -0.3333 0.3333 0.0000  plane waves:   41954

 maximum and minimum number of plane-waves per node :      3513     3455

 maximum number of plane-waves:     41954
 maximum index in each direction: 
   IXMAX=   22   IYMAX=   21   IZMAX=   24
   IXMIN=  -22   IYMIN=  -22   IZMIN=  -24


 parallel 3D FFT for wavefunctions:
    minimum data exchange during FFTs selected (reduces bandwidth)
 parallel 3D FFT for charge:
    minimum data exchange during FFTs selected (reduces bandwidth)


 total amount of memory used by VASP MPI-rank0    82289. kBytes
=======================================================================

   base      :      30000. kBytes
   nonl-proj :      15904. kBytes
   fftplans  :       2997. kBytes
   grid      :       8796. kBytes
   one-center:        155. kBytes
   wavefun   :      24437. kBytes

     INWAV:  cpu time    0.0001: real time    0.0001
 Broyden mixing: mesh for mixing (old mesh)
   NGX = 45   NGY = 43   NGZ = 49
  (NGX  =140   NGY  =140   NGZ  =144)
  gives a total of  94815 points

 initial charge density was supplied:
 charge density of overlapping atoms calculated
 number of electron     280.0000000 magnetization       2.0000000
 keeping initial charge density in first step


--------------------------------------------------------------------------------------------------------


 Maximum index for augmentation-charges          178 (set IRDMAX)


--------------------------------------------------------------------------------------------------------


 First call to EWALD:  gamma=   0.141
 Maximum number of real-space cells 3x 3x 3
 Maximum number of reciprocal cells 3x 3x 3

    FEWALD:  cpu time    0.0022: real time    0.0022


--------------------------------------- Iteration      1(   1)  ---------------------------------------


    POTLOK:  cpu time    0.1013: real time    0.1117
    SETDIJ:  cpu time    0.0086: real time    0.0086
     EDDAV:  cpu time    9.5078: real time    9.5255
 BZINTS: Fermi energy: 10.119113;280.000000 electrons
         Band energy:***********;  BLOECHL correction: -0.014663
       DOS:  cpu time    0.2251: real time    0.2251
    --------------------------------------------
      LOOP:  cpu time    9.8427: real time    9.8709

 eigenvalue-minimisations  :  3904
 total energy-change (2. order) : 0.2617954E+04  (-0.1092148E+05)
 number of electron     280.0000000 magnetization       2.0000000
 augmentation part      280.0000000 magnetization       2.0000000

 Free energy of the ion-electron system (eV)
  ---------------------------------------------------
  alpha Z        PSCENC =       186.25018696
  Ewald energy   TEWEN  =     23183.86270286
  -Hartree energ DENC   =    -35230.98779227
  -exchange      EXHF   =         0.00000000
  -V(xc)+E(xc)   XCENC  =      1070.63807372
  PAW double counting   =     11453.83848114   -11942.90478952
  entropy T*S    EENTRO =         0.00000000
  eigenvalues    EBANDS =     -1274.47934476
  atomic energy  EATOM  =     15171.73615219
  Solvation  Ediel_sol  =         0.00000000
  ---------------------------------------------------
  free energy    TOTEN  =      2617.95367031 eV

  energy without entropy =     2617.95367031  energy(sigma->0) =     2617.95367031


--------------------------------------------------------------------------------------------------------




--------------------------------------- Iteration      1(   2)  ---------------------------------------


     EDDAV:  cpu time   10.8578: real time   10.8731
 BZINTS: Fermi energy: -0.028073;280.000000 electrons
         Band energy:***********;  BLOECHL correction: -0.010719
       DOS:  cpu time    0.0218: real time    0.0218
    --------------------------------------------
      LOOP:  cpu time   10.8795: real time   10.8949

 eigenvalue-minimisations  :  4656
 total energy-change (2. order) :-0.2661519E+04  (-0.2573820E+04)
 number of electron     280.0000000 magnetization       2.0000000
 augmentation part      280.0000000 magnetization       2.0000000

 Free energy of the ion-electron system (eV)
  ---------------------------------------------------
  alpha Z        PSCENC =       186.25018696
  Ewald energy   TEWEN  =     23183.86270286
  -Hartree energ DENC   =    -35230.98779227
  -exchange      EXHF   =         0.00000000
  -V(xc)+E(xc)   XCENC  =      1070.63807372
  PAW double counting   =     11453.83848114   -11942.90478952
  entropy T*S    EENTRO =         0.00000000
  eigenvalues    EBANDS =     -3935.99849068
  atomic energy  EATOM  =     15171.73615219
  Solvation  Ediel_sol  =         0.00000000
  ---------------------------------------------------
  free energy    TOTEN  =       -43.56547560 eV

  energy without entropy =      -43.56547560  energy(sigma->0) =      -43.56547560


--------------------------------------------------------------------------------------------------------




--------------------------------------- Iteration      1(   3)  ---------------------------------------


     EDDAV:  cpu time    9.7125: real time    9.7245
 BZINTS: Fermi energy: -3.296699;280.000000 electrons
         Band energy:***********;  BLOECHL correction:  0.000000
       DOS:  cpu time    0.0163: real time    0.0163
    --------------------------------------------
      LOOP:  cpu time    9.7288: real time    9.7408

 eigenvalue-minimisations  :  4036
 total energy-change (2. order) :-0.4618807E+03  (-0.4581088E+03)
 number of electron     280.0000000 magnetization       2.0000000
 augmentation part      280.0000000 magnetization       2.0000000

 Free energy of the ion-electron system (eV)
  ---------------------------------------------------
  alpha Z        PSCENC =       186.25018696
  Ewald energy   TEWEN  =     23183.86270286
  -Hartree energ DENC   =    -35230.98779227
  -exchange      EXHF   =         0.00000000
  -V(xc)+E(xc)   XCENC  =      1070.63807372
  PAW double counting   =     11453.83848114   -11942.90478952
  entropy T*S    EENTRO =         0.00000000
  eigenvalues    EBANDS =     -4397.87915672
  atomic energy  EATOM  =     15171.73615219
  Solvation  Ediel_sol  =         0.00000000
  ---------------------------------------------------
  free energy    TOTEN  =      -505.44614165 eV

  energy without entropy =     -505.44614165  energy(sigma->0) =     -505.44614165


--------------------------------------------------------------------------------------------------------




--------------------------------------- Iteration      1(   4)  ---------------------------------------


     EDDAV:  cpu time   10.3361: real time   10.3510
 BZINTS: Fermi energy: -3.636159;280.000000 electrons
         Band energy:***********;  BLOECHL correction:  0.000000
       DOS:  cpu time    0.0152: real time    0.0152
    --------------------------------------------
      LOOP:  cpu time   10.3513: real time   10.3663

 eigenvalue-minimisations  :  4360
 total energy-change (2. order) :-0.1798594E+02  (-0.1763579E+02)
 number of electron     280.0000000 magnetization       2.0000000
 augmentation part      280.0000000 magnetization       2.0000000

 Free energy of the ion-electron system (eV)
  ---------------------------------------------------
  alpha Z        PSCENC =       186.25018696
  Ewald energy   TEWEN  =     23183.86270286
  -Hartree energ DENC   =    -35230.98779227
  -exchange      EXHF   =         0.00000000
  -V(xc)+E(xc)   XCENC  =      1070.63807372
  PAW double counting   =     11453.83848114   -11942.90478952
  entropy T*S    EENTRO =         0.00000000
  eigenvalues    EBANDS =     -4415.86509720
  atomic energy  EATOM  =     15171.73615219
  Solvation  Ediel_sol  =         0.00000000
  ---------------------------------------------------
  free energy    TOTEN  =      -523.43208213 eV

  energy without entropy =     -523.43208213  energy(sigma->0) =     -523.43208213


--------------------------------------------------------------------------------------------------------




--------------------------------------- Iteration      1(   5)  ---------------------------------------


     EDDAV:  cpu time   11.3992: real time   11.4157
 BZINTS: Fermi energy: -3.654914;280.000000 electrons
         Band energy:***********;  BLOECHL correction:  0.000000
       DOS:  cpu time    0.0151: real time    0.0151
    CHARGE:  cpu time    0.1853: real time    0.1855
    MIXING:  cpu time    0.0024: real time    0.0025
    --------------------------------------------
      LOOP:  cpu time   11.6019: real time   11.6188

 eigenvalue-minimisations  :  4936
 total energy-change (2. order) :-0.6903266E+00  (-0.6841166E+00)
 number of electron     280.0000067 magnetization       0.0000002
 augmentation part       20.3000862 magnetization       0.0310910

 Broyden mixing:
  rms(total) = 0.41991E+01    rms(broyden)= 0.41965E+01
  rms(prec ) = 0.46861E+01
  weight for this iteration     100.00

 Free energy of the ion-electron system (eV)
  ---------------------------------------------------
  alpha Z        PSCENC =       186.25018696
  Ewald energy   TEWEN  =     23183.86270286
  -Hartree energ DENC   =    -35230.98779227
  -exchange      EXHF   =         0.00000000
  -V(xc)+E(xc)   XCENC  =      1070.63807372
  PAW double counting   =     11453.83848114   -11942.90478952
  entropy T*S    EENTRO =         0.00000000
  eigenvalues    EBANDS =     -4416.55542378
  atomic energy  EATOM  =     15171.73615219
  Solvation  Ediel_sol  =         0.00000000
  ---------------------------------------------------
  free energy    TOTEN  =      -524.12240871 eV

  energy without entropy =     -524.12240871  energy(sigma->0) =     -524.12240871


--------------------------------------------------------------------------------------------------------




--------------------------------------- Iteration      1(   6)  ---------------------------------------


    POTLOK:  cpu time    0.0943: real time    0.0948
    SETDIJ:  cpu time    0.0087: real time    0.0087
     EDDAV:  cpu time   10.3660: real time   10.3750
 BZINTS: Fermi energy: -3.276069;280.000000 electrons
         Band energy:***********;  BLOECHL correction:  0.000000
       DOS:  cpu time    0.0158: real time    0.0158
    CHARGE:  cpu time    0.1822: real time    0.1823
    MIXING:  cpu time    0.0027: real time    0.0066
    --------------------------------------------
      LOOP:  cpu time   10.6697: real time   10.6831

 eigenvalue-minimisations  :  4368
 total energy-change (2. order) : 0.2611430E+02  (-0.5685493E+01)
 number of electron     280.0000073 magnetization      -0.0000000
 augmentation part       19.2187378 magnetization       0.0089201

 Broyden mixing:
  rms(total) = 0.26287E+01    rms(broyden)= 0.26283E+01
  rms(prec ) = 0.28504E+01
  weight for this iteration     100.00

 eigenvalues of (default mixing * dielectric matrix)
  average eigenvalue GAMMA=   1.4192
  1.4192

 Free energy of the ion-electron system (eV)
  ---------------------------------------------------
  alpha Z        PSCENC =       186.25018696
  Ewald energy   TEWEN  =     23183.86270286
  -Hartree energ DENC   =    -35511.62603945
  -exchange      EXHF   =         0.00000000
  -V(xc)+E(xc)   XCENC  =      1085.62397516
  PAW double counting   =     15073.04800865   -15564.31211063
  entropy T*S    EENTRO =         0.00000000
  eigenvalues    EBANDS =     -4122.59098582
  atomic energy  EATOM  =     15171.73615219
  Solvation  Ediel_sol  =         0.00000000
  ---------------------------------------------------
  free energy    TOTEN  =      -498.00811009 eV

  energy without entropy =     -498.00811009  energy(sigma->0) =     -498.00811009


--------------------------------------------------------------------------------------------------------




--------------------------------------- Iteration      1(   7)  ---------------------------------------


    POTLOK:  cpu time    0.0817: real time    0.0914
    SETDIJ:  cpu time    0.0086: real time    0.0086
     EDDAV:  cpu time    9.9301: real time    9.9469
 BZINTS: Fermi energy: -2.835959;280.000000 electrons
         Band energy:***********;  BLOECHL correction:  0.000000
       DOS:  cpu time    0.0154: real time    0.0154
    CHARGE:  cpu time    0.1811: real time    0.1811
    MIXING:  cpu time    0.0019: real time    0.0024
    --------------------------------------------
      LOOP:  cpu time   10.2187: real time   10.2457

 eigenvalue-minimisations  :  4136
 total energy-change (2. order) : 0.5430941E+01  (-0.4409825E+01)
 number of electron     280.0000071 magnetization      -0.0000000
 augmentation part       18.7929355 magnetization       0.0013896

 Broyden mixing:
  rms(total) = 0.17017E+01    rms(broyden)= 0.17014E+01
  rms(prec ) = 0.18656E+01
  weight for this iteration     100.00

 eigenvalues of (default mixing * dielectric matrix)
  average eigenvalue GAMMA=   1.4949
  0.8950  2.0947

 Free energy of the ion-electron system (eV)
  ---------------------------------------------------
  alpha Z        PSCENC =       186.25018696
  Ewald energy   TEWEN  =     23183.86270286
  -Hartree energ DENC   =    -35777.38096703
  -exchange      EXHF   =         0.00000000
  -V(xc)+E(xc)   XCENC  =      1097.06967592
  PAW double counting   =     19838.24741886   -20332.63868838
  entropy T*S    EENTRO =         0.00000000
  eigenvalues    EBANDS =     -3859.72365034
  atomic energy  EATOM  =     15171.73615219
  Solvation  Ediel_sol  =         0.00000000
  ---------------------------------------------------
  free energy    TOTEN  =      -492.57716897 eV

  energy without entropy =     -492.57716897  energy(sigma->0) =     -492.57716897


--------------------------------------------------------------------------------------------------------




--------------------------------------- Iteration      1(   8)  ---------------------------------------


    POTLOK:  cpu time    0.0842: real time    0.0915
    SETDIJ:  cpu time    0.0087: real time    0.0087
     EDDAV:  cpu time    9.6945: real time    9.7006
 BZINTS: Fermi energy: -2.225806;280.000000 electrons
         Band energy:***********;  BLOECHL correction:  0.000000
       DOS:  cpu time    0.0157: real time    0.0157
    CHARGE:  cpu time    0.1778: real time    0.1778
    MIXING:  cpu time    0.0018: real time    0.0018
    --------------------------------------------
      LOOP:  cpu time    9.9826: real time    9.9960

 eigenvalue-minimisations  :  4000
 total energy-change (2. order) : 0.2071523E+01  (-0.1708174E+01)
 number of electron     280.0000072 magnetization       0.0000000
 augmentation part       18.5228692 magnetization       0.0001036

 Broyden mixing:
  rms(total) = 0.11765E+01    rms(broyden)= 0.11764E+01
  rms(prec ) = 0.12711E+01
  weight for this iteration     100.00

 eigenvalues of (default mixing * dielectric matrix)
  average eigenvalue GAMMA=   1.6199
  2.9827  1.2303  0.6468

 Free energy of the ion-electron system (eV)
  ---------------------------------------------------
  alpha Z        PSCENC =       186.25018696
  Ewald energy   TEWEN  =     23183.86270286
  -Hartree energ DENC   =    -35883.26553293
  -exchange      EXHF   =         0.00000000
  -V(xc)+E(xc)   XCENC  =      1102.26515180
  PAW double counting   =     23355.92375150   -23852.60273601
  entropy T*S    EENTRO =         0.00000000
  eigenvalues    EBANDS =     -3754.67532206
  atomic energy  EATOM  =     15171.73615219
  Solvation  Ediel_sol  =         0.00000000
  ---------------------------------------------------
  free energy    TOTEN  =      -490.50564569 eV

  energy without entropy =     -490.50564569  energy(sigma->0) =     -490.50564569


--------------------------------------------------------------------------------------------------------




--------------------------------------- Iteration      1(   9)  ---------------------------------------


    POTLOK:  cpu time    0.0903: real time    0.0925
    SETDIJ:  cpu time    0.0087: real time    0.0087
     EDDAV:  cpu time   11.1936: real time   11.2053
 BZINTS: Fermi energy: -2.109527;280.000000 electrons
         Band energy:***********;  BLOECHL correction:  0.000000
       DOS:  cpu time    0.0147: real time    0.0147
    CHARGE:  cpu time    0.1793: real time    0.1793
    MIXING:  cpu time    0.0020: real time    0.0020
    --------------------------------------------
      LOOP:  cpu time   11.4885: real time   11.5025

 eigenvalue-minimisations  :  4808
 total energy-change (2. order) : 0.5550699E-01  (-0.1461184E+01)
 number of electron     280.0000070 magnetization       0.0000000
 augmentation part       18.6116787 magnetization       0.0000365

 Broyden mixing:
  rms(total) = 0.68500E+00    rms(broyden)= 0.68478E+00
  rms(prec ) = 0.82761E+00
  weight for this iteration     100.00

 eigenvalues of (default mixing * dielectric matrix)
  average eigenvalue GAMMA=   1.5829
  3.6013  1.3745  0.6780  0.6780

 Free energy of the ion-electron system (eV)
  ---------------------------------------------------
  alpha Z        PSCENC =       186.25018696
  Ewald energy   TEWEN  =     23183.86270286
  -Hartree energ DENC   =    -35933.04003243
  -exchange      EXHF   =         0.00000000
  -V(xc)+E(xc)   XCENC  =      1104.39404617
  PAW double counting   =     27075.36025691   -27576.38597284
  entropy T*S    EENTRO =         0.00000000
  eigenvalues    EBANDS =     -3702.62747851
  atomic energy  EATOM  =     15171.73615219
  Solvation  Ediel_sol  =         0.00000000
  ---------------------------------------------------
  free energy    TOTEN  =      -490.45013870 eV

  energy without entropy =     -490.45013870  energy(sigma->0) =     -490.45013870


--------------------------------------------------------------------------------------------------------




--------------------------------------- Iteration      1(  10)  ---------------------------------------


    POTLOK:  cpu time    0.0894: real time    0.0918
    SETDIJ:  cpu time    0.0086: real time    0.0086
     EDDAV:  cpu time    9.8154: real time    9.8235
 BZINTS: Fermi energy: -1.859465;280.000000 electrons
         Band energy:***********;  BLOECHL correction:  0.000000
       DOS:  cpu time    0.0147: real time    0.0147
    CHARGE:  cpu time    0.1815: real time    0.1815
    MIXING:  cpu time    0.0022: real time    0.0022
    --------------------------------------------
      LOOP:  cpu time   10.1120: real time   10.1223

 eigenvalue-minimisations  :  4072
 total energy-change (2. order) : 0.4210667E+00  (-0.6134403E+00)
 number of electron     280.0000071 magnetization      -0.0000000
 augmentation part       18.6124476 magnetization      -0.0000082

 Broyden mixing:
  rms(total) = 0.34190E+00    rms(broyden)= 0.34146E+00
  rms(prec ) = 0.44239E+00
  weight for this iteration     100.00

 eigenvalues of (default mixing * dielectric matrix)
  average eigenvalue GAMMA=   1.5059
  3.8580  1.5599  0.9944  0.5587  0.5587

 Free energy of the ion-electron system (eV)
  ---------------------------------------------------
  alpha Z        PSCENC =       186.25018696
  Ewald energy   TEWEN  =     23183.86270286
  -Hartree energ DENC   =    -35953.04641865
  -exchange      EXHF   =         0.00000000
  -V(xc)+E(xc)   XCENC  =      1105.75134453
  PAW double counting   =     29640.13238237   -30141.86220096
  entropy T*S    EENTRO =         0.00000000
  eigenvalues    EBANDS =     -3682.85322129
  atomic energy  EATOM  =     15171.73615219
  Solvation  Ediel_sol  =         0.00000000
  ---------------------------------------------------
  free energy    TOTEN  =      -490.02907199 eV

  energy without entropy =     -490.02907199  energy(sigma->0) =     -490.02907199


--------------------------------------------------------------------------------------------------------




--------------------------------------- Iteration      1(  11)  ---------------------------------------


    POTLOK:  cpu time    0.0843: real time    0.0923
    SETDIJ:  cpu time    0.0087: real time    0.0087
     EDDAV:  cpu time   11.8139: real time   11.8198
 BZINTS: Fermi energy: -1.919480;280.000000 electrons
         Band energy:***********;  BLOECHL correction:  0.000000
       DOS:  cpu time    0.0148: real time    0.0148
    CHARGE:  cpu time    0.1794: real time    0.1795
    MIXING:  cpu time    0.0021: real time    0.0021
    --------------------------------------------
      LOOP:  cpu time   12.1032: real time   12.1172

 eigenvalue-minimisations  :  5136
 total energy-change (2. order) : 0.9166613E-01  (-0.3433865E+00)
 number of electron     280.0000071 magnetization       0.0000000
 augmentation part       18.6031165 magnetization      -0.0000694

 Broyden mixing:
  rms(total) = 0.24784E+00    rms(broyden)= 0.24752E+00
  rms(prec ) = 0.34456E+00
  weight for this iteration     100.00

 eigenvalues of (default mixing * dielectric matrix)
  average eigenvalue GAMMA=   1.4278
  3.8463  1.4962  1.0954  1.0954  0.5167  0.5167

 Free energy of the ion-electron system (eV)
  ---------------------------------------------------
  alpha Z        PSCENC =       186.25018696
  Ewald energy   TEWEN  =     23183.86270286
  -Hartree energ DENC   =    -35936.58977186
  -exchange      EXHF   =         0.00000000
  -V(xc)+E(xc)   XCENC  =      1105.46483736
  PAW double counting   =     30466.53692197   -30967.63404299
  entropy T*S    EENTRO =         0.00000000
  eigenvalues    EBANDS =     -3699.56439235
  atomic energy  EATOM  =     15171.73615219
  Solvation  Ediel_sol  =         0.00000000
  ---------------------------------------------------
  free energy    TOTEN  =      -489.93740586 eV

  energy without entropy =     -489.93740586  energy(sigma->0) =     -489.93740586


--------------------------------------------------------------------------------------------------------




--------------------------------------- Iteration      1(  12)  ---------------------------------------


    POTLOK:  cpu time    0.0879: real time    0.0912
    SETDIJ:  cpu time    0.0086: real time    0.0086
     EDDAV:  cpu time   11.6517: real time   11.6585
 BZINTS: Fermi energy: -1.920730;280.000000 electrons
         Band energy:***********;  BLOECHL correction:  0.000000
       DOS:  cpu time    0.0148: real time    0.0148
    CHARGE:  cpu time    0.1772: real time    0.1773
    MIXING:  cpu time    0.0022: real time    0.0022
    --------------------------------------------
      LOOP:  cpu time   11.9426: real time   11.9528

 eigenvalue-minimisations  :  5048
 total energy-change (2. order) : 0.1261954E+00  (-0.1913417E+00)
 number of electron     280.0000071 magnetization      -0.0000000
 augmentation part       18.5831693 magnetization       0.0000210

 Broyden mixing:
  rms(total) = 0.13830E+00    rms(broyden)= 0.13799E+00
  rms(prec ) = 0.17434E+00
  weight for this iteration     100.00

 eigenvalues of (default mixing * dielectric matrix)
  average eigenvalue GAMMA=   1.4491
  3.8242  2.1508  1.2238  0.9652  0.9652  0.5073  0.5073

 Free energy of the ion-electron system (eV)
  ---------------------------------------------------
  alpha Z        PSCENC =       186.25018696
  Ewald energy   TEWEN  =     23183.86270286
  -Hartree energ DENC   =    -35922.82052058
  -exchange      EXHF   =         0.00000000
  -V(xc)+E(xc)   XCENC  =      1105.00690823
  PAW double counting   =     30681.42210799   -31181.82693030
  entropy T*S    EENTRO =         0.00000000
  eigenvalues    EBANDS =     -3713.44181784
  atomic energy  EATOM  =     15171.73615219
  Solvation  Ediel_sol  =         0.00000000
  ---------------------------------------------------
  free energy    TOTEN  =      -489.81121049 eV

  energy without entropy =     -489.81121049  energy(sigma->0) =     -489.81121049


--------------------------------------------------------------------------------------------------------




--------------------------------------- Iteration      1(  13)  ---------------------------------------


    POTLOK:  cpu time    0.0862: real time    0.0927
    SETDIJ:  cpu time    0.0087: real time    0.0087
     EDDAV:  cpu time    9.5219: real time    9.5285
 BZINTS: Fermi energy: -1.989497;280.000000 electrons
         Band energy:***********;  BLOECHL correction:  0.000000
       DOS:  cpu time    0.0156: real time    0.0156
    CHARGE:  cpu time    0.1781: real time    0.1781
    MIXING:  cpu time    0.0023: real time    0.0023
    --------------------------------------------
      LOOP:  cpu time    9.8127: real time    9.8258

 eigenvalue-minimisations  :  3912
 total energy-change (2. order) : 0.3316763E-01  (-0.2981667E-01)
 number of electron     280.0000071 magnetization      -0.0000000
 augmentation part       18.5871704 magnetization       0.0000561

 Broyden mixing:
  rms(total) = 0.53572E-01    rms(broyden)= 0.53528E-01
  rms(prec ) = 0.60949E-01
  weight for this iteration     100.00

 eigenvalues of (default mixing * dielectric matrix)
  average eigenvalue GAMMA=   1.4465
  3.8230  2.4400  1.3008  1.0669  1.0669  0.8578  0.5081  0.5081

 Free energy of the ion-electron system (eV)
  ---------------------------------------------------
  alpha Z        PSCENC =       186.25018696
  Ewald energy   TEWEN  =     23183.86270286
  -Hartree energ DENC   =    -35903.51365971
  -exchange      EXHF   =         0.00000000
  -V(xc)+E(xc)   XCENC  =      1104.30544660
  PAW double counting   =     30844.22703232   -31344.35731679
  entropy T*S    EENTRO =         0.00000000
  eigenvalues    EBANDS =     -3732.28858729
  atomic energy  EATOM  =     15171.73615219
  Solvation  Ediel_sol  =         0.00000000
  ---------------------------------------------------
  free energy    TOTEN  =      -489.77804286 eV

  energy without entropy =     -489.77804286  energy(sigma->0) =     -489.77804286


--------------------------------------------------------------------------------------------------------




--------------------------------------- Iteration      1(  14)  ---------------------------------------


    POTLOK:  cpu time    0.0821: real time    0.0912
    SETDIJ:  cpu time    0.0086: real time    0.0086
     EDDAV:  cpu time   10.0583: real time   10.0685
 BZINTS: Fermi energy: -2.005751;280.000000 electrons
         Band energy:***********;  BLOECHL correction:  0.000000
       DOS:  cpu time    0.0157: real time    0.0157
    CHARGE:  cpu time    0.1812: real time    0.1812
    MIXING:  cpu time    0.0025: real time    0.0025
    --------------------------------------------
      LOOP:  cpu time   10.3485: real time   10.3678

 eigenvalue-minimisations  :  4192
 total energy-change (2. order) : 0.4808811E-03  (-0.4493228E-02)
 number of electron     280.0000071 magnetization       0.0000000
 augmentation part       18.5923245 magnetization       0.0000425

 Broyden mixing:
  rms(total) = 0.36169E-01    rms(broyden)= 0.36138E-01
  rms(prec ) = 0.45716E-01
  weight for this iteration     100.00

 eigenvalues of (default mixing * dielectric matrix)
  average eigenvalue GAMMA=   1.3966
  3.7906  2.4640  1.4186  1.1158  1.1158  0.9254  0.7251  0.5070  0.5070

 Free energy of the ion-electron system (eV)
  ---------------------------------------------------
  alpha Z        PSCENC =       186.25018696
  Ewald energy   TEWEN  =     23183.86270286
  -Hartree energ DENC   =    -35898.93624408
  -exchange      EXHF   =         0.00000000
  -V(xc)+E(xc)   XCENC  =      1104.12250897
  PAW double counting   =     30920.22374492   -31420.43242468
  entropy T*S    EENTRO =         0.00000000
  eigenvalues    EBANDS =     -3736.60418913
  atomic energy  EATOM  =     15171.73615219
  Solvation  Ediel_sol  =         0.00000000
  ---------------------------------------------------
  free energy    TOTEN  =      -489.77756198 eV

  energy without entropy =     -489.77756198  energy(sigma->0) =     -489.77756198


--------------------------------------------------------------------------------------------------------




--------------------------------------- Iteration      1(  15)  ---------------------------------------


    POTLOK:  cpu time    0.0913: real time    0.0918
    SETDIJ:  cpu time    0.0087: real time    0.0087
     EDDAV:  cpu time    9.7688: real time    9.7745
 BZINTS: Fermi energy: -1.999500;280.000000 electrons
         Band energy:***********;  BLOECHL correction:  0.000000
       DOS:  cpu time    0.0148: real time    0.0148
    CHARGE:  cpu time    0.1791: real time    0.1791
    MIXING:  cpu time    0.0027: real time    0.0027
    --------------------------------------------
      LOOP:  cpu time   10.0654: real time   10.0717

 eigenvalue-minimisations  :  4040
 total energy-change (2. order) : 0.1304655E-02  (-0.2092097E-02)
 number of electron     280.0000071 magnetization      -0.0000000
 augmentation part       18.5942612 magnetization       0.0000281

 Broyden mixing:
  rms(total) = 0.24480E-01    rms(broyden)= 0.24461E-01
  rms(prec ) = 0.26172E-01
  weight for this iteration     100.00

 eigenvalues of (default mixing * dielectric matrix)
  average eigenvalue GAMMA=   1.4229
  3.6880  2.7156  1.7311  1.2790  1.1226  0.9767  0.9767  0.5085  0.5085  0.7224

 Free energy of the ion-electron system (eV)
  ---------------------------------------------------
  alpha Z        PSCENC =       186.25018696
  Ewald energy   TEWEN  =     23183.86270286
  -Hartree energ DENC   =    -35900.26589697
  -exchange      EXHF   =         0.00000000
  -V(xc)+E(xc)   XCENC  =      1104.14676647
  PAW double counting   =     30923.60939793   -31423.87631187
  entropy T*S    EENTRO =         0.00000000
  eigenvalues    EBANDS =     -3735.23925489
  atomic energy  EATOM  =     15171.73615219
  Solvation  Ediel_sol  =         0.00000000
  ---------------------------------------------------
  free energy    TOTEN  =      -489.77625733 eV

  energy without entropy =     -489.77625733  energy(sigma->0) =     -489.77625733


--------------------------------------------------------------------------------------------------------




--------------------------------------- Iteration      1(  16)  ---------------------------------------


    POTLOK:  cpu time    0.0955: real time    0.0993
    SETDIJ:  cpu time    0.0100: real time    0.0100
     EDDAV:  cpu time   10.2724: real time   10.2860
 BZINTS: Fermi energy: -2.000750;280.000000 electrons
         Band energy:***********;  BLOECHL correction:  0.000000
       DOS:  cpu time    0.0147: real time    0.0147
    CHARGE:  cpu time    0.1784: real time    0.1784
    MIXING:  cpu time    0.0029: real time    0.0029
    --------------------------------------------
      LOOP:  cpu time   10.5739: real time   10.5914

 eigenvalue-minimisations  :  4320
 total energy-change (2. order) :-0.2509109E-03  (-0.7479715E-03)
 number of electron     280.0000071 magnetization      -0.0000000
 augmentation part       18.5942231 magnetization       0.0000068

 Broyden mixing:
  rms(total) = 0.16852E-01    rms(broyden)= 0.16842E-01
  rms(prec ) = 0.21166E-01
  weight for this iteration     100.00

 eigenvalues of (default mixing * dielectric matrix)
  average eigenvalue GAMMA=   1.4727
  3.5278  3.3735  2.0777  1.2513  1.2513  1.0415  1.0415  0.9348  0.5071  0.5071
  0.6855

 Free energy of the ion-electron system (eV)
  ---------------------------------------------------
  alpha Z        PSCENC =       186.25018696
  Ewald energy   TEWEN  =     23183.86270286
  -Hartree energ DENC   =    -35900.79841397
  -exchange      EXHF   =         0.00000000
  -V(xc)+E(xc)   XCENC  =      1104.14585808
  PAW double counting   =     30923.02469312   -31423.30476388
  entropy T*S    EENTRO =         0.00000000
  eigenvalues    EBANDS =     -3734.69292359
  atomic energy  EATOM  =     15171.73615219
  Solvation  Ediel_sol  =         0.00000000
  ---------------------------------------------------
  free energy    TOTEN  =      -489.77650824 eV

  energy without entropy =     -489.77650824  energy(sigma->0) =     -489.77650824


--------------------------------------------------------------------------------------------------------




--------------------------------------- Iteration      1(  17)  ---------------------------------------


    POTLOK:  cpu time    0.0857: real time    0.0910
    SETDIJ:  cpu time    0.0087: real time    0.0087
     EDDAV:  cpu time    9.7558: real time    9.7677
 BZINTS: Fermi energy: -1.999500;280.000000 electrons
         Band energy:***********;  BLOECHL correction:  0.000000
       DOS:  cpu time    0.0148: real time    0.0148
    CHARGE:  cpu time    0.1798: real time    0.1799
    MIXING:  cpu time    0.0030: real time    0.0030
    --------------------------------------------
      LOOP:  cpu time   10.0479: real time   10.0651

 eigenvalue-minimisations  :  4032
 total energy-change (2. order) : 0.2734241E-03  (-0.3167405E-03)
 number of electron     280.0000071 magnetization       0.0000000
 augmentation part       18.5936947 magnetization       0.0000060

 Broyden mixing:
  rms(total) = 0.68415E-02    rms(broyden)= 0.68294E-02
  rms(prec ) = 0.71270E-02
  weight for this iteration     100.00

 eigenvalues of (default mixing * dielectric matrix)
  average eigenvalue GAMMA=   1.5105
  3.7697  3.3274  2.1098  2.1098  1.0839  1.0839  1.0418  1.0418  0.8872  0.5070
  0.5070  0.6563

 Free energy of the ion-electron system (eV)
  ---------------------------------------------------
  alpha Z        PSCENC =       186.25018696
  Ewald energy   TEWEN  =     23183.86270286
  -Hartree energ DENC   =    -35901.07915215
  -exchange      EXHF   =         0.00000000
  -V(xc)+E(xc)   XCENC  =      1104.15223195
  PAW double counting   =     30932.95635134   -31433.21682280
  entropy T*S    EENTRO =         0.00000000
  eigenvalues    EBANDS =     -3734.43788518
  atomic energy  EATOM  =     15171.73615219
  Solvation  Ediel_sol  =         0.00000000
  ---------------------------------------------------
  free energy    TOTEN  =      -489.77623482 eV

  energy without entropy =     -489.77623482  energy(sigma->0) =     -489.77623482


--------------------------------------------------------------------------------------------------------




--------------------------------------- Iteration      1(  18)  ---------------------------------------


    POTLOK:  cpu time    0.0901: real time    0.0919
    SETDIJ:  cpu time    0.0087: real time    0.0087
     EDDAV:  cpu time    7.0524: real time    7.0583
 BZINTS: Fermi energy: -1.995749;280.000000 electrons
         Band energy:***********;  BLOECHL correction:  0.000000
       DOS:  cpu time    0.0147: real time    0.0147
    --------------------------------------------
      LOOP:  cpu time    7.1659: real time    7.1735

 eigenvalue-minimisations  :  2568
 total energy-change (2. order) :-0.1431090E-04  (-0.2680540E-04)
 number of electron     280.0000071 magnetization       0.0000000
 augmentation part       18.5936947 magnetization       0.0000060

 Free energy of the ion-electron system (eV)
  ---------------------------------------------------
  alpha Z        PSCENC =       186.25018696
  Ewald energy   TEWEN  =     23183.86270286
  -Hartree energ DENC   =    -35901.31069354
  -exchange      EXHF   =         0.00000000
  -V(xc)+E(xc)   XCENC  =      1104.16170683
  PAW double counting   =     30941.18583091   -31441.43862782
  entropy T*S    EENTRO =         0.00000000
  eigenvalues    EBANDS =     -3734.22350751
  atomic energy  EATOM  =     15171.73615219
  Solvation  Ediel_sol  =         0.00000000
  ---------------------------------------------------
  free energy    TOTEN  =      -489.77624913 eV

  energy without entropy =     -489.77624913  energy(sigma->0) =     -489.77624913


--------------------------------------------------------------------------------------------------------




 average (electrostatic) potential at core
  the test charge radii are     0.6991  0.7089  0.9911  0.6991  0.7215
  (the norm of the test charge is              1.0000)
       1 -60.2923       2 -60.4660       3 -60.4364       4 -60.0850       5 -60.2509
       6 -60.2047       7 -60.4440       8 -60.2377       9 -60.0544      10 -60.8965
      11 -60.3913      12 -60.8781      13 -60.0582      14 -60.2480      15 -59.9896
      16 -60.2695      17 -60.2854      18 -60.0566      19 -60.5643      20 -60.1959
      21 -60.1566      22 -60.3820      23 -60.3306      24 -60.3491      25 -74.1095
      26 -71.9357      27 -71.8704      28 -72.0951      29 -72.2647      30 -71.8573
      31 -71.9501      32 -74.4172      33 -73.6708      34 -72.4455      35 -73.3492
      36 -72.0418      37 -72.2230      38 -72.4346      39 -73.2273      40 -74.5324
      41 -74.0170      42 -71.9749      43 -71.9296      44 -72.2686      45 -72.2363
      46 -71.9269      47 -71.9340      48 -74.1651      49 -73.9734      50 -72.2734
      51 -72.0127      52 -71.9619      53 -71.9461      54 -72.1956      55 -72.1322
      56 -74.5588      57 -82.1662      58 -59.3685      59 -81.1489



 E-fermi :  -1.9957     XC(G=0):  -3.6818     alpha+bet : -2.7974


 spin component 1

 k-point     1 :       0.0000    0.0000    0.0000
  band No.  band energies     occupation 
      1     -27.4858      1.00000
      2     -27.4814      1.00000
      3     -27.4571      1.00000
      4     -27.4192      1.00000
      5     -27.4001      1.00000
      6     -26.8813      1.00000
      7     -26.2719      1.00000
      8     -26.0520      1.00000
      9     -25.9334      1.00000
     10     -25.7636      1.00000
     11     -25.1471      1.00000
     12     -25.0471      1.00000
     13     -24.9858      1.00000
     14     -24.0973      1.00000
     15     -23.8769      1.00000
     16     -23.7892      1.00000
     17     -23.7208      1.00000
     18     -23.6340      1.00000
     19     -23.4421      1.00000
     20     -22.9218      1.00000
     21     -22.7220      1.00000
     22     -22.6221      1.00000
     23     -21.9279      1.00000
     24     -21.8737      1.00000
     25     -21.6396      1.00000
     26     -21.6076      1.00000
     27     -21.5488      1.00000
     28     -21.4902      1.00000
     29     -21.3839      1.00000
     30     -21.1910      1.00000
     31     -21.0204      1.00000
     32     -20.9774      1.00000
     33     -20.8585      1.00000
     34     -20.4865      1.00000
     35     -20.4416      1.00000
     36     -20.3247      1.00000
     37     -20.1912      1.00000
     38     -19.9752      1.00000
[...]
   -.574E+01 -.287E+01 0.244E+03   0.605E+01 0.108E+01 -.247E+03   -.291E+00 0.182E+01 0.263E+01   0.506E-02 -.254E-02 0.401E-02
   -.625E+02 -.139E+02 0.107E+03   0.650E+02 0.145E+02 -.109E+03   -.267E+01 -.503E+00 0.190E+01   0.674E-02 0.219E-02 -.418E-02
   0.663E+02 -.179E+02 -.623E+02   -.666E+02 0.155E+02 0.605E+02   0.345E+00 0.227E+01 0.177E+01   0.140E-02 -.181E-02 0.616E-03
   0.315E+01 -.274E+02 -.733E+02   -.648E+00 0.292E+02 0.719E+02   -.245E+01 -.175E+01 0.136E+01   0.213E-02 0.252E-02 0.175E-02
   -.565E+00 -.176E+02 -.107E+03   -.212E+01 0.196E+02 0.107E+03   0.264E+01 -.191E+01 0.119E+00   -.141E-02 0.252E-02 0.150E-03
   -.276E+02 0.402E+02 -.894E+02   0.266E+02 -.390E+02 0.911E+02   0.103E+01 -.111E+01 -.169E+01   0.263E-02 0.324E-02 0.145E-02
   -.432E+01 0.101E+02 0.865E+02   0.431E+01 -.127E+02 -.850E+02   0.280E-01 0.268E+01 -.138E+01   0.421E-02 -.896E-02 0.596E-02
   0.520E+02 0.391E+02 -.627E+02   -.511E+02 -.376E+02 0.644E+02   -.927E+00 -.138E+01 -.174E+01   0.254E-02 0.773E-02 0.785E-02
   -.651E+01 0.150E+02 0.417E+02   0.680E+01 -.190E+02 -.405E+02   -.309E+00 0.382E+01 -.112E+01   -.765E-02 0.139E-02 0.476E-02
   0.541E+02 0.350E+02 0.315E+03   -.512E+02 -.333E+02 -.316E+03   -.278E+01 -.161E+01 0.780E+00   -.823E-02 0.619E-02 0.374E-02
   0.108E+02 0.149E+02 0.951E+02   -.136E+02 -.133E+02 -.942E+02   0.282E+01 -.147E+01 -.863E+00   0.490E-03 0.132E-02 0.523E-02
   0.724E+02 -.433E+01 0.797E+02   -.753E+02 0.493E+01 -.810E+02   0.297E+01 -.599E+00 0.130E+01   -.894E-02 0.203E-03 -.198E-02
   -.165E+02 0.403E+02 0.297E+03   0.172E+02 -.426E+02 -.299E+03   -.507E+00 0.238E+01 0.224E+01   -.149E-02 -.385E-02 -.343E-02
   -.546E+02 -.661E+02 -.676E+02   0.573E+02 0.675E+02 0.679E+02   -.271E+01 -.154E+01 -.289E+00   0.529E-02 0.347E-02 0.350E-02
   -.473E+02 -.434E+01 -.235E+03   0.475E+02 0.196E+01 0.233E+03   -.205E+00 0.234E+01 0.164E+01   -.551E-02 -.144E-02 -.466E-03
   0.264E+01 -.151E+02 -.151E+03   0.161E+00 0.170E+02 0.150E+03   -.277E+01 -.192E+01 0.521E+00   0.848E-03 0.472E-02 -.306E-02
   0.606E+00 -.259E+02 -.145E+03   -.304E+01 0.277E+02 0.143E+03   0.238E+01 -.173E+01 0.155E+01   -.430E-02 0.154E-02 -.191E-02
   0.612E+02 -.106E+03 0.173E+03   -.643E+02 0.108E+03 -.173E+03   0.318E+01 -.183E+01 -.454E+00   -.118E-01 0.101E-02 -.492E-03
   -.169E+02 -.181E+02 -.267E+03   0.169E+02 0.152E+02 0.269E+03   -.115E+00 0.286E+01 -.206E+01   -.462E-03 -.596E-02 0.533E-02
   -.800E+02 -.548E+01 -.105E+03   0.828E+02 0.579E+01 0.107E+03   -.296E+01 -.236E+00 -.142E+01   0.189E-02 -.964E-02 -.532E-02
   -.427E+02 0.361E+02 0.233E+03   0.443E+02 -.371E+02 -.237E+03   -.161E+01 0.980E+00 0.382E+01   0.746E-02 0.116E-02 0.207E-02
   -.204E+03 0.388E+00 0.329E+03   0.233E+03 0.121E+02 -.347E+03   -.293E+02 -.126E+02 0.181E+02   0.409E-02 0.256E-02 -.222E-02
   0.117E+03 -.175E+03 -.257E+03   -.146E+03 0.191E+03 0.272E+03   0.283E+02 -.158E+02 -.144E+02   -.689E-03 0.545E-02 0.120E-02
   0.221E+02 0.104E+03 0.484E+03   -.194E+02 -.125E+03 -.515E+03   -.283E+01 0.215E+02 0.309E+02   0.114E-01 0.123E-02 0.128E-01
   -.274E+02 0.786E+02 0.491E+03   0.246E+02 -.992E+02 -.522E+03   0.278E+01 0.205E+02 0.312E+02   -.230E-03 -.332E-03 0.531E-02
   0.189E+03 -.854E+02 -.511E+02   -.217E+03 0.106E+03 0.503E+02   0.279E+02 -.207E+02 0.822E+00   0.298E-02 0.127E-01 -.247E-02
   -.124E+03 -.331E+02 0.296E+03   0.151E+03 0.319E+02 -.321E+03   -.273E+02 0.124E+01 0.251E+02   0.549E-02 0.273E-02 -.262E-02
   -.955E+01 -.585E+02 -.104E+03   0.988E+01 0.634E+02 0.107E+03   -.318E+00 -.494E+01 -.352E+01   -.317E-02 -.261E-02 -.101E-02
   0.130E+02 0.473E+01 -.199E+03   -.125E+02 -.679E+01 0.210E+03   -.476E+00 0.201E+01 -.111E+02   0.326E-02 -.216E-02 -.192E-02
   0.584E+02 0.260E+01 -.360E+03   -.423E+02 0.358E+01 0.389E+03   -.160E+02 -.616E+01 -.292E+02   0.373E-02 0.289E-02 0.370E-02
   -.391E+01 0.839E+02 -.724E+02   -.153E+02 -.838E+02 0.841E+02   0.192E+02 -.152E+00 -.118E+02   -.465E-02 0.880E-03 -.879E-04
   -.292E+02 0.103E+03 0.108E+03   0.347E+02 -.138E+03 -.116E+03   -.552E+01 0.341E+02 0.782E+01   -.575E-03 -.491E-02 0.251E-02
   0.254E+01 0.952E+02 0.130E+03   -.522E+01 -.128E+03 -.137E+03   0.265E+01 0.329E+02 0.779E+01   0.458E-02 -.429E-02 0.511E-02
   0.322E+02 0.213E+01 -.418E+03   -.569E+02 0.686E+01 0.440E+03   0.247E+02 -.902E+01 -.215E+02   -.407E-02 0.304E-02 0.100E-02
   0.265E+01 0.109E+03 -.115E+03   0.138E+02 -.110E+03 0.134E+03   -.164E+02 0.176E+01 -.191E+02   0.635E-02 0.614E-02 0.577E-02
   0.310E+02 -.718E+01 0.150E+03   -.350E+02 0.487E+01 -.152E+03   0.404E+01 0.231E+01 0.189E+01   -.416E-02 0.179E-02 0.764E-03
   0.237E+02 0.963E+02 0.209E+03   -.257E+02 -.998E+02 -.212E+03   0.212E+01 0.361E+01 0.286E+01   -.116E-01 0.594E-02 0.104E-01
   -.186E+03 -.962E+02 -.608E+02   0.215E+03 0.115E+03 0.609E+02   -.296E+02 -.192E+02 -.128E+00   -.711E-02 0.371E-02 0.141E-02
   0.123E+03 0.528E+00 0.222E+03   -.152E+03 -.262E+01 -.243E+03   0.291E+02 0.209E+01 0.203E+02   -.589E-02 0.305E-02 -.182E-02
   -.429E+02 0.106E+03 0.532E+03   0.531E+02 -.127E+03 -.561E+03   -.103E+02 0.208E+02 0.287E+02   0.495E-02 -.494E-02 -.420E-02
   0.123E+02 0.235E+03 0.509E+03   -.127E+02 -.266E+03 -.527E+03   0.178E+00 0.313E+02 0.182E+02   -.920E-02 -.557E-03 0.448E-03
   0.198E+03 0.180E+02 0.255E+03   -.228E+03 -.464E+01 -.269E+03   0.301E+02 -.134E+02 0.133E+02   -.294E-02 -.134E-02 -.929E-03
   -.908E+02 -.188E+03 -.347E+03   0.116E+03 0.205E+03 0.367E+03   -.251E+02 -.163E+02 -.193E+02   0.499E-03 0.124E-02 -.810E-03
   -.263E+01 -.335E+02 0.101E+03   0.332E+01 0.359E+02 -.109E+03   -.691E+00 -.235E+01 0.826E+01   0.205E-02 0.338E-02 0.831E-02
   -.191E+02 -.218E+02 -.321E+03   0.191E+02 0.242E+02 0.332E+03   0.499E-01 -.247E+01 -.111E+02   -.730E-02 -.242E-02 -.548E-02
   -.239E+03 -.307E+02 -.245E+03   0.269E+03 0.467E+02 0.252E+03   -.302E+02 -.160E+02 -.758E+01   -.460E-02 -.486E-02 -.612E-03
   0.178E+03 -.188E+03 0.429E+03   -.207E+03 0.204E+03 -.441E+03   0.291E+02 -.153E+02 0.113E+02   -.144E-01 -.766E-02 0.124E-02
   -.366E+02 0.809E+02 -.495E+03   0.440E+02 -.103E+03 0.525E+03   -.738E+01 0.217E+02 -.304E+02   -.212E-02 -.750E-03 0.379E-02
   -.268E+02 0.419E+02 -.529E+03   0.255E+02 -.602E+02 0.562E+03   0.124E+01 0.183E+02 -.333E+02   0.243E-02 0.176E-02 0.265E-02
   0.179E+03 -.162E+03 0.220E+03   -.200E+03 0.188E+03 -.230E+03   0.208E+02 -.259E+02 0.105E+02   -.304E-02 0.121E-02 0.185E-02
   -.162E+03 -.149E+02 -.241E+03   0.193E+03 0.162E+02 0.258E+03   -.319E+02 -.137E+01 -.169E+02   0.383E-03 -.158E-01 -.130E-01
   -.439E+02 -.558E+01 0.655E+02   0.467E+02 0.652E+01 -.692E+02   -.278E+01 -.959E+00 0.364E+01   0.770E-02 -.599E-02 -.147E-02
   0.686E+02 -.265E+02 -.899E+03   -.703E+02 0.384E+02 0.919E+03   0.151E+01 -.120E+02 -.201E+02   0.127E-01 0.460E-02 0.153E-02
   -.770E+01 -.191E+03 -.172E+03   0.100E+02 0.215E+03 0.159E+03   -.232E+01 -.243E+02 0.129E+02   -.239E-03 -.333E-02 -.155E-02
   0.275E+02 0.208E+03 -.403E+03   -.325E+02 -.260E+03 0.432E+03   0.497E+01 0.517E+02 -.287E+02   -.189E-04 -.180E-02 -.256E-02
 -----------------------------------------------------------------------------------------------
   0.127E+02 -.498E+02 0.173E+02   0.568E-13 0.284E-12 -.341E-12   -.127E+02 0.498E+02 -.173E+02   -.192E-01 0.929E-02 0.480E-01


 POSITION                                       TOTAL-FORCE (eV/Angst)
 -----------------------------------------------------------------------------------
     -0.03047      2.27953      5.88789         0.037051      0.032348      0.043446
      1.13612      4.42839      6.13001        -0.014099      0.074631      0.066393
     -1.24489      4.29052      5.88914         0.054938      0.064536      0.073096
      5.42175      0.61625      7.27229        -0.000001     -0.001208      0.037324
      3.32852      4.64849      5.74831         0.024105      0.012588      0.026162
      1.16229      0.55627      6.55030        -0.026711      0.054777     -0.058127
     -3.59436      7.70096      7.22296         0.030402      0.006380      0.028640
     -2.08031      9.60221      7.51283        -0.008086     -0.046800      0.001256
     -4.37663      9.88501      7.62081         0.009857      0.026481      0.017680
      2.27421      5.89477      7.54028        -0.032418      0.072291      0.041454
      0.10494      9.51051      7.16419         0.029088     -0.001081      0.029646
     -2.63288      5.74223      6.93296        -0.005771      0.046089      0.005811
      6.67325      2.35050      6.56956        -0.008073     -0.110440      0.054883
      7.53908      4.19238      5.10715         0.030155     -0.000478      0.011937
      5.47497      4.33281      6.11776         0.079112      0.087209      0.085093
     11.82669      0.39140      6.75270        -0.011353      0.009844      0.000312
      9.69949      4.18565      5.08235         0.137836      0.055870     -0.013906
      7.78809      0.61581      7.42249         0.011864     -0.065565      0.066632
      3.45415      7.59998      8.34697        -0.003191      0.048120     -0.043149
      4.46898      9.79384      8.09824        -0.023991      0.013658     -0.010522
      2.15618      9.62918      7.98078         0.000158     -0.032631     -0.003260
      8.35663      6.11835      5.79129         0.079727      0.039003      0.022064
      6.61449     10.11394      8.35335        -0.049721     -0.003493      0.021600
      4.63094      5.93889      7.40705        -0.059590      0.076004      0.061668
     -0.01428      3.65520      5.88672        -0.001247     -0.060597      0.019364
      1.14766      1.66084      5.83490         0.040150     -0.069971      0.013649
     -2.11653     10.92116      7.74628         0.027388      0.016339      0.004790
      4.45888      4.14218      5.29665        -0.078900      0.036104     -0.033354
      2.15029      4.21165      5.32696        -0.027628      0.002025     -0.026775
      5.44885      1.89291      6.95610         0.059465      0.024887     -0.047136
     -4.35431     10.68531      6.56831         0.013849     -0.054696      0.013404
      0.04190      0.23266      7.33770         0.009500     -0.035813      0.016349
     -3.30673      8.98898      7.66408         0.032180     -0.044775     -0.032251
     -2.77248      6.77239      7.74443         0.021111      0.041087      0.006514
      1.10961      5.27007      7.23078        -0.023170     -0.093190     -0.102750
      1.25034      8.87053      7.35994         0.018723     -0.026076     -0.020941
     -1.04580      8.83818      7.12977        -0.039477      0.014708     -0.017167
      2.31391      6.84624      8.45204        -0.021239     -0.026497     -0.005745
     -1.48493      5.05865      6.99022         0.049213     -0.002857      0.021591
      9.48317      5.27482      5.98186         0.022278     -0.010590     -0.006027
      6.60406      3.51891      5.81783         0.020640      0.074216     -0.074487
      7.85702      1.87057      6.99766        -0.070587      0.040524     -0.088969
      4.33461     10.51903      6.98202         0.013054      0.001832      0.036199
     -2.04976      3.98723      4.90108        -0.083834     -0.030050     -0.083956
      8.63668      3.56434      4.64621        -0.163325      0.046021      0.045185
     11.77931      1.49188      6.02812        -0.043745     -0.012772     -0.021204
      8.68344     -0.03798      8.15526        -0.025527      0.042400     -0.030270
      0.11103     10.87552      7.10022         0.003634      0.018587     -0.030432
      3.32762      8.98614      8.40358         0.015933     -0.035366     -0.055427
      4.65211      7.08762      8.07382         0.008136     -0.077473     -0.019926
      7.37004      5.57481      5.13247        -0.049751     -0.114178     -0.021500
     -5.22901      9.72706      8.62678         0.053057     -0.006963     -0.024865
      5.49127      9.67140      8.92633        -0.004240      0.005592     -0.014645
      8.46580      7.36409      6.30665        -0.017010     -0.035442      0.031861
      5.66223      5.16113      7.15578         0.017494     -0.070882     -0.072660
      3.38814      5.53728      6.84711         0.013682     -0.021034     -0.058978
     -0.33350      6.28643      8.30749        -0.076265      0.009176      0.059269
     -0.25168      6.45879     11.49088         0.004147      0.055163     -0.009041
     -0.34710      5.46010     12.04229         0.001023     -0.057574      0.064199
 -----------------------------------------------------------------------------------
    total drift:                               -0.001830      0.000305     -0.004668


--------------------------------------------------------------------------------------------------------



  FREE ENERGIE OF THE ION-ELECTRON SYSTEM (eV)
  ---------------------------------------------------
  free  energy   TOTEN  =      -494.05178784 eV

  energy  without entropy=     -494.05178784  energy(sigma->0) =     -494.05178784



--------------------------------------------------------------------------------------------------------


    POTLOK:  cpu time    0.1138: real time    0.1138


--------------------------------------------------------------------------------------------------------


     LOOP+:  cpu time  195.2909: real time  195.5828
    4ORBIT:  cpu time    0.0000: real time    0.0000



 total charge     

# of ion       s       p       d       tot
------------------------------------------
    1        0.859   1.744   0.000   2.603
    2        0.844   1.743   0.000   2.587
    3        0.857   1.770   0.000   2.627
    4        0.866   1.752   0.000   2.618
    5        0.864   1.762   0.000   2.626
    6        0.874   1.767   0.000   2.641
    7        0.856   1.739   0.000   2.595
    8        0.860   1.745   0.000   2.604
    9        0.870   1.762   0.000   2.633
   10        0.865   1.768   0.000   2.634
   11        0.871   1.771   0.000   2.641
   12        0.879   1.800   0.000   2.678
   13        0.848   1.726   0.000   2.575
   14        0.853   1.736   0.000   2.590
   15        0.859   1.752   0.000   2.611
   16        0.867   1.749   0.000   2.616
   17        0.864   1.757   0.000   2.621
   18        0.863   1.745   0.000   2.608
   19        0.851   1.723   0.000   2.574
   20        0.859   1.731   0.000   2.591
   21        0.859   1.745   0.000   2.603
   22        0.861   1.734   0.000   2.594
   23        0.871   1.755   0.000   2.626
   24        0.864   1.750   0.000   2.614
   25        1.218   2.797   0.000   4.014
   26        1.275   2.665   0.000   3.940
   27        1.269   2.664   0.000   3.932
   28        1.285   2.646   0.000   3.932
   29        1.281   2.653   0.000   3.934
   30        1.266   2.649   0.000   3.915
   31        1.286   2.664   0.000   3.950
   32        1.234   2.764   0.000   3.998
   33        1.227   2.800   0.000   4.028
   34        1.271   2.676   0.000   3.947
   35        1.242   2.669   0.000   3.911
   36        1.273   2.669   0.000   3.942
   37        1.268   2.657   0.000   3.924
   38        1.261   2.653   0.000   3.914
   39        1.252   2.690   0.000   3.943
   40        1.231   2.782   0.000   4.013
   41        1.225   2.780   0.000   4.005
   42        1.267   2.636   0.000   3.903
   43        1.271   2.656   0.000   3.927
   44        1.278   2.655   0.000   3.934
   45        1.275   2.640   0.000   3.916
   46        1.265   2.655   0.000   3.920
   47        1.272   2.652   0.000   3.924
   48        1.231   2.765   0.000   3.997
   49        1.223   2.745   0.000   3.967
   50        1.268   2.654   0.000   3.923
   51        1.264   2.636   0.000   3.900
   52        1.284   2.642   0.000   3.926
   53        1.281   2.643   0.000   3.924
   54        1.263   2.640   0.000   3.902
   55        1.277   2.646   0.000   3.923
   56        1.227   2.772   0.000   3.999
   57        1.358   0.677  10.045  12.080
   58        1.037   1.438   0.000   2.475
   59        1.640   3.539   0.000   5.179
--------------------------------------------------
tot         65.028 133.596  10.045 208.669



 magnetization (x)

# of ion       s       p       d       tot
------------------------------------------
    1       -0.000  -0.000   0.000  -0.000
    2       -0.000  -0.000   0.000  -0.000
    3        0.000   0.000   0.000   0.000
    4        0.000   0.000   0.000   0.000
    5       -0.000  -0.000   0.000  -0.000
    6        0.000   0.000   0.000   0.000
    7       -0.000   0.000   0.000   0.000
    8        0.000   0.000   0.000   0.000
    9       -0.000   0.000   0.000  -0.000
   10       -0.000  -0.000   0.000  -0.000
   11        0.000  -0.000   0.000  -0.000
   12       -0.000  -0.000   0.000  -0.000
   13        0.000   0.000   0.000   0.000
   14        0.000   0.000   0.000   0.000
   15       -0.000  -0.000   0.000  -0.000
   16        0.000  -0.000   0.000  -0.000
   17        0.000   0.000   0.000   0.000
   18        0.000   0.000   0.000   0.000
   19       -0.000  -0.000   0.000  -0.000
   20       -0.000  -0.000   0.000  -0.000
   21        0.000   0.000   0.000   0.000
   22        0.000   0.000   0.000   0.000
   23        0.000   0.000   0.000   0.000
   24       -0.000  -0.000   0.000  -0.000
   25        0.000   0.000   0.000   0.000
   26       -0.000  -0.000   0.000  -0.000
   27        0.000   0.000   0.000   0.000
   28        0.000   0.000   0.000   0.000
   29        0.000   0.000   0.000   0.000
   30       -0.000   0.000   0.000   0.000
   31        0.000  -0.000   0.000  -0.000
   32       -0.000  -0.000   0.000  -0.000
   33        0.000   0.000   0.000   0.000
   34        0.000  -0.000   0.000   0.000
   35        0.000   0.000   0.000   0.000
   36       -0.000   0.000   0.000   0.000
   37       -0.000  -0.000   0.000  -0.000
   38        0.000   0.000   0.000   0.000
   39        0.000   0.000   0.000   0.000
   40        0.000   0.000   0.000   0.000
   41       -0.000  -0.000   0.000  -0.000
   42       -0.000   0.000   0.000   0.000
   43        0.000  -0.000   0.000  -0.000
   44       -0.000  -0.000   0.000  -0.000
   45        0.000  -0.000   0.000  -0.000
   46        0.000  -0.000   0.000  -0.000
   47        0.000   0.000   0.000   0.000
   48        0.000   0.000   0.000   0.000
   49        0.000   0.000   0.000   0.000
   50        0.000   0.000   0.000   0.000
   51        0.000   0.000   0.000   0.000
   52        0.000  -0.000   0.000  -0.000
   53        0.000  -0.000   0.000  -0.000
   54        0.000   0.000   0.000   0.000
   55       -0.000  -0.000   0.000  -0.000
   56       -0.000  -0.000   0.000  -0.000
   57       -0.000  -0.000  -0.000  -0.000
   58       -0.000  -0.000   0.000  -0.000
   59        0.000   0.000   0.000   0.000
--------------------------------------------------
tot          0.000   0.000  -0.000   0.000

 BZINTS: Fermi energy: -1.995749;280.000000 electrons
         Band energy:***********;  BLOECHL correction:  0.000000

 total amount of memory used by VASP MPI-rank0    82289. kBytes
=======================================================================

   base      :      30000. kBytes
   nonl-proj :      15904. kBytes
   fftplans  :       2997. kBytes
   grid      :       8796. kBytes
   one-center:        155. kBytes
   wavefun   :      24437. kBytes

  
  
 General timing and accounting informations for this job:
 ========================================================
  
                  Total CPU time used (sec):      209.384
                            User time (sec):      208.605
                          System time (sec):        0.779
                         Elapsed time (sec):      210.115
  
                   Maximum memory used (kb):      161916.
                   Average memory used (kb):           0.
  
                          Minor page faults:        51299
                          Major page faults:            0
                 Voluntary context switches:          999
