 vasp.5.4.4.18Apr17-6-g9f103f2a35 (build Nov  8 2022 18:58:45) complex           
 executed on             LinuxGNU date 2023.04.13  15:54:38
 running on   48 total cores
 distrk:  each k-point on   48 cores,    1 groups
 distr:  one band on NCORES_PER_BAND=  12 cores,    4 groups


--------------------------------------------------------------------------------------------------------


 INCAR:
 POTCAR:    PAW_PBE C 08Apr2002                   
 POTCAR:    PAW_PBE N 08Apr2002                   
 POTCAR:    PAW_PBE Ge_d 03Jul2007                
 POTCAR:    PAW_PBE C 08Apr2002                   
 POTCAR:    PAW_PBE O 08Apr2002                   
 POTCAR:    PAW_PBE C 08Apr2002                   
   SHA256 =  253f7b50bb8d59471dbedb8285d89021f4a42ed1a2c5d38a03a736e69125dd95 C/
   COPYR  = (c) Copyright 08Apr2002 Georg Kresse                                
   COPYR  = This file is part of the software VASP. Any use, copying, and all ot
   COPYR  = If you do not have a valid VASP license, you may not use, copy or di
   VRHFIN =C: s2p2                                                              
   LEXCH  = PE                                                                  
   EATOM  =   147.1560 eV,   10.8157 Ry                                         
                                                                                
   TITEL  = PAW_PBE C 08Apr2002                                                 
   LULTRA =        F    use ultrasoft PP ?                                      
   IUNSCR =        1    unscreen: 0-lin 1-nonlin 2-no                           
   RPACOR =    1.200    partial core radius                                     
   POMASS =   12.011; ZVAL   =    4.000    mass and valenz                      
   RCORE  =    1.500    outmost cutoff radius                                   
   RWIGS  =    1.630; RWIGS  =    0.863    wigner-seitz radius (au A)           
   ENMAX  =  400.000; ENMIN  =  300.000 eV                                      
   ICORE  =        2    local potential                                         
   LCOR   =        T    correct aug charges                                     
   LPAW   =        T    paw PP                                                  
   EAUG   =  644.873                                                            
   DEXC   =    0.000                                                            
   RMAX   =    1.529    core radius for proj-oper                               
   RAUG   =    1.300    factor for augmentation sphere                          
   RDEP   =    1.501    radius for radial grids                                 
   RDEPT  =    1.300    core radius for aug-charge                              
                                                                                
   Atomic configuration                                                         
    4 entries                                                                   
     n  l   j            E        occ.                                          
     1  0  0.50      -273.3789   2.0000                                         
     2  0  0.50       -13.7508   2.0000                                         
     2  1  0.50        -5.2854   2.0000                                         
     3  2  1.50        -5.4423   0.0000                                         
   Description                                                                  
     l       E           TYP  RCUT    TYP  RCUT                                 
     0    -13.7508458     23  1.200                                             
     0     -8.2022199     23  1.200                                             
     1     -5.2854383     23  1.500                                             
     1     34.0145650     23  1.500                                             
     2     -5.4423304      7  1.500                                             
  local pseudopotential read in
  partial core-charges read in
  partial kinetic energy density read in
  atomic valenz-charges read in
  non local Contribution for L=           0  read in
    real space projection operators read in
  non local Contribution for L=           0  read in
    real space projection operators read in
  non local Contribution for L=           1  read in
    real space projection operators read in
  non local Contribution for L=           1  read in
    real space projection operators read in
    PAW grid and wavefunctions read in

   number of l-projection  operators is LMAX  =           4
   number of lm-projection operators is LMMAX =           8

 POTCAR:    PAW_PBE N 08Apr2002                   
   SHA256 =  e053789ff3a61a86a1b75d8a110fcc91f86041011e7b0817c7c99e4e8a6349d7 N/
   COPYR  = (c) Copyright 08Apr2002 Georg Kresse                                
   COPYR  = This file is part of the software VASP. Any use, copying, and all ot
   COPYR  = If you do not have a valid VASP license, you may not use, copy or di
   VRHFIN =N: s2p3                                                              
   LEXCH  = PE                                                                  
   EATOM  =   264.5486 eV,   19.4438 Ry                                         
                                                                                
   TITEL  = PAW_PBE N 08Apr2002                                                 
   LULTRA =        F    use ultrasoft PP ?                                      
   IUNSCR =        1    unscreen: 0-lin 1-nonlin 2-no                           
   RPACOR =    1.200    partial core radius                                     
   POMASS =   14.001; ZVAL   =    5.000    mass and valenz                      
   RCORE  =    1.500    outmost cutoff radius                                   
   RWIGS  =    1.400; RWIGS  =    0.741    wigner-seitz radius (au A)           
   ENMAX  =  400.000; ENMIN  =  300.000 eV                                      
   ICORE  =        2    local potential                                         
   LCOR   =        T    correct aug charges                                     
   LPAW   =        T    paw PP                                                  
   EAUG   =  627.112                                                            
   DEXC   =    0.000                                                            
   RMAX   =    1.529    core radius for proj-oper                               
   RAUG   =    1.300    factor for augmentation sphere                          
   RDEP   =    1.514    radius for radial grids                                 
   RDEPT  =    1.338    core radius for aug-charge                              
                                                                                
   Atomic configuration                                                         
    4 entries                                                                   
     n  l   j            E        occ.                                          
     1  0  0.50      -384.7179   2.0000                                         
     2  0  0.50       -18.5828   2.0000                                         
     2  1  0.50        -7.0898   3.0000                                         
     3  2  1.50        -6.8029   0.0000                                         
   Description                                                                  
     l       E           TYP  RCUT    TYP  RCUT                                 
     0    -18.5828119     23  1.200                                             
     0    -13.5018863     23  1.200                                             
     1     -7.0897853     23  1.500                                             
     1      9.5240782     23  1.500                                             
     2     -6.8029130      7  1.500                                             
  local pseudopotential read in
  partial core-charges read in
  partial kinetic energy density read in
  atomic valenz-charges read in
  non local Contribution for L=           0  read in
    real space projection operators read in
  non local Contribution for L=           0  read in
    real space projection operators read in
  non local Contribution for L=           1  read in
    real space projection operators read in
  non local Contribution for L=           1  read in
    real space projection operators read in
    PAW grid and wavefunctions read in

   number of l-projection  operators is LMAX  =           4
   number of lm-projection operators is LMMAX =           8

 POTCAR:    PAW_PBE Ge_d 03Jul2007                
   SHA256 =  944b26c40d2d7c4f4eb1ff3a2e8dbfdd7129146276cd341854bfd5c0e57780ed Ge
   COPYR  = (c) Copyright 03Jul2007 Georg Kresse                                
   COPYR  = This file is part of the software VASP. Any use, copying, and all ot
   COPYR  = If you do not have a valid VASP license, you may not use, copy or di
   VRHFIN =Ge: 3d4s4p                                                           
   LEXCH  = PE                                                                  
   EATOM  =  2596.2402 eV,  190.8183 Ry                                         
                                                                                
   TITEL  = PAW_PBE Ge_d 03Jul2007                                              
   LULTRA =        F    use ultrasoft PP ?                                      
   IUNSCR =        1    unscreen: 0-lin 1-nonlin 2-no                           
   RPACOR =    2.000    partial core radius                                     
   POMASS =   72.610; ZVAL   =   14.000    mass and valenz                      
   RCORE  =    2.300    outmost cutoff radius                                   
   RWIGS  =    2.300; RWIGS  =    1.217    wigner-seitz radius (au A)           
   ENMAX  =  310.294; ENMIN  =  232.720 eV                                      
   ICORE  =        3    local potential                                         
   LCOR   =        T    correct aug charges                                     
   LPAW   =        T    paw PP                                                  
   EAUG   =  531.356                                                            
   DEXC   =    0.000                                                            
   RMAX   =    2.342    core radius for proj-oper                               
   RAUG   =    1.300    factor for augmentation sphere                          
   RDEP   =    2.318    radius for radial grids                                 
   RDEPT  =    1.783    core radius for aug-charge                              
                                                                                
   Atomic configuration                                                         
    9 entries                                                                   
     n  l   j            E        occ.                                          
     1  0  0.50    -10959.8463   2.0000                                         
     2  0  0.50     -1371.6056   2.0000                                         
     2  1  1.50     -1198.4791   6.0000                                         
     3  0  0.50      -168.4733   2.0000                                         
     3  1  1.50      -115.6019   6.0000                                         
     3  2  2.50       -29.3106  10.0000                                         
     4  0  0.50       -11.7309   2.0000                                         
     4  1  0.50        -3.8952   2.0000                                         
     4  3  2.50        -4.0817   0.0000                                         
   Description                                                                  
     l       E           TYP  RCUT    TYP  RCUT                                 
     2    -29.3105938     23  2.200                                             
     2    -13.6058260     23  2.200                                             
     0    -11.7309493     23  2.300                                             
     0     -7.4578696     23  2.300                                             
     1     -3.8952261     23  2.300                                             
     1      6.1178114     23  2.300                                             
     3     -1.3605826     23  2.300                                             
  local pseudopotential read in
  partial core-charges read in
  partial kinetic energy density read in
  atomic valenz-charges read in
  non local Contribution for L=           2  read in
    real space projection operators read in
  non local Contribution for L=           2  read in
    real space projection operators read in
  non local Contribution for L=           0  read in
    real space projection operators read in
  non local Contribution for L=           0  read in
    real space projection operators read in
  non local Contribution for L=           1  read in
    real space projection operators read in
  non local Contribution for L=           1  read in
    real space projection operators read in
    PAW grid and wavefunctions read in

   number of l-projection  operators is LMAX  =           6
   number of lm-projection operators is LMMAX =          18

 POTCAR:    PAW_PBE C 08Apr2002                   
   SHA256 =  253f7b50bb8d59471dbedb8285d89021f4a42ed1a2c5d38a03a736e69125dd95 C/
   COPYR  = (c) Copyright 08Apr2002 Georg Kresse                                
   COPYR  = This file is part of the software VASP. Any use, copying, and all ot
   COPYR  = If you do not have a valid VASP license, you may not use, copy or di
   VRHFIN =C: s2p2                                                              
   LEXCH  = PE                                                                  
   EATOM  =   147.1560 eV,   10.8157 Ry                                         
                                                                                
   TITEL  = PAW_PBE C 08Apr2002                                                 
   LULTRA =        F    use ultrasoft PP ?                                      
   IUNSCR =        1    unscreen: 0-lin 1-nonlin 2-no                           
   RPACOR =    1.200    partial core radius                                     
   POMASS =   12.011; ZVAL   =    4.000    mass and valenz                      
   RCORE  =    1.500    outmost cutoff radius                                   
   RWIGS  =    1.630; RWIGS  =    0.863    wigner-seitz radius (au A)           
   ENMAX  =  400.000; ENMIN  =  300.000 eV                                      
   ICORE  =        2    local potential                                         
   LCOR   =        T    correct aug charges                                     
   LPAW   =        T    paw PP                                                  
   EAUG   =  644.873                                                            
   DEXC   =    0.000                                                            
   RMAX   =    1.529    core radius for proj-oper                               
   RAUG   =    1.300    factor for augmentation sphere                          
   RDEP   =    1.501    radius for radial grids                                 
   RDEPT  =    1.300    core radius for aug-charge                              
                                                                                
   Atomic configuration                                                         
    4 entries                                                                   
     n  l   j            E        occ.                                          
     1  0  0.50      -273.3789   2.0000                                         
     2  0  0.50       -13.7508   2.0000                                         
     2  1  0.50        -5.2854   2.0000                                         
     3  2  1.50        -5.4423   0.0000                                         
   Description                                                                  
     l       E           TYP  RCUT    TYP  RCUT                                 
     0    -13.7508458     23  1.200                                             
     0     -8.2022199     23  1.200                                             
     1     -5.2854383     23  1.500                                             
     1     34.0145650     23  1.500                                             
     2     -5.4423304      7  1.500                                             
  local pseudopotential read in
  partial core-charges read in
  partial kinetic energy density read in
  atomic valenz-charges read in
  non local Contribution for L=           0  read in
    real space projection operators read in
  non local Contribution for L=           0  read in
    real space projection operators read in
  non local Contribution for L=           1  read in
    real space projection operators read in
  non local Contribution for L=           1  read in
    real space projection operators read in
    PAW grid and wavefunctions read in

   number of l-projection  operators is LMAX  =           4
   number of lm-projection operators is LMMAX =           8

 POTCAR:    PAW_PBE O 08Apr2002                   
   SHA256 =  818f92134a0a090dccd8ba1447fa70422a3b330e708bb4f08108d8ae51209ddf O/
   COPYR  = (c) Copyright 08Apr2002 Georg Kresse                                
   COPYR  = This file is part of the software VASP. Any use, copying, and all ot
   COPYR  = If you do not have a valid VASP license, you may not use, copy or di
   VRHFIN =O: s2p4                                                              
   LEXCH  = PE                                                                  
   EATOM  =   432.3788 eV,   31.7789 Ry                                         
                                                                                
   TITEL  = PAW_PBE O 08Apr2002                                                 
   LULTRA =        F    use ultrasoft PP ?                                      
   IUNSCR =        1    unscreen: 0-lin 1-nonlin 2-no                           
   RPACOR =    1.200    partial core radius                                     
   POMASS =   16.000; ZVAL   =    6.000    mass and valenz                      
   RCORE  =    1.520    outmost cutoff radius                                   
   RWIGS  =    1.550; RWIGS  =    0.820    wigner-seitz radius (au A)           
   ENMAX  =  400.000; ENMIN  =  300.000 eV                                      
   ICORE  =        2    local potential                                         
   LCOR   =        T    correct aug charges                                     
   LPAW   =        T    paw PP                                                  
   EAUG   =  605.392                                                            
   DEXC   =    0.000                                                            
   RMAX   =    1.553    core radius for proj-oper                               
   RAUG   =    1.300    factor for augmentation sphere                          
   RDEP   =    1.550    radius for radial grids                                 
   RDEPT  =    1.329    core radius for aug-charge                              
                                                                                
   Atomic configuration                                                         
    4 entries                                                                   
     n  l   j            E        occ.                                          
     1  0  0.50      -514.6923   2.0000                                         
     2  0  0.50       -23.9615   2.0000                                         
     2  1  0.50        -9.0305   4.0000                                         
     3  2  1.50        -9.5241   0.0000                                         
   Description                                                                  
     l       E           TYP  RCUT    TYP  RCUT                                 
     0    -23.9615318     23  1.200                                             
     0     -9.5240782     23  1.200                                             
     1     -9.0304911     23  1.520                                             
     1      8.1634956     23  1.520                                             
     2     -9.5240782      7  1.500                                             
  local pseudopotential read in
  partial core-charges read in
  partial kinetic energy density read in
  kinetic energy density of atom read in
  atomic valenz-charges read in
  non local Contribution for L=           0  read in
    real space projection operators read in
  non local Contribution for L=           0  read in
    real space projection operators read in
  non local Contribution for L=           1  read in
    real space projection operators read in
  non local Contribution for L=           1  read in
    real space projection operators read in
    PAW grid and wavefunctions read in

   number of l-projection  operators is LMAX  =           4
   number of lm-projection operators is LMMAX =           8


 ----------------------------------------------------------------------------- 
|                                                                             |
|  ADVICE TO THIS USER RUNNING 'VASP/VAMP'   (HEAR YOUR MASTER'S VOICE ...):  |
|                                                                             |
|      You have a (more or less) 'large supercell' and for larger cells       |
|      it might be more efficient to use real space projection opertators     |
|      So try LREAL= Auto  in the INCAR   file.                               |
|      Mind:          For very  accurate calculation you might also keep the  |
|      reciprocal projection scheme          (i.e. LREAL=.FALSE.)             |
|                                                                             |
 ----------------------------------------------------------------------------- 

  PAW_PBE C 08Apr2002                   :
 energy of atom  1       EATOM= -147.1560
 kinetic energy error for atom=    0.0132 (will be added to EATOM!!)
  PAW_PBE N 08Apr2002                   :
 energy of atom  2       EATOM= -264.5486
 kinetic energy error for atom=    0.0298 (will be added to EATOM!!)
  PAW_PBE Ge_d 03Jul2007                :
 energy of atom  3       EATOM=-2596.2402
 kinetic energy error for atom=    0.0090 (will be added to EATOM!!)
  PAW_PBE C 08Apr2002                   :
 energy of atom  4       EATOM= -147.1560
 kinetic energy error for atom=    0.0132 (will be added to EATOM!!)
  PAW_PBE O 08Apr2002                   :
 energy of atom  5       EATOM= -432.3788
 kinetic energy error for atom=    0.0458 (will be added to EATOM!!)


 POSCAR: POSCAR-c3n4                             
  positions in direct lattice
  velocities in cartesian coordinates
 exchange correlation table for  LEXCH =        8
   RHO(1)=    0.500       N(1)  =     2000
   RHO(2)=  100.500       N(2)  =     4000



--------------------------------------------------------------------------------------------------------


 ion  position               nearest neighbor table
   1  0.076  0.147  0.458-  26 1.23  46 1.24
   2  0.287  0.443  0.493-  25 1.32  29 1.36  35 1.41
   3  0.129  0.437  0.488-  44 1.33  25 1.35  39 1.40
   4  0.492  0.055  0.474-  30 1.30  27 1.37  48 1.42
   5  0.423  0.421  0.474-  29 1.31  28 1.35  56 1.42
   6  0.084  0.017  0.493-  31 1.27  32 1.42  26 1.43
   7  0.064  0.704  0.513-  54 1.34  33 1.36  34 1.40
   8  0.347  0.901  0.458-  27 1.29  37 1.33
   9  0.063  0.859  0.522-  33 1.31  52 1.37  31 1.41
  10  0.452  0.588  0.514-  38 1.32  35 1.36  56 1.39
  11  0.486  0.891  0.471-  36 1.32  37 1.35  48 1.39
  12  0.100  0.575  0.505-  34 1.31  40 1.38  39 1.38
  13  0.648  0.202  0.493-  41 1.33  42 1.38  30 1.38
  14  0.801  0.367  0.482-  41 1.34  51 1.37  45 1.38
  15  0.562  0.417  0.447-  28 1.30  55 1.32
  16  0.926  0.021  0.471-  43 1.30  32 1.40  46 1.41
  17  0.963  0.399  0.478-  45 1.31  44 1.35  40 1.42
  18  0.638  0.048  0.516-  42 1.31  47 1.36  48 1.42
  19  0.612  0.726  0.511-  50 1.32  38 1.36  49 1.42
  20  0.780  0.882  0.512-  53 1.31  43 1.36  49 1.42
  21  0.627  0.894  0.508-  47 1.32  36 1.35  49 1.43
  22  0.929  0.538  0.495-  51 1.32  54 1.35  40 1.42
  23  0.921  0.871  0.530-  52 1.30  53 1.36  32 1.44
  24  0.594  0.576  0.469-  55 1.33  50 1.34  56 1.42
  25  0.188  0.396  0.486-   2 1.32   3 1.35
  26  0.139  0.126  0.477-   1 1.23   6 1.43
  27  0.389  0.999  0.462-   8 1.29   4 1.37
  28  0.465  0.365  0.459-  15 1.30   5 1.35
  29  0.325  0.382  0.480-   5 1.31   2 1.36
  30  0.546  0.155  0.476-   4 1.30  13 1.38
  31  0.126  0.965  0.506-   6 1.27   9 1.41
  32  0.977  0.972  0.496-  16 1.40   6 1.42  23 1.44
  33  0.109  0.808  0.516-   9 1.31   7 1.36
  34  0.134  0.672  0.518-  12 1.31   7 1.40
  35  0.351  0.548  0.514-  10 1.36   2 1.41  57 2.13
  36  0.537  0.843  0.472-  11 1.32  21 1.35
  37  0.385  0.840  0.458-   8 1.33  11 1.35
  38  0.516  0.683  0.538-  10 1.32  19 1.36
  39  0.167  0.541  0.503-  12 1.38   3 1.40  57 2.04
  40  0.999  0.504  0.493-  12 1.38  17 1.42  22 1.42
  41  0.700  0.303  0.483-  13 1.33  14 1.34
  42  0.689  0.148  0.523-  18 1.31  13 1.38
  43  0.828  0.974  0.472-  16 1.30  20 1.36
  44  0.031  0.369  0.475-   3 1.33  17 1.35
  45  0.866  0.333  0.468-  17 1.31  14 1.38
  46  0.987  0.123  0.445-   1 1.24  16 1.41
  47  0.676  0.988  0.537-  21 1.32  18 1.36
  48  0.537  0.997  0.486-  11 1.39   4 1.42  18 1.42
  49  0.674  0.834  0.517-  19 1.42  20 1.42  21 1.43
  50  0.652  0.678  0.476-  19 1.32  24 1.34
  51  0.831  0.469  0.491-  22 1.32  14 1.37
  52  0.964  0.819  0.544-  23 1.30   9 1.37
  53  0.822  0.835  0.546-  20 1.31  23 1.36
  54  0.965  0.639  0.501-   7 1.34  22 1.35
  55  0.630  0.517  0.447-  15 1.32  24 1.33
  56  0.489  0.529  0.485-  10 1.39  24 1.42   5 1.42
  57  0.305  0.654  0.542-  39 2.04  35 2.13
  58  0.247  0.553  0.684-  59 1.14
  59  0.264  0.561  0.750-  58 1.14


IMPORTANT INFORMATION: All symmetrisations will be switched off!
NOSYMM: (Re-)initialisation of all symmetry stuff for point group C_1.



 KPOINTS: K-Points                                

Automatic generation of k-mesh.
Space group operators:
 irot       det(A)        alpha          n_x          n_y          n_z        tau_x        tau_y        tau_z
    1     1.000000     0.000000     1.000000     0.000000     0.000000     0.000000     0.000000     0.000000
 
 Subroutine IBZKPT returns following result:
 ===========================================
 
 Found      5 irreducible k-points:
 
 Following reciprocal coordinates:
            Coordinates               Weight
  0.000000  0.000000  0.000000      1.000000
  0.333333  0.000000  0.000000      2.000000
  0.000000  0.333333  0.000000      2.000000
  0.333333  0.333333  0.000000      2.000000
 -0.333333  0.333333  0.000000      2.000000
 
 Following cartesian coordinates:
            Coordinates               Weight
  0.000000  0.000000  0.000000      1.000000
  0.024277  0.014368  0.000000      2.000000
  0.000396  0.028736  0.000000      2.000000
  0.024673  0.043104  0.000000      2.000000
 -0.023881  0.014368  0.000000      2.000000
 
 TETIRR: Found     24 inequivalent tetrahedra from       54


--------------------------------------------------------------------------------------------------------




 Dimension of arrays:
   k-points           NKPTS =      5   k-points in BZ     NKDIM =      5   number of bands    NBANDS=    172
   number of dos      NEDOS =   4000   number of ions     NIONS =     59
   non local maximal  LDIM  =      6   non local SUM 2l+1 LMDIM =     18
   total plane-waves  NPLWV = 576000
   max r-space proj   IRMAX =      1   max aug-charges    IRDMAX=   5923
   dimension x,y,z NGX =    80 NGY =   80 NGZ =   90
   dimension x,y,z NGXF=   160 NGYF=  160 NGZF=  180
   support grid    NGXF=   160 NGYF=  160 NGZF=  180
   ions per type =              24  32   1   1   1
   NGX,Y,Z   is equivalent  to a cutoff of   8.58,  8.74,  8.91 a.u.
   NGXF,Y,Z  is equivalent  to a cutoff of  17.15, 17.48, 17.81 a.u.

 SYSTEM =  unknown system                          
 POSCAR =  POSCAR-c3n4                             

 Startparameter for this run:
   NWRITE =      2    write-flag & timer
   PREC   = normal    normal or accurate (medium, high low for compatibility)
   ISTART =      0    job   : 0-new  1-cont  2-samecut
   ICHARG =      2    charge: 1-file 2-atom 10-const
   ISPIN  =      2    spin polarized calculation?
   LNONCOLLINEAR =      F non collinear calculations
   LSORBIT =      F    spin-orbit coupling
   INIWAV =      1    electr: 0-lowe 1-rand  2-diag
   LASPH  =      F    aspherical Exc in radial PAW
   METAGGA=      F    non-selfconsistent MetaGGA calc.

 Electronic Relaxation 1
   ENCUT  =  440.0 eV  32.34 Ry    5.69 a.u.  26.52 26.03 28.73*2*pi/ulx,y,z
   ENINI  =  440.0     initial cutoff
   ENAUG  =  644.9 eV  augmentation charge cutoff
   NELM   =    100;   NELMIN=  2; NELMDL= -5     # of ELM steps 
   EDIFF  = 0.1E-03   stopping-criterion for ELM
   LREAL  =      F    real-space projection
   NLSPLINE    = F    spline interpolate recip. space projectors
   LCOMPAT=      F    compatible to vasp.4.4
   GGA_COMPAT  = T    GGA compatible to vasp.4.4-vasp.4.6
   LMAXPAW     = -100 max onsite density
   LMAXMIX     =    2 max onsite mixed and CHGCAR
   VOSKOWN=      0    Vosko Wilk Nusair interpolation
   ROPT   =    0.00000   0.00000   0.00000   0.00000
   ROPT   =    0.00000
 Ionic relaxation
   EDIFFG = -.1E-01   stopping-criterion for IOM
   NSW    =      0    number of steps for IOM
   NBLOCK =      1;   KBLOCK =      1    inner block; outer block 
   IBRION =     -1    ionic relax: 0-MD 1-quasi-New 2-CG
   NFREE  =      0    steps in history (QN), initial steepest desc. (CG)
   ISIF   =      2    stress and relaxation
   IWAVPR =     10    prediction:  0-non 1-charg 2-wave 3-comb
   ISYM   =      0    0-nonsym 1-usesym 2-fastsym
   LCORR  =      T    Harris-Foulkes like correction to forces

   POTIM  = 0.5000    time-step for ionic-motion
   TEIN   =    0.0    initial temperature
   TEBEG  =    0.0;   TEEND  =   0.0 temperature during run
   SMASS  =  -3.00    Nose mass-parameter (am)
   estimated Nose-frequenzy (Omega)   =  0.10E-29 period in steps =****** mass=  -0.549E-26a.u.
   SCALEE = 1.0000    scale energy and forces
   NPACO  =    256;   APACO  = 16.0  distance and # of slots for P.C.
   PSTRESS=    0.0 pullay stress

  Mass of Ions in am
   POMASS =  12.01 14.00 72.61 12.01 16.00
  Ionic Valenz
   ZVAL   =   4.00  5.00 14.00  4.00  6.00
  Atomic Wigner-Seitz radii
   RWIGS  =  -1.00 -1.00 -1.00 -1.00 -1.00
  virtual crystal weights 
   VCA    =   1.00  1.00  1.00  1.00  1.00
   NELECT =     280.0000    total number of electrons
   NUPDOWN=      -1.0000    fix difference up-down

 DOS related values:
   EMIN   = -14.00;   EMAX   =  6.00  energy-range for DOS
   EFERMI =   0.00
   ISMEAR =    -5;   SIGMA  =   0.20  broadening in eV -4-tet -1-fermi 0-gaus

 Electronic relaxation 2 (details)
   IALGO  =     38    algorithm
   LDIAG  =      T    sub-space diagonalisation (order eigenvalues)
   LSUBROT=      F    optimize rotation matrix (better conditioning)
   TURBO    =      0    0=normal 1=particle mesh
   IRESTART =      0    0=no restart 2=restart with 2 vectors
   NREBOOT  =      0    no. of reboots
   NMIN     =      0    reboot dimension
   EREF     =   0.00    reference energy to select bands
   IMIX   =      4    mixing-type and parameters
     AMIX     =   0.25;   BMIX     =  0.00
     AMIX_MAG =   1.00;   BMIX_MAG =  0.00
     AMIN     =   0.10
     WC   =   100.;   INIMIX=   1;  MIXPRE=   1;  MAXMIX= -45

 Intra band minimization:
   WEIMIN = 0.0000     energy-eigenvalue tresh-hold
   EBREAK =  0.15E-06  absolut break condition
   DEPER  =   0.30     relativ break condition  

   TIME   =   0.40     timestep for ELM

  volume/ion in A,a.u.               =      57.36       387.07
  Fermi-wavevector in a.u.,A,eV,Ry     =   0.713369  1.348072  6.923938  0.508895
  Thomas-Fermi vector in A             =   1.800989

 Write flags
   LWAVE        =      F    write WAVECAR
   LDOWNSAMPLE  =      F    k-point downsampling of WAVECAR
   LCHARG       =      F    write CHGCAR
   LVTOT        =      F    write LOCPOT, total local potential
   LVHAR        =      F    write LOCPOT, Hartree potential only
   LELF         =      F    write electronic localiz. function (ELF)
   LORBIT       =     11    0 simple, 1 ext, 2 COOP (PROOUT), +10 PAW based schemes


 Dipole corrections
   LMONO  =      F    monopole corrections only (constant potential shift)
   LDIPOL =      F    correct potential (dipole corrections)
   IDIPOL =      0    1-x, 2-y, 3-z, 4-all directions 
   EPSILON=  1.0000000 bulk dielectric constant

 Exchange correlation treatment:
   GGA     =    --    GGA type
   LEXCH   =     8    internal setting for exchange type
   VOSKOWN=      0    Vosko Wilk Nusair interpolation
   LHFCALC =     F    Hartree Fock is set to
   LHFONE  =     F    Hartree Fock one center treatment
   AEXX    =    0.0000 exact exchange contribution

 Linear response parameters
   LEPSILON=     F    determine dielectric tensor
   LRPA    =     F    only Hartree local field effects (RPA)
   LNABLA  =     F    use nabla operator in PAW spheres
   LVEL    =     F    velocity operator in full k-point grid
   LINTERFAST=   F  fast interpolation
   KINTER  =     0    interpolate to denser k-point grid
   CSHIFT  =0.1000    complex shift for real part using Kramers Kronig
   OMEGAMAX=  -1.0    maximum frequency
   DEG_THRESHOLD= 0.2000000E-02 threshold for treating states as degnerate
   RTIME   =   -0.100 relaxation time in fs
  (WPLASMAI=    0.000 imaginary part of plasma frequency in eV, 0.658/RTIME)
   DFIELD  = 0.0000000 0.0000000 0.0000000 field for delta impulse in time

 Orbital magnetization related:
   ORBITALMAG=     F  switch on orbital magnetization
   LCHIMAG   =     F  perturbation theory with respect to B field
   DQ        =  0.001000  dq finite difference perturbation B field
   LLRAUG    =     F  two centre corrections for induced B field



--------------------------------------------------------------------------------------------------------


 Static calculation
 charge density and potential will be updated during run
 spin polarized calculation
 Variant of blocked Davidson
 Davidson routine will perform the subspace rotation
 perform sub-space diagonalisation
    after iterative eigenvector-optimisation
 modified Broyden-mixing scheme, WC =      100.0
 initial mixing is a Kerker type mixing with AMIX =  0.2500 and BMIX =      0.0001
 Hartree-type preconditioning will be used
 using additional bands           32
 reciprocal scheme for non local part
 use partial core corrections
 calculate Harris-corrections to forces   (improved forces if not selfconsistent)
 use gradient corrections 
 use of overlap-Matrix (Vanderbilt PP)
 Fermi weights with tetrahedron method with Bloechl corrections


--------------------------------------------------------------------------------------------------------


  energy-cutoff  :      440.00
  volume of cell :     3384.08
      direct lattice vectors                 reciprocal lattice vectors
    15.504635143 -0.213629331  0.000000000     0.065027115  0.038485816 -0.000000000
    -7.752317571 13.098613913  0.000000000     0.001060547  0.076971633 -0.000000000
     0.000000000  0.000000000 16.800000000    -0.000000000 -0.000000000  0.059523810

  length of vectors
    15.506106810 15.220779027 16.800000000     0.075562450  0.076978939  0.059523810



 k-points in units of 2pi/SCALE and weight: K-Points                                
   0.00000000  0.00000000  0.00000000       0.111
   0.02427679  0.01436804  0.00000000       0.222
   0.00039594  0.02873608  0.00000000       0.222
   0.02467273  0.04310411  0.00000000       0.222
  -0.02388085  0.01436804  0.00000000       0.222

 k-points in reciprocal lattice and weights: K-Points                                
   0.00000000  0.00000000  0.00000000       0.111
   0.33333333  0.00000000  0.00000000       0.222
   0.00000000  0.33333333  0.00000000       0.222
   0.33333333  0.33333333  0.00000000       0.222
  -0.33333333  0.33333333  0.00000000       0.222

 position of ions in fractional coordinates (direct lattice) 
   0.07564707  0.14744087  0.45766566
   0.28678121  0.44300910  0.49311428
   0.12850107  0.43664450  0.48815549
   0.49157057  0.05534454  0.47448119
   0.42257619  0.42112885  0.47440707
   0.08397306  0.01723032  0.49342346
   0.06434007  0.70394949  0.51285454
   0.34704396  0.90111194  0.45781884
   0.06306376  0.85943531  0.52186817
   0.45215593  0.58794755  0.51354483
   0.48594730  0.89140432  0.47120963
   0.09969271  0.57483984  0.50495877
   0.64782124  0.20221959  0.49294588
   0.80061390  0.36730143  0.48186538
   0.56222961  0.41689717  0.44710940
   0.92596326  0.02078014  0.47090608
   0.96303860  0.39889559  0.47763801
   0.63761678  0.04800134  0.51632710
   0.61187530  0.72591914  0.51089097
   0.78021378  0.88223000  0.51201781
   0.62690643  0.89388075  0.50846678
   0.92883949  0.53779243  0.49488122
   0.92054562  0.87141061  0.52992401
   0.59412350  0.57566601  0.46942992
   0.18785746  0.39618102  0.48561164
   0.13889773  0.12555329  0.47705613
   0.38901566  0.99942142  0.46221412
   0.46479829  0.36467368  0.45884821
   0.32478393  0.38158786  0.48013573
   0.54581614  0.15541676  0.47595134
   0.12585798  0.96547131  0.50607839
   0.97724839  0.97239526  0.49559948
   0.10909459  0.80794329  0.51564377
   0.13407705  0.67244709  0.51830739
   0.35050532  0.54765845  0.51402443
   0.53671167  0.84335837  0.47158225
   0.38503583  0.84018944  0.45842601
   0.51585406  0.68303557  0.53806028
   0.16672715  0.54121881  0.50304583
   0.99878858  0.50400856  0.49304191
   0.70011616  0.30349175  0.48264798
   0.68937793  0.14819572  0.52336596
   0.82809706  0.97355800  0.47190821
   0.03108762  0.36933951  0.47460886
   0.86587739  0.33297619  0.46849366
   0.98693173  0.12314929  0.44482958
   0.67569569  0.98823286  0.53715902
   0.53747625  0.99658292  0.48582136
   0.67370159  0.83435916  0.51690152
   0.65229912  0.67797353  0.47571512
   0.83148234  0.46913924  0.49107059
   0.96421024  0.81934030  0.54409602
   0.82169294  0.83504818  0.54555541
   0.96536895  0.63943061  0.50090305
   0.62983316  0.51650060  0.44723053
   0.48938866  0.52860492  0.48461813
   0.30507506  0.65428254  0.54189658
   0.24655828  0.55293069  0.68352382
   0.26370088  0.56114548  0.75012317

 position of ions in cartesian coordinates  (Angst):
   0.02987183  1.91511060  7.68878312
   1.01209084  5.74154029  8.28431998
  -1.39264473  5.69198618  8.20101216
   7.19257391  0.61992281  7.97128401
   3.28716498  5.42592959  7.97003883
   1.16839676  0.20775422  8.28951406
  -4.45967071  9.20701767  8.61595622
  -1.60491598 11.72917864  7.69135655
  -5.68483495 11.24393910  8.76738530
   2.45255666  7.60470417  8.62755321
   0.62398613 11.57234846  7.91632175
  -2.91064180  7.50830778  8.48330726
   8.47656145  2.51040273  8.28149082
   9.56578904  4.64010507  8.09533840
   5.48524575  5.34066632  7.51143799
  14.19562827  0.07437809  7.91122211
  11.83919691  5.01924598  8.02431861
   9.51389386  0.49253736  8.67429522
   3.85934754  9.37782001  8.58296829
   5.25760285 11.38931366  8.60189921
   2.79030798 11.57467319  8.54224185
  10.23217965  6.84590801  8.31400452
   7.51727219 11.21761554  8.90272330
   4.74892233  7.41350466  7.88642265
  -0.15865974  5.14929038  8.15827563
   1.18022974  1.61490142  8.01454300
  -1.71628633 13.00793010  7.76519719
   4.37946170  4.67742518  7.70864990
   2.07746605  4.92888865  8.06628035
   7.25783995  1.91914182  7.99598250
  -5.53325810 12.61944903  8.50211694
   7.61356286 12.52826121  8.32607132
  -4.57196122 10.55963147  8.66281542
  -3.13420763  8.77948202  8.70756422
   1.18883491  7.09868837  8.63561042
   1.78353675 10.93216837  7.92258173
  -0.54357535 10.92306211  7.70155701
   2.70302031  8.83661763  9.03941263
  -1.61065650  7.05359841  8.45116994
  11.57861810  6.38844302  8.28310411
   8.50228119  3.82575594  8.10848604
   9.53969302  1.79388724  8.79254818
   5.29201194 12.57535459  7.92805798
  -2.38123492  4.83119437  7.97342887
  10.84377579  4.17654974  7.87069351
  14.34732391  1.40224743  7.47313701
   2.81532022 12.80013229  9.02427161
   0.60754593 12.93903418  8.16179890
   3.97728011 10.78502608  8.68394551
   4.85779375  8.74116334  7.99201394
   9.25491393  5.96744478  8.24998589
   8.59794182 10.52623865  9.14081319
   6.26649062 10.76243595  9.16533090
  10.01062428  8.16942353  8.41517124
   5.76125666  6.63089115  7.51347292
   3.48987933  6.81944400  8.14158456
  -0.34212850  8.50502144  9.10386258
  -0.46369806  7.18995348 11.48320016
  -0.26159206  7.29389378 12.60206926



--------------------------------------------------------------------------------------------------------


 k-point  1 :   0.0000 0.0000 0.0000  plane waves:   70941
 k-point  2 :   0.3333 0.0000 0.0000  plane waves:   70894
 k-point  3 :   0.0000 0.3333 0.0000  plane waves:   70932
 k-point  4 :   0.3333 0.3333 0.0000  plane waves:   70893
 k-point  5 :  -0.3333 0.3333 0.0000  plane waves:   70941

 maximum and minimum number of plane-waves per node :      5930     5886

 maximum number of plane-waves:     70941
 maximum index in each direction: 
   IXMAX=   26   IYMAX=   26   IZMAX=   28
   IXMIN=  -26   IYMIN=  -26   IZMIN=  -28


 parallel 3D FFT for wavefunctions:
    minimum data exchange during FFTs selected (reduces bandwidth)
 parallel 3D FFT for charge:
    minimum data exchange during FFTs selected (reduces bandwidth)


 total amount of memory used by VASP MPI-rank0   119579. kBytes
=======================================================================

   base      :      30000. kBytes
   nonl-proj :      26900. kBytes
   fftplans  :       5294. kBytes
   grid      :      16143. kBytes
   one-center:        155. kBytes
   wavefun   :      41087. kBytes

     INWAV:  cpu time    0.0001: real time    0.0001
 Broyden mixing: mesh for mixing (old mesh)
   NGX = 53   NGY = 53   NGZ = 57
  (NGX  =160   NGY  =160   NGZ  =180)
  gives a total of 160113 points

 initial charge density was supplied:
 charge density of overlapping atoms calculated
 number of electron     280.0000000 magnetization       2.0000000
 keeping initial charge density in first step


--------------------------------------------------------------------------------------------------------


 Maximum index for augmentation-charges          348 (set IRDMAX)


--------------------------------------------------------------------------------------------------------


 First call to EWALD:  gamma=   0.118
 Maximum number of real-space cells 3x 3x 3
 Maximum number of reciprocal cells 3x 3x 3

    FEWALD:  cpu time    0.0029: real time    0.0029


--------------------------------------- Iteration      1(   1)  ---------------------------------------


    POTLOK:  cpu time    0.1581: real time    0.1706
    SETDIJ:  cpu time    0.0103: real time    0.0104
     EDDAV:  cpu time   18.3350: real time   18.3554
 BZINTS: Fermi energy:  7.698774;280.000000 electrons
         Band energy:***********;  BLOECHL correction: -0.015988
       DOS:  cpu time    0.1091: real time    0.1091
    --------------------------------------------
      LOOP:  cpu time   18.6126: real time   18.6456

 eigenvalue-minimisations  :  4248
 total energy-change (2. order) : 0.2608792E+04  (-0.9926800E+04)
 number of electron     280.0000000 magnetization       2.0000000
 augmentation part      280.0000000 magnetization       2.0000000

 Free energy of the ion-electron system (eV)
  ---------------------------------------------------
  alpha Z        PSCENC =       110.10985993
  Ewald energy   TEWEN  =     29796.95750572
  -Hartree energ DENC   =    -41514.22519925
  -exchange      EXHF   =         0.00000000
  -V(xc)+E(xc)   XCENC  =      1061.78440283
  PAW double counting   =     11453.83848114   -11942.90478952
  entropy T*S    EENTRO =         0.00000000
  eigenvalues    EBANDS =     -1528.50485833
  atomic energy  EATOM  =     15171.73615219
  Solvation  Ediel_sol  =         0.00000000
  ---------------------------------------------------
  free energy    TOTEN  =      2608.79155470 eV

  energy without entropy =     2608.79155470  energy(sigma->0) =     2608.79155470


--------------------------------------------------------------------------------------------------------




--------------------------------------- Iteration      1(   2)  ---------------------------------------


     EDDAV:  cpu time   20.4612: real time   20.4805
 BZINTS: Fermi energy: -0.504067;280.000000 electrons
         Band energy:***********;  BLOECHL correction: -0.073222
       DOS:  cpu time    0.0230: real time    0.0230
    --------------------------------------------
      LOOP:  cpu time   20.4841: real time   20.5035

 eigenvalue-minimisations  :  4944
 total energy-change (2. order) :-0.2476917E+04  (-0.2362400E+04)
 number of electron     280.0000000 magnetization       2.0000000
 augmentation part      280.0000000 magnetization       2.0000000

 Free energy of the ion-electron system (eV)
  ---------------------------------------------------
  alpha Z        PSCENC =       110.10985993
  Ewald energy   TEWEN  =     29796.95750572
  -Hartree energ DENC   =    -41514.22519925
  -exchange      EXHF   =         0.00000000
  -V(xc)+E(xc)   XCENC  =      1061.78440283
  PAW double counting   =     11453.83848114   -11942.90478952
  entropy T*S    EENTRO =         0.00000000
  eigenvalues    EBANDS =     -4005.42235260
  atomic energy  EATOM  =     15171.73615219
  Solvation  Ediel_sol  =         0.00000000
  ---------------------------------------------------
  free energy    TOTEN  =       131.87406043 eV

  energy without entropy =      131.87406043  energy(sigma->0) =      131.87406043


--------------------------------------------------------------------------------------------------------




--------------------------------------- Iteration      1(   3)  ---------------------------------------


     EDDAV:  cpu time   17.6818: real time   17.6998
 BZINTS: Fermi energy: -5.269338;280.000000 electrons
         Band energy:***********;  BLOECHL correction: -0.006985
       DOS:  cpu time    0.0250: real time    0.0251
    --------------------------------------------
      LOOP:  cpu time   17.7069: real time   17.7249

 eigenvalue-minimisations  :  4104
 total energy-change (2. order) :-0.6252836E+03  (-0.6206082E+03)
 number of electron     280.0000000 magnetization       2.0000000
 augmentation part      280.0000000 magnetization       2.0000000

 Free energy of the ion-electron system (eV)
  ---------------------------------------------------
  alpha Z        PSCENC =       110.10985993
  Ewald energy   TEWEN  =     29796.95750572
  -Hartree energ DENC   =    -41514.22519925
  -exchange      EXHF   =         0.00000000
  -V(xc)+E(xc)   XCENC  =      1061.78440283
  PAW double counting   =     11453.83848114   -11942.90478952
  entropy T*S    EENTRO =         0.00000000
  eigenvalues    EBANDS =     -4630.70595403
  atomic energy  EATOM  =     15171.73615219
  Solvation  Ediel_sol  =         0.00000000
  ---------------------------------------------------
  free energy    TOTEN  =      -493.40954100 eV

  energy without entropy =     -493.40954100  energy(sigma->0) =     -493.40954100


--------------------------------------------------------------------------------------------------------




--------------------------------------- Iteration      1(   4)  ---------------------------------------


     EDDAV:  cpu time   18.0997: real time   18.1148
 BZINTS: Fermi energy: -5.688547;280.000000 electrons
         Band energy:***********;  BLOECHL correction:  0.000000
       DOS:  cpu time    0.0171: real time    0.0171
    --------------------------------------------
      LOOP:  cpu time   18.1168: real time   18.1319

 eigenvalue-minimisations  :  4232
 total energy-change (2. order) :-0.2887214E+02  (-0.2813419E+02)
 number of electron     280.0000000 magnetization       2.0000000
 augmentation part      280.0000000 magnetization       2.0000000

 Free energy of the ion-electron system (eV)
  ---------------------------------------------------
  alpha Z        PSCENC =       110.10985993
  Ewald energy   TEWEN  =     29796.95750572
  -Hartree energ DENC   =    -41514.22519925
  -exchange      EXHF   =         0.00000000
  -V(xc)+E(xc)   XCENC  =      1061.78440283
  PAW double counting   =     11453.83848114   -11942.90478952
  entropy T*S    EENTRO =         0.00000000
  eigenvalues    EBANDS =     -4659.57809086
  atomic energy  EATOM  =     15171.73615219
  Solvation  Ediel_sol  =         0.00000000
  ---------------------------------------------------
  free energy    TOTEN  =      -522.28167784 eV

  energy without entropy =     -522.28167784  energy(sigma->0) =     -522.28167784


--------------------------------------------------------------------------------------------------------




--------------------------------------- Iteration      1(   5)  ---------------------------------------


     EDDAV:  cpu time   20.1015: real time   20.1295
 BZINTS: Fermi energy: -5.720430;280.000000 electrons
         Band energy:***********;  BLOECHL correction:  0.000000
       DOS:  cpu time    0.0175: real time    0.0175
    CHARGE:  cpu time    0.2977: real time    0.2978
    MIXING:  cpu time    0.0045: real time    0.0046
    --------------------------------------------
      LOOP:  cpu time   20.4213: real time   20.4495

 eigenvalue-minimisations  :  4832
 total energy-change (2. order) :-0.1214421E+01  (-0.1199947E+01)
 number of electron     280.0000025 magnetization       0.0000001
 augmentation part       20.1420660 magnetization       0.0285157

 Broyden mixing:
  rms(total) = 0.42091E+01    rms(broyden)= 0.42061E+01
  rms(prec ) = 0.45816E+01
  weight for this iteration     100.00

 Free energy of the ion-electron system (eV)
  ---------------------------------------------------
  alpha Z        PSCENC =       110.10985993
  Ewald energy   TEWEN  =     29796.95750572
  -Hartree energ DENC   =    -41514.22519925
  -exchange      EXHF   =         0.00000000
  -V(xc)+E(xc)   XCENC  =      1061.78440283
  PAW double counting   =     11453.83848114   -11942.90478952
  entropy T*S    EENTRO =         0.00000000
  eigenvalues    EBANDS =     -4660.79251170
  atomic energy  EATOM  =     15171.73615219
  Solvation  Ediel_sol  =         0.00000000
  ---------------------------------------------------
  free energy    TOTEN  =      -523.49609867 eV

  energy without entropy =     -523.49609867  energy(sigma->0) =     -523.49609867


--------------------------------------------------------------------------------------------------------




--------------------------------------- Iteration      1(   6)  ---------------------------------------


    POTLOK:  cpu time    0.1486: real time    0.1571
    SETDIJ:  cpu time    0.0090: real time    0.0090
     EDDAV:  cpu time   18.6981: real time   18.7119
 BZINTS: Fermi energy: -5.076519;280.000000 electrons
         Band energy:***********;  BLOECHL correction:  0.000000
       DOS:  cpu time    0.0175: real time    0.0175
    CHARGE:  cpu time    0.2962: real time    0.2962
    MIXING:  cpu time    0.0046: real time    0.0048
    --------------------------------------------
      LOOP:  cpu time   19.1739: real time   19.1964

 eigenvalue-minimisations  :  4400
 total energy-change (2. order) : 0.2825870E+02  (-0.6899678E+01)
 number of electron     280.0000023 magnetization      -0.0000000
 augmentation part       18.9571207 magnetization       0.0047555

 Broyden mixing:
  rms(total) = 0.26600E+01    rms(broyden)= 0.26594E+01
  rms(prec ) = 0.28592E+01
  weight for this iteration     100.00

 eigenvalues of (default mixing * dielectric matrix)
  average eigenvalue GAMMA=   1.3029
  1.3029

 Free energy of the ion-electron system (eV)
  ---------------------------------------------------
  alpha Z        PSCENC =       110.10985993
  Ewald energy   TEWEN  =     29796.95750572
  -Hartree energ DENC   =    -41818.54033200
  -exchange      EXHF   =         0.00000000
  -V(xc)+E(xc)   XCENC  =      1077.14584545
  PAW double counting   =     14952.92729634   -15444.20088923
  entropy T*S    EENTRO =         0.00000000
  eigenvalues    EBANDS =     -4341.37283930
  atomic energy  EATOM  =     15171.73615219
  Solvation  Ediel_sol  =         0.00000000
  ---------------------------------------------------
  free energy    TOTEN  =      -495.23740091 eV

  energy without entropy =     -495.23740091  energy(sigma->0) =     -495.23740091


--------------------------------------------------------------------------------------------------------




--------------------------------------- Iteration      1(   7)  ---------------------------------------


    POTLOK:  cpu time    0.1529: real time    0.1546
    SETDIJ:  cpu time    0.0089: real time    0.0089
     EDDAV:  cpu time   19.1399: real time   19.1598
 BZINTS: Fermi energy: -4.470118;280.000000 electrons
         Band energy:***********;  BLOECHL correction:  0.000000
       DOS:  cpu time    0.0166: real time    0.0166
    CHARGE:  cpu time    0.2892: real time    0.2892
    MIXING:  cpu time    0.0046: real time    0.0046
    --------------------------------------------
      LOOP:  cpu time   19.6122: real time   19.6339

 eigenvalue-minimisations  :  4512
 total energy-change (2. order) :-0.1256229E+01  (-0.1394841E+02)
 number of electron     280.0000022 magnetization      -0.0000000
 augmentation part       18.5611012 magnetization      -0.0012706

 Broyden mixing:
  rms(total) = 0.20235E+01    rms(broyden)= 0.20227E+01
  rms(prec ) = 0.23252E+01
  weight for this iteration     100.00

 eigenvalues of (default mixing * dielectric matrix)
  average eigenvalue GAMMA=   1.1399
  1.6485  0.6312

 Free energy of the ion-electron system (eV)
  ---------------------------------------------------
  alpha Z        PSCENC =       110.10985993
  Ewald energy   TEWEN  =     29796.95750572
  -Hartree energ DENC   =    -42053.26112012
  -exchange      EXHF   =         0.00000000
  -V(xc)+E(xc)   XCENC  =      1087.44540315
  PAW double counting   =     19019.20243867   -19512.90954035
  entropy T*S    EENTRO =         0.00000000
  eigenvalues    EBANDS =     -4115.77432892
  atomic energy  EATOM  =     15171.73615219
  Solvation  Ediel_sol  =         0.00000000
  ---------------------------------------------------
  free energy    TOTEN  =      -496.49362973 eV

  energy without entropy =     -496.49362973  energy(sigma->0) =     -496.49362973


--------------------------------------------------------------------------------------------------------




--------------------------------------- Iteration      1(   8)  ---------------------------------------


    POTLOK:  cpu time    0.1519: real time    0.1679
    SETDIJ:  cpu time    0.0090: real time    0.0090
     EDDAV:  cpu time   19.1281: real time   19.1698
 BZINTS: Fermi energy: -3.819955;280.000000 electrons
         Band energy:***********;  BLOECHL correction:  0.000000
       DOS:  cpu time    0.0186: real time    0.0186
    CHARGE:  cpu time    0.2966: real time    0.2978
    MIXING:  cpu time    0.0047: real time    0.0047
    --------------------------------------------
      LOOP:  cpu time   19.6089: real time   19.6679

 eigenvalue-minimisations  :  4392
 total energy-change (2. order) : 0.8345856E+01  (-0.9509171E+00)
 number of electron     280.0000020 magnetization      -0.0000000
 augmentation part       18.4583331 magnetization      -0.0021468

 Broyden mixing:
  rms(total) = 0.15171E+01    rms(broyden)= 0.15169E+01
  rms(prec ) = 0.16596E+01
  weight for this iteration     100.00

 eigenvalues of (default mixing * dielectric matrix)
  average eigenvalue GAMMA=   1.4113
  2.4680  0.8829  0.8829

 Free energy of the ion-electron system (eV)
  ---------------------------------------------------
  alpha Z        PSCENC =       110.10985993
  Ewald energy   TEWEN  =     29796.95750572
  -Hartree energ DENC   =    -42168.48808952
  -exchange      EXHF   =         0.00000000
  -V(xc)+E(xc)   XCENC  =      1091.45527556
  PAW double counting   =     21479.79657129   -21975.21963706
  entropy T*S    EENTRO =         0.00000000
  eigenvalues    EBANDS =     -3994.49541226
  atomic energy  EATOM  =     15171.73615219
  Solvation  Ediel_sol  =         0.00000000
  ---------------------------------------------------
  free energy    TOTEN  =      -488.14777416 eV

  energy without entropy =     -488.14777416  energy(sigma->0) =     -488.14777416


--------------------------------------------------------------------------------------------------------




--------------------------------------- Iteration      1(   9)  ---------------------------------------


    POTLOK:  cpu time    0.1452: real time    0.1543
    SETDIJ:  cpu time    0.0090: real time    0.0090
     EDDAV:  cpu time   18.3832: real time   18.4059
 BZINTS: Fermi energy: -4.045011;280.000000 electrons
         Band energy:***********;  BLOECHL correction:  0.000000
       DOS:  cpu time    0.0167: real time    0.0167
    CHARGE:  cpu time    0.2939: real time    0.2939
    MIXING:  cpu time    0.0046: real time    0.0046
    --------------------------------------------
      LOOP:  cpu time   18.8526: real time   18.8845

 eigenvalue-minimisations  :  4240
 total energy-change (2. order) :-0.3663076E+01  (-0.8524820E+01)
 number of electron     280.0000019 magnetization       0.0000000
 augmentation part       18.3426230 magnetization      -0.0030348

 Broyden mixing:
  rms(total) = 0.11570E+01    rms(broyden)= 0.11561E+01
  rms(prec ) = 0.14523E+01
  weight for this iteration     100.00

 eigenvalues of (default mixing * dielectric matrix)
  average eigenvalue GAMMA=   1.4916
  3.3721  1.2875  0.6535  0.6535

 Free energy of the ion-electron system (eV)
  ---------------------------------------------------
  alpha Z        PSCENC =       110.10985993
  Ewald energy   TEWEN  =     29796.95750572
  -Hartree energ DENC   =    -42264.39212702
  -exchange      EXHF   =         0.00000000
  -V(xc)+E(xc)   XCENC  =      1095.31120582
  PAW double counting   =     25388.69358130   -25886.98528614
  entropy T*S    EENTRO =         0.00000000
  eigenvalues    EBANDS =     -3903.24174209
  atomic energy  EATOM  =     15171.73615219
  Solvation  Ediel_sol  =         0.00000000
  ---------------------------------------------------
  free energy    TOTEN  =      -491.81085029 eV

  energy without entropy =     -491.81085029  energy(sigma->0) =     -491.81085029


--------------------------------------------------------------------------------------------------------




--------------------------------------- Iteration      1(  10)  ---------------------------------------


    POTLOK:  cpu time    0.1570: real time    0.1577
    SETDIJ:  cpu time    0.0091: real time    0.0091
     EDDAV:  cpu time   17.9452: real time   17.9679
 BZINTS: Fermi energy: -3.539885;280.000000 electrons
         Band energy:***********;  BLOECHL correction:  0.000000
       DOS:  cpu time    0.0161: real time    0.0161
    CHARGE:  cpu time    0.2982: real time    0.2982
    MIXING:  cpu time    0.0055: real time    0.0055
    --------------------------------------------
      LOOP:  cpu time   18.4310: real time   18.4546

 eigenvalue-minimisations  :  4120
 total energy-change (2. order) : 0.3757078E+01  (-0.4433501E+00)
 number of electron     280.0000021 magnetization       0.0000000
 augmentation part       18.3634966 magnetization      -0.0014280

 Broyden mixing:
  rms(total) = 0.82779E+00    rms(broyden)= 0.82763E+00
  rms(prec ) = 0.10624E+01
  weight for this iteration     100.00

 eigenvalues of (default mixing * dielectric matrix)
  average eigenvalue GAMMA=   1.4898
  3.7341  1.2864  0.9014  0.7635  0.7635

 Free energy of the ion-electron system (eV)
  ---------------------------------------------------
  alpha Z        PSCENC =       110.10985993
  Ewald energy   TEWEN  =     29796.95750572
  -Hartree energ DENC   =    -42308.46193861
  -exchange      EXHF   =         0.00000000
  -V(xc)+E(xc)   XCENC  =      1097.05063550
  PAW double counting   =     28538.42962668   -29038.52880342
  entropy T*S    EENTRO =         0.00000000
  eigenvalues    EBANDS =     -3855.34681046
  atomic energy  EATOM  =     15171.73615219
  Solvation  Ediel_sol  =         0.00000000
  ---------------------------------------------------
  free energy    TOTEN  =      -488.05377247 eV

  energy without entropy =     -488.05377247  energy(sigma->0) =     -488.05377247


--------------------------------------------------------------------------------------------------------




--------------------------------------- Iteration      1(  11)  ---------------------------------------


    POTLOK:  cpu time    0.1566: real time    0.1605
    SETDIJ:  cpu time    0.0090: real time    0.0090
     EDDAV:  cpu time   18.9668: real time   19.0076
 BZINTS: Fermi energy: -3.324831;280.000000 electrons
         Band energy:***********;  BLOECHL correction:  0.000000
       DOS:  cpu time    0.0163: real time    0.0163
    CHARGE:  cpu time    0.2937: real time    0.2937
    MIXING:  cpu time    0.0053: real time    0.0053
    --------------------------------------------
      LOOP:  cpu time   19.4477: real time   19.4924

 eigenvalue-minimisations  :  4360
 total energy-change (2. order) : 0.3191610E+00  (-0.2110002E+01)
 number of electron     280.0000020 magnetization      -0.0000000
 augmentation part       18.3610587 magnetization      -0.0010540

 Broyden mixing:
  rms(total) = 0.65534E+00    rms(broyden)= 0.65374E+00
  rms(prec ) = 0.87129E+00
  weight for this iteration     100.00

 eigenvalues of (default mixing * dielectric matrix)
  average eigenvalue GAMMA=   1.4020
  3.7391  1.4429  1.0846  0.7016  0.7016  0.7424

 Free energy of the ion-electron system (eV)
  ---------------------------------------------------
  alpha Z        PSCENC =       110.10985993
  Ewald energy   TEWEN  =     29796.95750572
  -Hartree energ DENC   =    -42299.08015761
  -exchange      EXHF   =         0.00000000
  -V(xc)+E(xc)   XCENC  =      1097.01245392
  PAW double counting   =     29383.46884654   -29883.53284533
  entropy T*S    EENTRO =         0.00000000
  eigenvalues    EBANDS =     -3864.40642683
  atomic energy  EATOM  =     15171.73615219
  Solvation  Ediel_sol  =         0.00000000
  ---------------------------------------------------
  free energy    TOTEN  =      -487.73461148 eV

  energy without entropy =     -487.73461148  energy(sigma->0) =     -487.73461148


--------------------------------------------------------------------------------------------------------




--------------------------------------- Iteration      1(  12)  ---------------------------------------


    POTLOK:  cpu time    0.1467: real time    0.1546
    SETDIJ:  cpu time    0.0090: real time    0.0090
     EDDAV:  cpu time   17.6235: real time   17.6562
 BZINTS: Fermi energy: -3.369842;280.000000 electrons
         Band energy:***********;  BLOECHL correction:  0.000000
       DOS:  cpu time    0.0178: real time    0.0180
    CHARGE:  cpu time    0.2979: real time    0.2991
    MIXING:  cpu time    0.0057: real time    0.0057
    --------------------------------------------
      LOOP:  cpu time   18.1007: real time   18.1428

 eigenvalue-minimisations  :  4016
 total energy-change (2. order) : 0.4321748E+00  (-0.1149913E+01)
 number of electron     280.0000021 magnetization       0.0000000
 augmentation part       18.3458809 magnetization      -0.0006426

 Broyden mixing:
  rms(total) = 0.64831E+00    rms(broyden)= 0.64732E+00
  rms(prec ) = 0.86097E+00
  weight for this iteration     100.00

 eigenvalues of (default mixing * dielectric matrix)
  average eigenvalue GAMMA=   1.3723
  3.7631  1.7185  1.2202  1.0681  0.6716  0.6716  0.4931

 Free energy of the ion-electron system (eV)
  ---------------------------------------------------
  alpha Z        PSCENC =       110.10985993
  Ewald energy   TEWEN  =     29796.95750572
  -Hartree energ DENC   =    -42282.39493990
  -exchange      EXHF   =         0.00000000
  -V(xc)+E(xc)   XCENC  =      1096.39871863
  PAW double counting   =     29622.78567580   -30122.77284114
  entropy T*S    EENTRO =         0.00000000
  eigenvalues    EBANDS =     -3880.12256789
  atomic energy  EATOM  =     15171.73615219
  Solvation  Ediel_sol  =         0.00000000
  ---------------------------------------------------
  free energy    TOTEN  =      -487.30243667 eV

  energy without entropy =     -487.30243667  energy(sigma->0) =     -487.30243667


--------------------------------------------------------------------------------------------------------




--------------------------------------- Iteration      1(  13)  ---------------------------------------


    POTLOK:  cpu time    0.1515: real time    0.1606
    SETDIJ:  cpu time    0.0091: real time    0.0091
     EDDAV:  cpu time   17.9192: real time   17.9577
 BZINTS: Fermi energy: -3.336084;280.000000 electrons
         Band energy:***********;  BLOECHL correction:  0.000000
       DOS:  cpu time    0.0168: real time    0.0168
    CHARGE:  cpu time    0.2946: real time    0.2952
    MIXING:  cpu time    0.0057: real time    0.0058
    --------------------------------------------
      LOOP:  cpu time   18.3968: real time   18.4450

 eigenvalue-minimisations  :  4056
 total energy-change (2. order) : 0.1267454E+00  (-0.9377682E+00)
 number of electron     280.0000023 magnetization       0.0000000
 augmentation part       18.3814994 magnetization      -0.0000481

 Broyden mixing:
  rms(total) = 0.95412E+00    rms(broyden)= 0.95323E+00
  rms(prec ) = 0.12680E+01
  weight for this iteration     100.00

 eigenvalues of (default mixing * dielectric matrix)
  average eigenvalue GAMMA=   1.2018
  3.7651  1.7132  1.2295  1.0608  0.6724  0.6724  0.4909  0.0103

 Free energy of the ion-electron system (eV)
  ---------------------------------------------------
  alpha Z        PSCENC =       110.10985993
  Ewald energy   TEWEN  =     29796.95750572
  -Hartree energ DENC   =    -42265.36528903
  -exchange      EXHF   =         0.00000000
  -V(xc)+E(xc)   XCENC  =      1095.83783640
  PAW double counting   =     29831.24426665   -30330.97327257
  entropy T*S    EENTRO =         0.00000000
  eigenvalues    EBANDS =     -3896.72275056
  atomic energy  EATOM  =     15171.73615219
  Solvation  Ediel_sol  =         0.00000000
  ---------------------------------------------------
  free energy    TOTEN  =      -487.17569127 eV

  energy without entropy =     -487.17569127  energy(sigma->0) =     -487.17569127


--------------------------------------------------------------------------------------------------------




--------------------------------------- Iteration      1(  14)  ---------------------------------------


    POTLOK:  cpu time    0.1567: real time    0.1573
    SETDIJ:  cpu time    0.0091: real time    0.0091
     EDDAV:  cpu time   17.5572: real time   17.5836
 BZINTS: Fermi energy: -3.361090;280.000000 electrons
         Band energy:***********;  BLOECHL correction:  0.000000
       DOS:  cpu time    0.0163: real time    0.0163
    CHARGE:  cpu time    0.2913: real time    0.2917
    MIXING:  cpu time    0.0059: real time    0.0059
    --------------------------------------------
      LOOP:  cpu time   18.0365: real time   18.0638

 eigenvalue-minimisations  :  3960
 total energy-change (2. order) :-0.7617385E-01  (-0.1151930E-01)
 number of electron     280.0000023 magnetization       0.0000000
 augmentation part       18.3846343 magnetization      -0.0000080

 Broyden mixing:
  rms(total) = 0.96446E+00    rms(broyden)= 0.96443E+00
  rms(prec ) = 0.12836E+01
  weight for this iteration     100.00

 eigenvalues of (default mixing * dielectric matrix)
  average eigenvalue GAMMA=   1.0723
  3.7537  1.6678  1.1883  1.0516  0.6725  0.6725  0.4891  0.0915  0.0641

 Free energy of the ion-electron system (eV)
  ---------------------------------------------------
  alpha Z        PSCENC =       110.10985993
  Ewald energy   TEWEN  =     29796.95750572
  -Hartree energ DENC   =    -42265.41731342
  -exchange      EXHF   =         0.00000000
  -V(xc)+E(xc)   XCENC  =      1095.84868233
  PAW double counting   =     29831.88919231   -30331.62031089
  entropy T*S    EENTRO =         0.00000000
  eigenvalues    EBANDS =     -3896.75563329
  atomic energy  EATOM  =     15171.73615219
  Solvation  Ediel_sol  =         0.00000000
  ---------------------------------------------------
  free energy    TOTEN  =      -487.25186512 eV

  energy without entropy =     -487.25186512  energy(sigma->0) =     -487.25186512


--------------------------------------------------------------------------------------------------------




--------------------------------------- Iteration      1(  15)  ---------------------------------------


    POTLOK:  cpu time    0.1570: real time    0.1582
    SETDIJ:  cpu time    0.0090: real time    0.0090
     EDDAV:  cpu time   19.7482: real time   19.7800
 BZINTS: Fermi energy: -3.376094;280.000000 electrons
         Band energy:***********;  BLOECHL correction:  0.000000
       DOS:  cpu time    0.0168: real time    0.0168
    CHARGE:  cpu time    0.2950: real time    0.2950
    MIXING:  cpu time    0.0062: real time    0.0063
    --------------------------------------------
      LOOP:  cpu time   20.2323: real time   20.2652

 eigenvalue-minimisations  :  4632
 total energy-change (2. order) :-0.4533835E-01  (-0.5989659E-03)
 number of electron     280.0000023 magnetization       0.0000000
 augmentation part       18.3841478 magnetization      -0.0000352

 Broyden mixing:
  rms(total) = 0.96953E+00    rms(broyden)= 0.96952E+00
  rms(prec ) = 0.12905E+01
  weight for this iteration     100.00

 eigenvalues of (default mixing * dielectric matrix)
  average eigenvalue GAMMA=   1.0978
  3.8605  1.6709  1.1032  1.1032  0.8717  0.6748  0.6748  0.4986  0.2604  0.2604

 Free energy of the ion-electron system (eV)
  ---------------------------------------------------
  alpha Z        PSCENC =       110.10985993
  Ewald energy   TEWEN  =     29796.95750572
  -Hartree energ DENC   =    -42267.54217889
  -exchange      EXHF   =         0.00000000
  -V(xc)+E(xc)   XCENC  =      1095.92258400
  PAW double counting   =     29804.96140376   -30304.71350816
  entropy T*S    EENTRO =         0.00000000
  eigenvalues    EBANDS =     -3894.72902201
  atomic energy  EATOM  =     15171.73615219
  Solvation  Ediel_sol  =         0.00000000
  ---------------------------------------------------
  free energy    TOTEN  =      -487.29720347 eV

  energy without entropy =     -487.29720347  energy(sigma->0) =     -487.29720347


--------------------------------------------------------------------------------------------------------




--------------------------------------- Iteration      1(  16)  ---------------------------------------


    POTLOK:  cpu time    0.1555: real time    0.1567
    SETDIJ:  cpu time    0.0090: real time    0.0090
     EDDAV:  cpu time   19.9707: real time   20.0038
 BZINTS: Fermi energy: -3.379845;280.000000 electrons
         Band energy:***********;  BLOECHL correction:  0.000000
       DOS:  cpu time    0.0160: real time    0.0160
    CHARGE:  cpu time    0.2981: real time    0.2982
    MIXING:  cpu time    0.0067: real time    0.0067
    --------------------------------------------
      LOOP:  cpu time   20.4561: real time   20.4904

 eigenvalue-minimisations  :  4720
 total energy-change (2. order) : 0.2020948E+00  (-0.4608674E+00)
 number of electron     280.0000020 magnetization       0.0000000
 augmentation part       18.3734036 magnetization      -0.0007132

 Broyden mixing:
  rms(total) = 0.62414E+00    rms(broyden)= 0.62274E+00
  rms(prec ) = 0.82635E+00
  weight for this iteration     100.00

 eigenvalues of (default mixing * dielectric matrix)
  average eigenvalue GAMMA=   1.0903
  3.8350  2.1064  1.0434  1.0434  1.0135  0.7552  0.7552  0.4608  0.4608  0.2595
  0.2595

 Free energy of the ion-electron system (eV)
  ---------------------------------------------------
  alpha Z        PSCENC =       110.10985993
  Ewald energy   TEWEN  =     29796.95750572
  -Hartree energ DENC   =    -42256.18363186
  -exchange      EXHF   =         0.00000000
  -V(xc)+E(xc)   XCENC  =      1095.53970812
  PAW double counting   =     30048.77950156   -30548.45063743
  entropy T*S    EENTRO =         0.00000000
  eigenvalues    EBANDS =     -3905.58356683
  atomic energy  EATOM  =     15171.73615219
  Solvation  Ediel_sol  =         0.00000000
  ---------------------------------------------------
  free energy    TOTEN  =      -487.09510863 eV

  energy without entropy =     -487.09510863  energy(sigma->0) =     -487.09510863


--------------------------------------------------------------------------------------------------------




--------------------------------------- Iteration      1(  17)  ---------------------------------------


    POTLOK:  cpu time    0.1537: real time    0.1587
    SETDIJ:  cpu time    0.0097: real time    0.0097
     EDDAV:  cpu time   19.7122: real time   19.7883
 BZINTS: Fermi energy: -3.289822;280.000000 electrons
         Band energy:***********;  BLOECHL correction:  0.000000
       DOS:  cpu time    0.0161: real time    0.0161
    CHARGE:  cpu time    0.2947: real time    0.2947
    MIXING:  cpu time    0.0067: real time    0.0067
    --------------------------------------------
      LOOP:  cpu time   20.1932: real time   20.2743

 eigenvalue-minimisations  :  4576
 total energy-change (2. order) : 0.3497365E+00  (-0.1787399E+00)
 number of electron     280.0000021 magnetization       0.0000000
 augmentation part       18.3653589 magnetization      -0.0003586

 Broyden mixing:
  rms(total) = 0.54686E+00    rms(broyden)= 0.54530E+00
  rms(prec ) = 0.72521E+00
  weight for this iteration     100.00

 eigenvalues of (default mixing * dielectric matrix)
  average eigenvalue GAMMA=   1.0533
  3.8224  2.2493  1.1165  1.1165  0.7081  0.7081  0.8244  0.8244  0.3744  0.3744
  0.2605  0.2605

 Free energy of the ion-electron system (eV)
  ---------------------------------------------------
  alpha Z        PSCENC =       110.10985993
  Ewald energy   TEWEN  =     29796.95750572
  -Hartree energ DENC   =    -42250.87132056
  -exchange      EXHF   =         0.00000000
  -V(xc)+E(xc)   XCENC  =      1095.31064990
  PAW double counting   =     30060.11593389   -30559.68439627
  entropy T*S    EENTRO =         0.00000000
  eigenvalues    EBANDS =     -3910.41975690
  atomic energy  EATOM  =     15171.73615219
  Solvation  Ediel_sol  =         0.00000000
  ---------------------------------------------------
  free energy    TOTEN  =      -486.74537210 eV

  energy without entropy =     -486.74537210  energy(sigma->0) =     -486.74537210


--------------------------------------------------------------------------------------------------------




--------------------------------------- Iteration      1(  18)  ---------------------------------------


    POTLOK:  cpu time    0.1472: real time    0.1598
    SETDIJ:  cpu time    0.0090: real time    0.0090
     EDDAV:  cpu time   18.2171: real time   18.2580
 BZINTS: Fermi energy: -3.381095;280.000000 electrons
         Band energy:***********;  BLOECHL correction:  0.000000
       DOS:  cpu time    0.0170: real time    0.0170
    CHARGE:  cpu time    0.2963: real time    0.2966
    MIXING:  cpu time    0.0071: real time    0.0071
    --------------------------------------------
      LOOP:  cpu time   18.6937: real time   18.7475

 eigenvalue-minimisations  :  4208
 total energy-change (2. order) :-0.2442208E+00  (-0.5871787E+00)
 number of electron     280.0000020 magnetization       0.0000000
 augmentation part       18.3817905 magnetization      -0.0008038

 Broyden mixing:
  rms(total) = 0.61024E+00    rms(broyden)= 0.60917E+00
  rms(prec ) = 0.80543E+00
  weight for this iteration     100.00

 eigenvalues of (default mixing * dielectric matrix)
  average eigenvalue GAMMA=   1.1045
  3.7481  2.6844  1.4288  1.0850  1.0850  0.9854  0.6954  0.6954  0.7011  0.3640
  0.3640  0.2610  0.2610

 Free energy of the ion-electron system (eV)
  ---------------------------------------------------
  alpha Z        PSCENC =       110.10985993
  Ewald energy   TEWEN  =     29796.95750572
  -Hartree energ DENC   =    -42247.15025644
  -exchange      EXHF   =         0.00000000
  -V(xc)+E(xc)   XCENC  =      1095.17869656
  PAW double counting   =     30096.06652679   -30595.55528186
  entropy T*S    EENTRO =         0.00000000
  eigenvalues    EBANDS =     -3914.33279582
  atomic energy  EATOM  =     15171.73615219
  Solvation  Ediel_sol  =         0.00000000
  ---------------------------------------------------
  free energy    TOTEN  =      -486.98959294 eV

  energy without entropy =     -486.98959294  energy(sigma->0) =     -486.98959294


--------------------------------------------------------------------------------------------------------




--------------------------------------- Iteration      1(  19)  ---------------------------------------


    POTLOK:  cpu time    0.1504: real time    0.1579
    SETDIJ:  cpu time    0.0096: real time    0.0096
     EDDAV:  cpu time   17.7215: real time   17.7701
 BZINTS: Fermi energy: -3.329832;280.000000 electrons
         Band energy:***********;  BLOECHL correction:  0.000000
       DOS:  cpu time    0.0182: real time    0.0182
    CHARGE:  cpu time    0.3001: real time    0.3005
    MIXING:  cpu time    0.0086: real time    0.0087
    --------------------------------------------
      LOOP:  cpu time   18.2084: real time   18.2650

 eigenvalue-minimisations  :  4056
 total energy-change (2. order) : 0.2006939E+00  (-0.6525687E-02)
 number of electron     280.0000020 magnetization       0.0000000
 augmentation part       18.3811688 magnetization      -0.0014780

 Broyden mixing:
  rms(total) = 0.53958E+00    rms(broyden)= 0.53955E+00
  rms(prec ) = 0.71126E+00
  weight for this iteration     100.00

 eigenvalues of (default mixing * dielectric matrix)
  average eigenvalue GAMMA=   1.0502
  3.7337  2.6726  1.4401  1.1672  1.1672  1.0169  0.6930  0.6930  0.7293  0.3566
  0.3566  0.2608  0.2608  0.1552

 Free energy of the ion-electron system (eV)
  ---------------------------------------------------
  alpha Z        PSCENC =       110.10985993
  Ewald energy   TEWEN  =     29796.95750572
  -Hartree energ DENC   =    -42247.17754804
  -exchange      EXHF   =         0.00000000
  -V(xc)+E(xc)   XCENC  =      1095.16320611
  PAW double counting   =     30085.89582698   -30585.35146067
  entropy T*S    EENTRO =         0.00000000
  eigenvalues    EBANDS =     -3914.12244120
  atomic energy  EATOM  =     15171.73615219
  Solvation  Ediel_sol  =         0.00000000
  ---------------------------------------------------
  free energy    TOTEN  =      -486.78889899 eV

  energy without entropy =     -486.78889899  energy(sigma->0) =     -486.78889899


--------------------------------------------------------------------------------------------------------




--------------------------------------- Iteration      1(  20)  ---------------------------------------


    POTLOK:  cpu time    0.1587: real time    0.1593
[...]
   -.491E+02 0.145E+03 0.496E+02   0.488E+02 -.148E+03 -.500E+02   0.495E+00 0.341E+01 0.257E+00   -.643E+00 0.121E+00 0.134E+00
   -.957E+02 -.913E+02 0.175E+02   0.988E+02 0.895E+02 -.166E+02   -.330E+01 0.197E+01 -.923E+00   0.668E-01 -.241E-01 -.108E-01
   0.327E+02 -.662E+02 -.330E+02   -.342E+02 0.657E+02 0.336E+02   0.140E+01 0.418E+00 -.530E+00   0.212E+00 0.201E+00 -.439E-01
   0.227E+03 0.363E+02 0.128E+03   -.233E+03 -.393E+02 -.128E+03   0.677E+01 0.368E+01 -.146E-01   -.470E+00 -.225E+00 -.492E-01
   -.451E+02 -.289E+02 -.584E+02   0.445E+02 0.272E+02 0.571E+02   0.342E+00 0.184E+01 0.126E+01   0.220E+00 0.297E-01 -.429E-01
   -.307E+02 0.373E+02 -.514E+02   0.298E+02 -.354E+02 0.522E+02   0.112E+01 -.205E+01 -.765E+00   -.270E+00 0.193E+00 0.709E-01
   0.421E+02 -.282E+01 0.110E+03   -.412E+02 0.157E+00 -.110E+03   -.240E+00 0.283E+01 0.245E-01   -.501E+00 -.448E-01 -.461E-01
   0.365E+02 -.109E+02 0.764E+01   -.364E+02 0.135E+02 -.722E+01   -.114E+00 -.278E+01 -.386E+00   0.841E-01 0.174E+00 -.125E-01
   0.494E+02 -.546E+02 -.738E+01   -.481E+02 0.550E+02 0.589E+01   -.132E+01 0.256E+00 0.146E+01   0.717E-01 -.341E+00 0.377E-01
   0.665E+02 0.184E+02 0.304E+02   -.659E+02 -.185E+02 -.290E+02   -.734E+00 0.318E+00 -.142E+01   0.255E+00 -.405E-01 0.400E-01
   -.179E+03 0.160E+03 0.133E+03   0.188E+03 -.166E+03 -.135E+03   -.793E+01 0.559E+01 0.168E+01   -.481E+00 0.318E+00 0.144E+00
   0.211E+02 -.836E+02 0.991E+02   -.242E+02 0.829E+02 -.987E+02   0.323E+01 0.873E+00 -.431E+00   0.227E-01 0.438E-01 -.314E-02
   0.581E+01 0.922E+02 0.666E+02   -.594E+01 -.954E+02 -.674E+02   0.844E-01 0.319E+01 0.852E+00   0.847E-01 0.294E-01 0.110E-01
   -.368E+02 -.688E+02 -.852E+02   0.391E+02 0.712E+02 0.864E+02   -.205E+01 -.219E+01 -.108E+01   -.130E+00 -.140E+00 -.359E-01
   -.619E+02 -.490E+01 -.530E+02   0.619E+02 0.204E+01 0.523E+02   -.124E-01 0.268E+01 0.619E+00   -.147E+00 0.207E+00 0.450E-01
   -.963E+01 -.157E+02 -.385E+02   0.127E+02 0.166E+02 0.382E+02   -.290E+01 -.842E+00 0.307E+00   -.218E-01 0.949E-01 0.903E-02
   -.352E+02 -.327E+02 -.312E+02   0.325E+02 0.351E+02 0.308E+02   0.285E+01 -.243E+01 0.406E+00   -.169E+00 0.412E-01 -.193E-01
   0.109E+03 -.197E+02 0.104E+02   -.112E+03 0.202E+02 -.106E+02   0.340E+01 -.615E+00 0.139E+00   0.187E+00 0.115E+00 0.228E-01
   -.173E+02 0.468E+02 -.101E+03   0.178E+02 -.495E+02 0.102E+03   -.590E+00 0.268E+01 -.141E+01   0.727E-01 0.796E-01 0.205E-02
   -.119E+03 0.240E+02 0.796E+02   0.122E+03 -.234E+02 -.801E+02   -.329E+01 -.878E+00 0.468E+00   -.328E+00 0.561E+00 0.158E+00
   -.123E+02 0.262E+03 0.783E+02   0.123E+02 -.294E+03 -.841E+02   0.144E+00 0.317E+02 0.584E+01   -.135E+00 0.261E-01 0.171E-01
   -.258E+03 -.164E+03 0.331E+02   0.292E+03 0.176E+03 -.274E+02   -.341E+02 -.128E+02 -.560E+01   -.701E-01 -.987E-01 -.906E-02
   0.294E+03 -.148E+03 0.111E+03   -.320E+03 0.167E+03 -.113E+03   0.266E+02 -.185E+02 0.248E+01   -.256E+00 -.105E+01 -.634E-01
   -.640E+02 0.318E+03 0.969E+02   0.627E+02 -.352E+03 -.983E+02   0.299E+01 0.345E+02 0.108E+01   -.118E+01 -.388E+00 0.235E+00
   -.194E+02 0.311E+03 0.635E+02   0.124E+02 -.346E+03 -.677E+02   0.765E+01 0.350E+02 0.402E+01   -.487E+00 -.545E-01 0.676E-01
   0.243E+03 -.172E+03 0.761E+02   -.270E+03 0.196E+03 -.820E+02   0.263E+02 -.235E+02 0.589E+01   -.216E-01 -.714E+00 0.156E-01
   -.259E+03 -.131E+03 -.217E+02   0.294E+03 0.139E+03 0.216E+02   -.348E+02 -.861E+01 0.265E+00   0.210E+00 -.801E-01 -.432E-01
   -.460E+02 -.290E+02 0.188E+02   0.466E+02 0.268E+02 -.190E+02   -.686E+00 0.203E+01 0.253E+00   0.649E-01 0.475E-01 -.793E-02
   -.124E+03 -.132E+03 -.346E+02   0.152E+03 0.146E+03 0.318E+02   -.276E+02 -.152E+02 0.282E+01   0.407E+00 0.167E+00 -.128E+00
   -.249E+02 -.197E+03 -.839E+02   0.454E+02 0.221E+03 0.900E+02   -.207E+02 -.249E+02 -.600E+01   0.185E+00 0.341E+00 -.102E+00
   0.344E+00 0.547E+02 -.346E+02   -.175E+02 -.462E+02 0.390E+02   0.175E+02 -.870E+01 -.447E+01   -.277E+00 0.186E+00 0.466E-01
   -.688E+01 0.987E+02 0.230E+03   0.115E+02 -.131E+03 -.244E+03   -.435E+01 0.321E+02 0.131E+02   -.384E+00 0.110E+00 -.461E-02
   0.121E+03 0.107E+03 0.212E+03   -.120E+03 -.137E+03 -.216E+03   0.806E-03 0.299E+02 0.431E+01   -.947E+00 0.468E+00 -.157E-01
   0.263E+02 -.613E+02 -.273E+03   -.479E+02 0.808E+02 0.292E+03   0.220E+02 -.197E+02 -.191E+02   -.247E+00 0.214E+00 0.467E-01
   0.606E+01 0.316E+02 0.575E+02   0.853E+01 -.227E+02 -.567E+02   -.146E+02 -.905E+01 -.732E+00   -.267E-02 0.205E+00 0.141E-02
   0.659E+02 0.309E+02 0.270E+02   -.688E+02 -.334E+02 -.271E+02   0.277E+01 0.229E+01 0.280E-01   0.143E+00 0.123E+00 0.109E-01
   0.189E+03 -.805E+02 0.430E+02   -.216E+03 0.945E+02 -.472E+02   0.265E+02 -.139E+02 0.408E+01   0.397E+00 -.321E+00 0.107E+00
   -.135E+03 -.137E+03 -.195E+03   0.162E+03 0.157E+03 0.208E+03   -.270E+02 -.194E+02 -.134E+02   -.104E-01 -.218E+00 0.325E-02
   0.120E+03 -.132E+03 0.198E+03   -.152E+03 0.145E+03 -.212E+03   0.313E+02 -.128E+02 0.143E+02   -.546E-02 0.649E-01 0.520E-02
   -.207E+02 0.271E+03 0.119E+03   0.282E+02 -.306E+03 -.126E+03   -.764E+01 0.345E+02 0.698E+01   0.313E-01 0.300E-01 0.108E-01
   -.128E+02 0.215E+03 0.144E+03   0.160E+02 -.249E+03 -.152E+03   -.343E+01 0.349E+02 0.801E+01   0.153E+00 -.418E-01 0.133E-01
   0.153E+03 -.172E+03 0.242E+03   -.186E+03 0.186E+03 -.255E+03   0.321E+02 -.136E+02 0.133E+02   0.552E-01 0.112E-01 0.183E-01
   -.137E+03 -.164E+03 -.270E+03   0.164E+03 0.179E+03 0.289E+03   -.270E+02 -.145E+02 -.194E+02   -.136E+00 -.366E-01 -.342E-01
   0.484E+02 -.699E+02 0.388E+02   -.475E+02 0.720E+02 -.393E+02   -.674E+00 -.189E+01 0.554E+00   -.446E+00 -.282E+00 -.857E-01
   -.460E+02 -.271E+02 -.100E+03   0.453E+02 0.280E+02 0.105E+03   0.709E+00 -.116E+01 -.472E+01   -.127E+00 0.146E+00 0.113E-01
   -.244E+03 -.268E+02 0.166E+03   0.274E+03 0.432E+02 -.178E+03   -.298E+02 -.170E+02 0.124E+02   -.132E+00 0.468E+00 0.784E-01
   0.266E+03 -.483E+02 -.547E+01   -.301E+03 0.560E+02 0.716E+01   0.353E+02 -.783E+01 -.175E+01   0.364E+00 0.970E-01 0.784E-01
   -.769E+01 0.178E+03 -.227E+03   0.807E+01 -.211E+03 0.241E+03   -.562E+00 0.327E+02 -.140E+02   0.164E+00 0.100E+00 -.871E-02
   -.497E+02 0.161E+03 -.287E+03   0.462E+02 -.191E+03 0.307E+03   0.340E+01 0.297E+02 -.202E+02   0.322E-01 0.138E+00 0.274E-01
   0.245E+03 -.593E+02 0.247E+02   -.278E+03 0.719E+02 -.266E+02   0.334E+02 -.129E+02 0.190E+01   0.245E+00 0.190E+00 0.155E-01
   -.272E+03 0.831E+00 0.189E+03   0.304E+03 0.109E+02 -.198E+03   -.318E+02 -.135E+02 0.865E+01   -.506E-01 0.124E+01 0.109E+00
   -.746E+02 0.829E+02 0.478E+02   0.766E+02 -.849E+02 -.498E+02   -.128E+01 0.146E+01 0.178E+01   -.538E+00 0.392E+00 0.173E+00
   0.581E+02 -.323E+03 -.405E+03   -.566E+02 0.344E+03 0.420E+03   -.116E+01 -.224E+02 -.139E+02   -.435E+00 0.742E+00 -.230E+00
   0.498E+02 0.727E+02 -.147E+03   -.545E+02 -.758E+02 0.122E+03   0.473E+01 0.297E+01 0.252E+02   -.462E-01 0.622E-01 -.345E-01
   -.330E+02 0.156E+02 -.618E+03   0.438E+02 -.102E+02 0.678E+03   -.107E+02 -.540E+01 -.597E+02   -.606E-01 0.526E-01 -.792E-01
 -----------------------------------------------------------------------------------------------
   0.104E+02 -.290E+02 0.442E+02   0.128E-12 0.238E-12 -.455E-12   -.432E+01 0.257E+02 -.448E+02   -.601E+01 0.327E+01 0.643E+00


 POSITION                                       TOTAL-FORCE (eV/Angst)
 -----------------------------------------------------------------------------------
      0.02987      1.91511      7.68878         0.055369      0.406565     -0.113373
      1.01209      5.74154      8.28432        -0.116938      0.048325      0.016916
     -1.39264      5.69199      8.20101         0.005315      0.039419     -0.002549
      7.19257      0.61992      7.97128         0.243384      0.474546      0.082792
      3.28716      5.42593      7.97004        -0.460475      0.021543      0.009005
      1.16840      0.20775      8.28951        -0.054683      0.143570     -0.003702
     -4.45967      9.20702      8.61596         0.128505      0.085119      0.003854
     -1.60492     11.72918      7.69136         0.618328      0.384832      0.160788
     -5.68483     11.24394      8.76739        -0.104266      0.146105     -0.013947
      2.45256      7.60470      8.62755        -0.105005     -0.017893      0.050450
      0.62399     11.57235      7.91632         0.170380      0.083101     -0.052360
     -2.91064      7.50831      8.48331         0.046104     -0.002501      0.014314
      8.47656      2.51040      8.28149         0.016571      0.279743     -0.001867
      9.56579      4.64011      8.09534         0.079832      0.181694      0.002480
      5.48525      5.34067      7.51144        -0.035259     -0.070792      0.029989
     14.19563      0.07438      7.91122         0.088518      0.213640     -0.066891
     11.83920      5.01925      8.02432         0.043428      0.033884      0.030811
      9.51389      0.49254      8.67430         0.106725      0.058079      0.072372
      3.85935      9.37782      8.58297        -0.112834      0.089117      0.052775
      5.25760     11.38931      8.60190         0.083881      0.149691     -0.028226
      2.79031     11.57467      8.54224         0.085484     -0.017912     -0.000069
     10.23218      6.84591      8.31400         0.039939      0.069476      0.013577
      7.51727     11.21762      8.90272         0.039615      0.074027     -0.025968
      4.74892      7.41350      7.88642        -0.144029      0.264474      0.088975
     -0.15866      5.14929      8.15828         0.019584     -0.025191     -0.024757
      1.18023      1.61490      8.01454         0.232862     -0.272231      0.100001
     -1.71629     13.00793      7.76520        -0.220961     -0.757836     -0.246822
      4.37946      4.67743      7.70865         0.505969      0.285651     -0.096977
      2.07747      4.92889      8.06628         0.195023     -0.017987     -0.014408
      7.25784      1.91914      7.99598        -0.006828     -0.215866      0.066875
     -5.53326     12.61945      8.50212         0.057861     -0.088852      0.066126
      7.61356     12.52826      8.32607        -0.016441     -0.086654      0.061862
     -4.57196     10.55963      8.66282         0.088512     -0.160585     -0.023537
     -3.13421      8.77948      8.70756        -0.006344     -0.050214      0.033584
      1.18883      7.09869      8.63561         0.165805     -0.049913     -0.005121
      1.78354     10.93217      7.92258        -0.124398      0.047999     -0.013318
     -0.54358     10.92306      7.70156        -0.664079      0.147178     -0.108600
      2.70302      8.83662      9.03941         0.083757      0.033783     -0.019839
     -1.61066      7.05360      8.45117        -0.027541     -0.041185     -0.001966
     11.57862      6.38844      8.28310        -0.036108     -0.032942     -0.021546
      8.50228      3.82576      8.10849        -0.012308     -0.154768      0.017806
      9.53969      1.79389      8.79255        -0.005759      0.003234     -0.033888
      5.29201     12.57535      7.92806        -0.165122     -0.148026      0.024958
     -2.38123      4.83119      7.97343        -0.038744     -0.014478     -0.007303
     10.84378      4.17655      7.87069        -0.115539     -0.033078      0.033760
     14.34732      1.40225      7.47314        -0.276300     -0.298905      0.012859
      2.81532     12.80013      9.02427        -0.071298     -0.010036     -0.000086
      0.60755     12.93903      8.16180        -0.224159     -0.077389     -0.053359
      3.97728     10.78503      8.68395        -0.084083     -0.107219     -0.019398
      4.85779      8.74116      7.99201         0.033609     -0.161404     -0.017365
      9.25491      5.96744      8.24999        -0.027853     -0.062661      0.015245
      8.59794     10.52624      9.14081        -0.025871     -0.048195      0.061717
      6.26649     10.76244      9.16533        -0.016700     -0.085164      0.013864
     10.01062      8.16942      8.41517        -0.035592     -0.023314      0.009832
      5.76126      6.63089      7.51347        -0.135695     -0.494945     -0.072656
      3.48988      6.81944      8.14158         0.226863     -0.099447     -0.051876
     -0.34213      8.50502      9.10386        -0.015607     -0.038113     -0.008727
     -0.46370      7.18995     11.48320        -0.007432     -0.034523     -0.199185
     -0.26159      7.29389     12.60207         0.033026      0.035425      0.202097
 -----------------------------------------------------------------------------------
    total drift:                                0.081815      0.000360     -0.000764


--------------------------------------------------------------------------------------------------------



  FREE ENERGIE OF THE ION-ELECTRON SYSTEM (eV)
  ---------------------------------------------------
  free  energy   TOTEN  =      -490.38049599 eV

  energy  without entropy=     -490.38049599  energy(sigma->0) =     -490.38049599



--------------------------------------------------------------------------------------------------------


    POTLOK:  cpu time    0.1535: real time    0.1535


--------------------------------------------------------------------------------------------------------


     LOOP+:  cpu time  878.4255: real time  879.6631
    4ORBIT:  cpu time    0.0000: real time    0.0000



 total charge     

# of ion       s       p       d       tot
------------------------------------------
    1        0.925   1.765   0.000   2.690
    2        0.855   1.711   0.000   2.566
    3        0.854   1.716   0.000   2.570
    4        0.859   1.720   0.000   2.579
    5        0.864   1.726   0.000   2.590
    6        0.851   1.706   0.000   2.558
    7        0.854   1.706   0.000   2.559
    8        0.872   1.635   0.000   2.507
    9        0.855   1.705   0.000   2.560
   10        0.859   1.738   0.000   2.597
   11        0.861   1.734   0.000   2.595
   12        0.863   1.751   0.000   2.614
   13        0.854   1.704   0.000   2.557
   14        0.855   1.703   0.000   2.558
   15        0.884   1.655   0.000   2.539
   16        0.851   1.706   0.000   2.557
   17        0.863   1.731   0.000   2.594
   18        0.861   1.724   0.000   2.585
   19        0.853   1.717   0.000   2.570
   20        0.852   1.718   0.000   2.570
   21        0.854   1.727   0.000   2.581
   22        0.864   1.726   0.000   2.590
   23        0.861   1.718   0.000   2.579
   24        0.862   1.719   0.000   2.581
   25        1.264   2.666   0.000   3.930
   26        1.266   2.632   0.000   3.898
   27        1.262   2.627   0.000   3.889
   28        1.270   2.635   0.000   3.905
   29        1.274   2.648   0.000   3.922
   30        1.275   2.624   0.000   3.899
   31        1.278   2.626   0.000   3.904
   32        1.221   2.719   0.000   3.940
   33        1.262   2.661   0.000   3.923
   34        1.265   2.634   0.000   3.899
   35        1.237   2.642   0.000   3.879
   36        1.269   2.665   0.000   3.934
   37        1.252   2.625   0.000   3.876
   38        1.267   2.653   0.000   3.920
   39        1.233   2.662   0.000   3.895
   40        1.225   2.746   0.000   3.971
   41        1.259   2.665   0.000   3.924
   42        1.273   2.626   0.000   3.898
   43        1.273   2.654   0.000   3.927
   44        1.274   2.639   0.000   3.913
   45        1.273   2.623   0.000   3.896
   46        1.264   2.645   0.000   3.909
   47        1.271   2.636   0.000   3.907
   48        1.225   2.734   0.000   3.959
   49        1.214   2.727   0.000   3.942
   50        1.274   2.654   0.000   3.927
   51        1.275   2.625   0.000   3.900
   52        1.271   2.633   0.000   3.904
   53        1.271   2.641   0.000   3.913
   54        1.271   2.631   0.000   3.902
   55        1.271   2.634   0.000   3.904
   56        1.226   2.737   0.000   3.963
   57        1.345   0.672  10.046  12.064
   58        1.026   1.465   0.000   2.491
   59        1.641   3.530   0.000   5.171
--------------------------------------------------
tot         65.001 131.797  10.046 206.844



 magnetization (x)

# of ion       s       p       d       tot
------------------------------------------
    1       -0.001  -0.008   0.000  -0.009
    2       -0.000   0.000   0.000   0.000
    3       -0.000  -0.000   0.000  -0.000
    4        0.000   0.001   0.000   0.001
    5        0.000   0.000   0.000   0.000
    6       -0.001  -0.001   0.000  -0.002
    7        0.000   0.000   0.000   0.000
    8        0.002   0.005   0.000   0.007
    9        0.000  -0.000   0.000  -0.000
   10       -0.000   0.000   0.000   0.000
   11        0.000   0.000   0.000   0.001
   12       -0.000   0.000   0.000   0.000
   13        0.000   0.000   0.000   0.000
   14       -0.000   0.000   0.000   0.000
   15        0.001   0.002   0.000   0.002
   16       -0.000  -0.001   0.000  -0.002
   17       -0.000  -0.000   0.000  -0.000
   18        0.000   0.000   0.000   0.000
   19       -0.000  -0.000   0.000  -0.000
   20       -0.000  -0.000   0.000  -0.000
   21        0.000   0.000   0.000   0.000
   22        0.000   0.000   0.000   0.000
   23        0.000  -0.000   0.000  -0.000
   24        0.000   0.000   0.000   0.000
   25       -0.000  -0.000   0.000  -0.000
   26       -0.001  -0.001   0.000  -0.002
   27        0.001   0.001   0.000   0.002
   28        0.000   0.000   0.000   0.001
   29        0.000  -0.000   0.000  -0.000
   30        0.000   0.000   0.000   0.000
   31       -0.000  -0.000   0.000  -0.000
   32       -0.000  -0.000   0.000  -0.000
   33        0.000   0.000   0.000   0.000
   34        0.000   0.000   0.000   0.000
   35       -0.000  -0.000   0.000  -0.000
   36        0.000   0.000   0.000   0.000
   37        0.000   0.001   0.000   0.001
   38       -0.000   0.000   0.000   0.000
   39       -0.000   0.000   0.000  -0.000
   40        0.000   0.000   0.000   0.000
   41       -0.000   0.000   0.000   0.000
   42        0.000   0.000   0.000   0.000
   43       -0.000  -0.000   0.000  -0.000
   44        0.000   0.000   0.000   0.000
   45       -0.000   0.000   0.000   0.000
   46       -0.001  -0.001   0.000  -0.002
   47        0.000   0.000   0.000   0.000
   48        0.000   0.000   0.000   0.000
   49       -0.000  -0.000   0.000  -0.000
   50        0.000   0.000   0.000   0.000
   51        0.000   0.000   0.000   0.000
   52       -0.000  -0.000   0.000  -0.000
   53        0.000  -0.000   0.000  -0.000
   54        0.000   0.000   0.000   0.000
   55        0.000   0.000   0.000   0.000
   56        0.000   0.000   0.000   0.000
   57        0.000   0.000   0.000   0.000
   58        0.000   0.000   0.000   0.000
   59        0.000   0.000   0.000   0.000
--------------------------------------------------
tot          0.000  -0.001   0.000  -0.001

 BZINTS: Fermi energy: -3.229807;280.000000 electrons
         Band energy:***********;  BLOECHL correction:  0.000000

 total amount of memory used by VASP MPI-rank0   119579. kBytes
=======================================================================

   base      :      30000. kBytes
   nonl-proj :      26900. kBytes
   fftplans  :       5294. kBytes
   grid      :      16143. kBytes
   one-center:        155. kBytes
   wavefun   :      41087. kBytes

  
  
 General timing and accounting informations for this job:
 ========================================================
  
                  Total CPU time used (sec):      893.048
                            User time (sec):      884.540
                          System time (sec):        8.508
                         Elapsed time (sec):      894.671
  
                   Maximum memory used (kb):      188020.
                   Average memory used (kb):           0.
  
                          Minor page faults:       197093
                          Major page faults:            0
                 Voluntary context switches:         1423
