  71  71   0   0
  0.4004424E+02  0.1485887E-08  0.1476167E-08  0.1500000E-08  0.3000000E-15
  1.000000000000000E-004
  CAR 
 unknown system                          
      5.28999124    -48.61302317  301     -2.06374958      1.00000000
    -48.613  0.0000E+00  0.0000E+00  0.0000E+00  0.0000E+00
    -48.433  0.0000E+00  0.0000E+00  0.0000E+00  0.0000E+00
    -48.254  0.0000E+00  0.0000E+00  0.0000E+00  0.0000E+00
    -48.074  0.0000E+00  0.0000E+00  0.0000E+00  0.0000E+00
    -47.894  0.0000E+00  0.0000E+00  0.0000E+00  0.0000E+00
    -47.715  0.0000E+00  0.0000E+00  0.0000E+00  0.0000E+00
    -47.535  0.0000E+00  0.0000E+00  0.0000E+00  0.0000E+00
    -47.355  0.0000E+00  0.0000E+00  0.0000E+00  0.0000E+00
    -47.176  0.0000E+00  0.0000E+00  0.0000E+00  0.0000E+00
    -46.996  0.0000E+00  0.0000E+00  0.0000E+00  0.0000E+00
    -46.816  0.0000E+00  0.0000E+00  0.0000E+00  0.0000E+00
    -46.637  0.1458E-12  0.0000E+00  0.2620E-13  0.0000E+00
    -46.457  0.2232E-06  0.0000E+00  0.4010E-07  0.0000E+00
    -46.277  0.7361E-03  0.0000E+00  0.1323E-03  0.0000E+00
    -46.098  0.1079E-01  0.0000E+00  0.2072E-02  0.0000E+00
    -45.918  0.1182E-01  0.0000E+00  0.4195E-02  0.0000E+00
    -45.738  0.1749E-01  0.0000E+00  0.7337E-02  0.0000E+00
    -45.559  0.9058E-03  0.0000E+00  0.7500E-02  0.0000E+00
    -45.379  0.2972E-06  0.0000E+00  0.7500E-02  0.0000E+00
    -45.199  0.2260E-12  0.0000E+00  0.7500E-02  0.0000E+00
    -45.019  0.0000E+00  0.0000E+00  0.7500E-02  0.0000E+00
    -44.840  0.0000E+00  0.0000E+00  0.7500E-02  0.0000E+00
    -44.660  0.0000E+00  0.0000E+00  0.7500E-02  0.0000E+00
    -44.480  0.0000E+00  0.2066E-13  0.7500E-02  0.3711E-14
    -44.301  0.0000E+00  0.6312E-07  0.7500E-02  0.1134E-07
    -44.121  0.0000E+00  0.4021E-03  0.7500E-02  0.7226E-04
    -43.941  0.0000E+00  0.9977E-02  0.7500E-02  0.1865E-02
    -43.762  0.0000E+00  0.1099E-01  0.7500E-02  0.3839E-02
    -43.582  0.0000E+00  0.1674E-01  0.7500E-02  0.6846E-02
    -43.402  0.0000E+00  0.3632E-02  0.7500E-02  0.7498E-02
    -43.223  0.0000E+00  0.9716E-05  0.7500E-02  0.7500E-02
    -43.043  0.0000E+00  0.6727E-10  0.7500E-02  0.7500E-02
    -42.863  0.0000E+00  0.0000E+00  0.7500E-02  0.7500E-02
    -42.684  0.0000E+00  0.0000E+00  0.7500E-02  0.7500E-02
    -42.504  0.0000E+00  0.0000E+00  0.7500E-02  0.7500E-02
    -42.324  0.0000E+00  0.0000E+00  0.7500E-02  0.7500E-02
    -42.145  0.0000E+00  0.0000E+00  0.7500E-02  0.7500E-02
    -41.965  0.0000E+00  0.0000E+00  0.7500E-02  0.7500E-02
    -41.785  0.0000E+00  0.0000E+00  0.7500E-02  0.7500E-02
    -41.606  0.0000E+00  0.0000E+00  0.7500E-02  0.7500E-02
    -41.426  0.0000E+00  0.0000E+00  0.7500E-02  0.7500E-02
    -41.246  0.0000E+00  0.0000E+00  0.7500E-02  0.7500E-02
    -41.067  0.0000E+00  0.0000E+00  0.7500E-02  0.7500E-02
    -40.887  0.0000E+00  0.0000E+00  0.7500E-02  0.7500E-02
    -40.707  0.0000E+00  0.0000E+00  0.7500E-02  0.7500E-02
    -40.528  0.0000E+00  0.0000E+00  0.7500E-02  0.7500E-02
    -40.348  0.0000E+00  0.0000E+00  0.7500E-02  0.7500E-02
    -40.168  0.0000E+00  0.0000E+00  0.7500E-02  0.7500E-02
    -39.989  0.0000E+00  0.0000E+00  0.7500E-02  0.7500E-02
    -39.809  0.0000E+00  0.0000E+00  0.7500E-02  0.7500E-02
    -39.629  0.0000E+00  0.0000E+00  0.7500E-02  0.7500E-02
    -39.450  0.0000E+00  0.0000E+00  0.7500E-02  0.7500E-02
    -39.270  0.0000E+00  0.0000E+00  0.7500E-02  0.7500E-02
    -39.090  0.0000E+00  0.0000E+00  0.7500E-02  0.7500E-02
    -38.910  0.0000E+00  0.0000E+00  0.7500E-02  0.7500E-02
    -38.731  0.0000E+00  0.0000E+00  0.7500E-02  0.7500E-02
    -38.551  0.0000E+00  0.0000E+00  0.7500E-02  0.7500E-02
    -38.371  0.0000E+00  0.0000E+00  0.7500E-02  0.7500E-02
    -38.192  0.0000E+00  0.0000E+00  0.7500E-02  0.7500E-02
    -38.012  0.0000E+00  0.0000E+00  0.7500E-02  0.7500E-02
    -37.832  0.0000E+00  0.0000E+00  0.7500E-02  0.7500E-02
    -37.653  0.0000E+00  0.0000E+00  0.7500E-02  0.7500E-02
    -37.473  0.0000E+00  0.0000E+00  0.7500E-02  0.7500E-02
    -37.293  0.0000E+00  0.0000E+00  0.7500E-02  0.7500E-02
    -37.114  0.0000E+00  0.0000E+00  0.7500E-02  0.7500E-02
    -36.934  0.0000E+00  0.0000E+00  0.7500E-02  0.7500E-02
    -36.754  0.0000E+00  0.0000E+00  0.7500E-02  0.7500E-02
    -36.575  0.0000E+00  0.0000E+00  0.7500E-02  0.7500E-02
    -36.395  0.0000E+00  0.0000E+00  0.7500E-02  0.7500E-02
    -36.215  0.0000E+00  0.0000E+00  0.7500E-02  0.7500E-02
    -36.036  0.0000E+00  0.0000E+00  0.7500E-02  0.7500E-02
    -35.856  0.0000E+00  0.0000E+00  0.7500E-02  0.7500E-02
    -35.676  0.0000E+00  0.0000E+00  0.7500E-02  0.7500E-02
    -35.497  0.0000E+00  0.0000E+00  0.7500E-02  0.7500E-02
    -35.317  0.0000E+00  0.0000E+00  0.7500E-02  0.7500E-02
    -35.137  0.0000E+00  0.0000E+00  0.7500E-02  0.7500E-02
    -34.958  0.0000E+00  0.0000E+00  0.7500E-02  0.7500E-02
    -34.778  0.0000E+00  0.0000E+00  0.7500E-02  0.7500E-02
    -34.598  0.0000E+00  0.0000E+00  0.7500E-02  0.7500E-02
    -34.419  0.0000E+00  0.0000E+00  0.7500E-02  0.7500E-02
    -34.239  0.0000E+00  0.0000E+00  0.7500E-02  0.7500E-02
    -34.059  0.0000E+00  0.0000E+00  0.7500E-02  0.7500E-02
    -33.880  0.0000E+00  0.0000E+00  0.7500E-02  0.7500E-02
    -33.700  0.0000E+00  0.0000E+00  0.7500E-02  0.7500E-02
    -33.520  0.0000E+00  0.0000E+00  0.7500E-02  0.7500E-02
    -33.341  0.0000E+00  0.0000E+00  0.7500E-02  0.7500E-02
    -33.161  0.0000E+00  0.0000E+00  0.7500E-02  0.7500E-02
    -32.981  0.0000E+00  0.0000E+00  0.7500E-02  0.7500E-02
    -32.801  0.0000E+00  0.0000E+00  0.7500E-02  0.7500E-02
    -32.622  0.0000E+00  0.0000E+00  0.7500E-02  0.7500E-02
    -32.442  0.0000E+00  0.0000E+00  0.7500E-02  0.7500E-02
    -32.262  0.0000E+00  0.0000E+00  0.7500E-02  0.7500E-02
    -32.083  0.0000E+00  0.0000E+00  0.7500E-02  0.7500E-02
    -31.903  0.0000E+00  0.0000E+00  0.7500E-02  0.7500E-02
    -31.723  0.0000E+00  0.0000E+00  0.7500E-02  0.7500E-02
    -31.544  0.0000E+00  0.0000E+00  0.7500E-02  0.7500E-02
    -31.364  0.0000E+00  0.0000E+00  0.7500E-02  0.7500E-02
    -31.184  0.0000E+00  0.0000E+00  0.7500E-02  0.7500E-02
    -31.005  0.0000E+00  0.0000E+00  0.7500E-02  0.7500E-02
    -30.825  0.0000E+00  0.0000E+00  0.7500E-02  0.7500E-02
    -30.645  0.0000E+00  0.0000E+00  0.7500E-02  0.7500E-02
    -30.466  0.0000E+00  0.0000E+00  0.7500E-02  0.7500E-02
    -30.286  0.0000E+00  0.0000E+00  0.7500E-02  0.7500E-02
    -30.106  0.0000E+00  0.0000E+00  0.7500E-02  0.7500E-02
    -29.927  0.0000E+00  0.0000E+00  0.7500E-02  0.7500E-02
    -29.747  0.0000E+00  0.0000E+00  0.7500E-02  0.7500E-02
    -29.567  0.0000E+00  0.0000E+00  0.7500E-02  0.7500E-02
    -29.388  0.0000E+00  0.0000E+00  0.7500E-02  0.7500E-02
    -29.208  0.0000E+00  0.0000E+00  0.7500E-02  0.7500E-02
    -29.028  0.0000E+00  0.0000E+00  0.7500E-02  0.7500E-02
    -28.849  0.0000E+00  0.0000E+00  0.7500E-02  0.7500E-02
    -28.669  0.0000E+00  0.0000E+00  0.7500E-02  0.7500E-02
    -28.489  0.0000E+00  0.0000E+00  0.7500E-02  0.7500E-02
    -28.310  0.0000E+00  0.0000E+00  0.7500E-02  0.7500E-02
    -28.130  0.0000E+00  0.0000E+00  0.7500E-02  0.7500E-02
    -27.950  0.0000E+00  0.0000E+00  0.7500E-02  0.7500E-02
    -27.771  0.0000E+00  0.0000E+00  0.7500E-02  0.7500E-02
    -27.591  0.0000E+00  0.0000E+00  0.7500E-02  0.7500E-02
    -27.411  0.0000E+00  0.0000E+00  0.7500E-02  0.7500E-02
    -27.231  0.0000E+00  0.0000E+00  0.7500E-02  0.7500E-02
    -27.052  0.0000E+00  0.0000E+00  0.7500E-02  0.7500E-02
    -26.872  0.0000E+00  0.0000E+00  0.7500E-02  0.7500E-02
    -26.692  0.0000E+00  0.0000E+00  0.7500E-02  0.7500E-02
    -26.513  0.0000E+00  0.0000E+00  0.7500E-02  0.7500E-02
    -26.333  0.0000E+00  0.0000E+00  0.7500E-02  0.7500E-02
    -26.153  0.0000E+00  0.0000E+00  0.7500E-02  0.7500E-02
    -25.974  0.0000E+00  0.0000E+00  0.7500E-02  0.7500E-02
    -25.794  0.0000E+00  0.0000E+00  0.7500E-02  0.7500E-02
    -25.614  0.0000E+00  0.0000E+00  0.7500E-02  0.7500E-02
    -25.435  0.0000E+00  0.0000E+00  0.7500E-02  0.7500E-02
    -25.255  0.0000E+00  0.0000E+00  0.7500E-02  0.7500E-02
    -25.075  0.0000E+00  0.0000E+00  0.7500E-02  0.7500E-02
    -24.896  0.0000E+00  0.0000E+00  0.7500E-02  0.7500E-02
    -24.716  0.0000E+00  0.0000E+00  0.7500E-02  0.7500E-02
    -24.536  0.3547E-13  0.7050E-13  0.7500E-02  0.7500E-02
    -24.357  0.8974E-07  0.1400E-06  0.7500E-02  0.7500E-02
    -24.177  0.4774E-03  0.5910E-03  0.7586E-02  0.7606E-02
    -23.997  0.1016E-01  0.1045E-01  0.9411E-02  0.9484E-02
    -23.818  0.3272E-02  0.2868E-02  0.9999E-02  0.9999E-02
    -23.638  0.7717E-05  0.5433E-05  0.1000E-01  0.1000E-01
    -23.458  0.4552E-10  0.2522E-10  0.1000E-01  0.1000E-01
    -23.279  0.0000E+00  0.0000E+00  0.1000E-01  0.1000E-01
    -23.099  0.0000E+00  0.0000E+00  0.1000E-01  0.1000E-01
    -22.919  0.0000E+00  0.0000E+00  0.1000E-01  0.1000E-01
    -22.740  0.0000E+00  0.0000E+00  0.1000E-01  0.1000E-01
    -22.560  0.0000E+00  0.0000E+00  0.1000E-01  0.1000E-01
    -22.380  0.0000E+00  0.0000E+00  0.1000E-01  0.1000E-01
    -22.201  0.0000E+00  0.0000E+00  0.1000E-01  0.1000E-01
    -22.021  0.5198E-14  0.6261E-14  0.1000E-01  0.1000E-01
    -21.841  0.1995E-07  0.2259E-07  0.1000E-01  0.1000E-01
    -21.662  0.1704E-03  0.1819E-03  0.1003E-01  0.1003E-01
    -21.482  0.7394E-02  0.7537E-02  0.1136E-01  0.1139E-01
    -21.302  0.1253E-01  0.1249E-01  0.1361E-01  0.1363E-01
    -21.122  0.1188E-01  0.1205E-01  0.1575E-01  0.1580E-01
    -20.943  0.1548E-01  0.1556E-01  0.1853E-01  0.1859E-01
    -20.763  0.1143E-01  0.1122E-01  0.2058E-01  0.2061E-01
    -20.583  0.9901E-02  0.1015E-01  0.2236E-01  0.2243E-01
    -20.404  0.1926E-01  0.1936E-01  0.2582E-01  0.2591E-01
    -20.224  0.1081E-01  0.1066E-01  0.2776E-01  0.2783E-01
    -20.044  0.1235E-01  0.1247E-01  0.2998E-01  0.3007E-01
    -19.865  0.1421E-01  0.1425E-01  0.3254E-01  0.3263E-01
    -19.685  0.1605E-01  0.1608E-01  0.3542E-01  0.3552E-01
    -19.505  0.1430E-01  0.1411E-01  0.3799E-01  0.3805E-01
    -19.326  0.1058E-01  0.1077E-01  0.3989E-01  0.3999E-01
    -19.146  0.1336E-01  0.1354E-01  0.4229E-01  0.4242E-01
    -18.966  0.1626E-01  0.1619E-01  0.4521E-01  0.4533E-01
    -18.787  0.1405E-01  0.1390E-01  0.4774E-01  0.4783E-01
    -18.607  0.1090E-01  0.1065E-01  0.4970E-01  0.4974E-01
    -18.427  0.1451E-01  0.1460E-01  0.5230E-01  0.5236E-01
    -18.248  0.1582E-01  0.1688E-01  0.5515E-01  0.5540E-01
    -18.068  0.1976E-01  0.1900E-01  0.5870E-01  0.5881E-01
    -17.888  0.9597E-02  0.9343E-02  0.6042E-01  0.6049E-01
    -17.709  0.1091E-01  0.1095E-01  0.6238E-01  0.6246E-01
    -17.529  0.1480E-01  0.1520E-01  0.6504E-01  0.6519E-01
    -17.349  0.1648E-01  0.1615E-01  0.6800E-01  0.6809E-01
    -17.170  0.1728E-01  0.1755E-01  0.7111E-01  0.7124E-01
    -16.990  0.1629E-01  0.1627E-01  0.7403E-01  0.7417E-01
    -16.810  0.1812E-01  0.1815E-01  0.7729E-01  0.7743E-01
    -16.631  0.1764E-01  0.1739E-01  0.8046E-01  0.8055E-01
    -16.451  0.1009E-01  0.1029E-01  0.8227E-01  0.8240E-01
    -16.271  0.1111E-01  0.1086E-01  0.8427E-01  0.8435E-01
    -16.092  0.1418E-01  0.1476E-01  0.8681E-01  0.8700E-01
    -15.912  0.1778E-01  0.1751E-01  0.9001E-01  0.9015E-01
    -15.732  0.1052E-01  0.1019E-01  0.9190E-01  0.9198E-01
    -15.553  0.7531E-02  0.7812E-02  0.9325E-01  0.9338E-01
    -15.373  0.1044E-01  0.1056E-01  0.9513E-01  0.9528E-01
    -15.193  0.1338E-01  0.1340E-01  0.9753E-01  0.9769E-01
    -15.013  0.1275E-01  0.1249E-01  0.9982E-01  0.9993E-01
    -14.834  0.1832E-01  0.1851E-01  0.1031E+00  0.1033E+00
    -14.654  0.1632E-01  0.1608E-01  0.1060E+00  0.1061E+00
    -14.474  0.1567E-01  0.1559E-01  0.1089E+00  0.1089E+00
    -14.295  0.1319E-01  0.1330E-01  0.1112E+00  0.1113E+00
    -14.115  0.1580E-01  0.1576E-01  0.1141E+00  0.1142E+00
    -13.935  0.1496E-01  0.1546E-01  0.1168E+00  0.1169E+00
    -13.756  0.2141E-01  0.2100E-01  0.1206E+00  0.1207E+00
    -13.576  0.1005E-01  0.1004E-01  0.1224E+00  0.1225E+00
    -13.396  0.1474E-01  0.1498E-01  0.1251E+00  0.1252E+00
    -13.217  0.1418E-01  0.1418E-01  0.1276E+00  0.1278E+00
    -13.037  0.1069E-01  0.1013E-01  0.1295E+00  0.1296E+00
    -12.857  0.1360E-01  0.1393E-01  0.1320E+00  0.1321E+00
    -12.678  0.1940E-01  0.1962E-01  0.1355E+00  0.1356E+00
    -12.498  0.1426E-01  0.1416E-01  0.1380E+00  0.1382E+00
    -12.318  0.1073E-01  0.1038E-01  0.1399E+00  0.1400E+00
    -12.139  0.1134E-01  0.1141E-01  0.1420E+00  0.1421E+00
    -11.959  0.1489E-01  0.1492E-01  0.1447E+00  0.1448E+00
    -11.779  0.2460E-01  0.2501E-01  0.1491E+00  0.1492E+00
    -11.600  0.2339E-01  0.2343E-01  0.1533E+00  0.1535E+00
    -11.420  0.1721E-01  0.1682E-01  0.1564E+00  0.1565E+00
    -11.240  0.1055E-01  0.1045E-01  0.1583E+00  0.1584E+00
    -11.061  0.1523E-01  0.1535E-01  0.1610E+00  0.1611E+00
    -10.881  0.1699E-01  0.1699E-01  0.1641E+00  0.1642E+00
    -10.701  0.1603E-01  0.1592E-01  0.1669E+00  0.1670E+00
    -10.522  0.1325E-01  0.1341E-01  0.1693E+00  0.1694E+00
    -10.342  0.2746E-01  0.2799E-01  0.1743E+00  0.1745E+00
    -10.162  0.2821E-01  0.2759E-01  0.1793E+00  0.1794E+00
     -9.983  0.2798E-01  0.2827E-01  0.1844E+00  0.1845E+00
     -9.803  0.1953E-01  0.1905E-01  0.1879E+00  0.1879E+00
     -9.623  0.2034E-01  0.2068E-01  0.1915E+00  0.1916E+00
     -9.443  0.3038E-01  0.3038E-01  0.1970E+00  0.1971E+00
     -9.264  0.3199E-01  0.3180E-01  0.2027E+00  0.2028E+00
     -9.084  0.2592E-01  0.2604E-01  0.2074E+00  0.2075E+00
     -8.904  0.3818E-01  0.3815E-01  0.2142E+00  0.2143E+00
     -8.725  0.3906E-01  0.3935E-01  0.2213E+00  0.2214E+00
     -8.545  0.4436E-01  0.4492E-01  0.2292E+00  0.2295E+00
     -8.365  0.4872E-01  0.4812E-01  0.2380E+00  0.2381E+00
     -8.186  0.3433E-01  0.3407E-01  0.2442E+00  0.2443E+00
     -8.006  0.2933E-01  0.2990E-01  0.2494E+00  0.2496E+00
     -7.826  0.3131E-01  0.3072E-01  0.2550E+00  0.2551E+00
     -7.647  0.2387E-01  0.2391E-01  0.2593E+00  0.2594E+00
     -7.467  0.3538E-01  0.3571E-01  0.2657E+00  0.2659E+00
     -7.287  0.3514E-01  0.3487E-01  0.2720E+00  0.2721E+00
     -7.108  0.3351E-01  0.3263E-01  0.2780E+00  0.2780E+00
     -6.928  0.3203E-01  0.3262E-01  0.2838E+00  0.2839E+00
     -6.748  0.2096E-01  0.2090E-01  0.2876E+00  0.2876E+00
     -6.569  0.2124E-01  0.2105E-01  0.2914E+00  0.2914E+00
     -6.389  0.1848E-01  0.1765E-01  0.2947E+00  0.2946E+00
     -6.209  0.3261E-01  0.3137E-01  0.3005E+00  0.3002E+00
     -6.030  0.3301E-01  0.3498E-01  0.3065E+00  0.3065E+00
     -5.850  0.2942E-01  0.2919E-01  0.3118E+00  0.3117E+00
     -5.670  0.2449E-01  0.2254E-01  0.3162E+00  0.3158E+00
     -5.491  0.1537E-01  0.1708E-01  0.3189E+00  0.3188E+00
     -5.311  0.1932E-01  0.1780E-01  0.3224E+00  0.3220E+00
     -5.131  0.1642E-01  0.1562E-01  0.3253E+00  0.3249E+00
     -4.952  0.3140E-01  0.2243E-01  0.3310E+00  0.3289E+00
     -4.772  0.2820E-01  0.3461E-01  0.3361E+00  0.3351E+00
     -4.592  0.3512E-01  0.3638E-01  0.3424E+00  0.3416E+00
     -4.413  0.1398E-01  0.1727E-01  0.3449E+00  0.3447E+00
     -4.233  0.6339E-02  0.4456E-02  0.3460E+00  0.3455E+00
     -4.053  0.1387E-01  0.1046E-01  0.3485E+00  0.3474E+00
     -3.874  0.2530E-01  0.1448E-01  0.3531E+00  0.3500E+00
     -3.694  0.1285E-01  0.1571E-01  0.3554E+00  0.3528E+00
     -3.514  0.8757E-02  0.1818E-01  0.3569E+00  0.3561E+00
     -3.334  0.1610E-01  0.1407E-01  0.3598E+00  0.3586E+00
     -3.155  0.1729E-01  0.8551E-02  0.3629E+00  0.3602E+00
     -2.975  0.5094E-02  0.6238E-02  0.3639E+00  0.3613E+00
     -2.795  0.1047E-01  0.2937E-02  0.3657E+00  0.3618E+00
     -2.616  0.4205E-02  0.2782E-03  0.3665E+00  0.3619E+00
     -2.436  0.2373E-02  0.4244E-03  0.3669E+00  0.3620E+00
     -2.256  0.3009E-02  0.3113E-02  0.3675E+00  0.3625E+00
     -2.077  0.5227E-02  0.7757E-02  0.3684E+00  0.3639E+00
     -1.897  0.2192E-02  0.8107E-02  0.3688E+00  0.3654E+00
     -1.717  0.8996E-02  0.1471E-02  0.3704E+00  0.3656E+00
     -1.538  0.1665E-01  0.1745E-02  0.3734E+00  0.3659E+00
     -1.358  0.1472E-01  0.8322E-02  0.3760E+00  0.3674E+00
     -1.178  0.6908E-02  0.3694E-02  0.3773E+00  0.3681E+00
     -0.999  0.5264E-02  0.6512E-02  0.3782E+00  0.3693E+00
     -0.819  0.1511E-01  0.2911E-01  0.3809E+00  0.3745E+00
     -0.639  0.1981E-01  0.2782E-01  0.3845E+00  0.3795E+00
     -0.460  0.1423E-01  0.2468E-01  0.3871E+00  0.3839E+00
     -0.280  0.1696E-01  0.2372E-01  0.3901E+00  0.3882E+00
     -0.100  0.1366E-01  0.1805E-01  0.3926E+00  0.3914E+00
      0.079  0.9354E-02  0.1012E-01  0.3942E+00  0.3933E+00
      0.259  0.2269E-01  0.1853E-01  0.3983E+00  0.3966E+00
      0.439  0.1887E-01  0.2779E-01  0.4017E+00  0.4016E+00
      0.618  0.1330E-01  0.1425E-01  0.4041E+00  0.4041E+00
      0.798  0.1587E-01  0.1059E-01  0.4069E+00  0.4060E+00
      0.978  0.1676E-01  0.1192E-01  0.4100E+00  0.4082E+00
      1.157  0.1105E-01  0.1827E-01  0.4119E+00  0.4115E+00
      1.337  0.1753E-01  0.1469E-01  0.4151E+00  0.4141E+00
      1.517  0.1654E-01  0.1759E-01  0.4181E+00  0.4173E+00
      1.696  0.2370E-01  0.2267E-01  0.4223E+00  0.4213E+00
      1.876  0.2976E-01  0.2820E-01  0.4277E+00  0.4264E+00
      2.056  0.3359E-01  0.3238E-01  0.4337E+00  0.4322E+00
      2.235  0.2957E-01  0.2861E-01  0.4390E+00  0.4374E+00
      2.415  0.2072E-01  0.1713E-01  0.4427E+00  0.4404E+00
      2.595  0.4042E-01  0.4031E-01  0.4500E+00  0.4477E+00
      2.775  0.4609E-01  0.5364E-01  0.4583E+00  0.4573E+00
      2.954  0.9387E-02  0.1460E-01  0.4600E+00  0.4599E+00
      3.134  0.1389E-03  0.2930E-03  0.4600E+00  0.4600E+00
      3.314  0.1221E-07  0.6268E-07  0.4600E+00  0.4600E+00
      3.493  0.2454E-14  0.3760E-13  0.4600E+00  0.4600E+00
      3.673  0.0000E+00  0.0000E+00  0.4600E+00  0.4600E+00
      3.853  0.0000E+00  0.0000E+00  0.4600E+00  0.4600E+00
      4.032  0.0000E+00  0.0000E+00  0.4600E+00  0.4600E+00
      4.212  0.0000E+00  0.0000E+00  0.4600E+00  0.4600E+00
      4.392  0.0000E+00  0.0000E+00  0.4600E+00  0.4600E+00
      4.571  0.0000E+00  0.0000E+00  0.4600E+00  0.4600E+00
      4.751  0.0000E+00  0.0000E+00  0.4600E+00  0.4600E+00
      4.931  0.0000E+00  0.0000E+00  0.4600E+00  0.4600E+00
      5.110  0.0000E+00  0.0000E+00  0.4600E+00  0.4600E+00
      5.290  0.0000E+00  0.0000E+00  0.4600E+00  0.4600E+00
