 vasp.5.4.4.18Apr17-6-g9f103f2a35 (build Jan 14 2022 15:04:31) complex          
  
 executed on             LinuxIFC date 2023.01.27  22:53:25
 running on   48 total cores
 distrk:  each k-point on   48 cores,    1 groups
 distr:  one band on NCORES_PER_BAND=  12 cores,    4 groups


--------------------------------------------------------------------------------------------------------


 INCAR:
 POTCAR:    PAW_PBE C 08Apr2002                   
 POTCAR:    PAW_PBE N 08Apr2002                   
 POTCAR:    PAW_PBE C 08Apr2002                   
 POTCAR:    PAW_PBE Cr_pv 02Aug2007               
 POTCAR:    PAW_PBE C 08Apr2002                   
 POTCAR:    PAW_PBE O 08Apr2002                   
 POTCAR:    PAW_PBE C 08Apr2002                   
   SHA256 =  253f7b50bb8d59471dbedb8285d89021f4a42ed1a2c5d38a03a736e69125dd95 C/
   COPYR  = (c) Copyright 08Apr2002 Georg Kresse                                
   COPYR  = This file is part of the software VASP. Any use, copying, and all ot
   COPYR  = If you do not have a valid VASP license, you may not use, copy or di
   VRHFIN =C: s2p2                                                              
   LEXCH  = PE                                                                  
   EATOM  =   147.1560 eV,   10.8157 Ry                                         
                                                                                
   TITEL  = PAW_PBE C 08Apr2002                                                 
   LULTRA =        F    use ultrasoft PP ?                                      
   IUNSCR =        1    unscreen: 0-lin 1-nonlin 2-no                           
   RPACOR =    1.200    partial core radius                                     
   POMASS =   12.011; ZVAL   =    4.000    mass and valenz                      
   RCORE  =    1.500    outmost cutoff radius                                   
   RWIGS  =    1.630; RWIGS  =    0.863    wigner-seitz radius (au A)           
   ENMAX  =  400.000; ENMIN  =  300.000 eV                                      
   ICORE  =        2    local potential                                         
   LCOR   =        T    correct aug charges                                     
   LPAW   =        T    paw PP                                                  
   EAUG   =  644.873                                                            
   DEXC   =    0.000                                                            
   RMAX   =    1.529    core radius for proj-oper                               
   RAUG   =    1.300    factor for augmentation sphere                          
   RDEP   =    1.501    radius for radial grids                                 
   RDEPT  =    1.300    core radius for aug-charge                              
                                                                                
   Atomic configuration                                                         
    4 entries                                                                   
     n  l   j            E        occ.                                          
     1  0  0.50      -273.3789   2.0000                                         
     2  0  0.50       -13.7508   2.0000                                         
     2  1  0.50        -5.2854   2.0000                                         
     3  2  1.50        -5.4423   0.0000                                         
   Description                                                                  
     l       E           TYP  RCUT    TYP  RCUT                                 
     0    -13.7508458     23  1.200                                             
     0     -8.2022199     23  1.200                                             
     1     -5.2854383     23  1.500                                             
     1     34.0145650     23  1.500                                             
     2     -5.4423304      7  1.500                                             
  local pseudopotential read in
  partial core-charges read in
  partial kinetic energy density read in
  atomic valenz-charges read in
  non local Contribution for L=           0  read in
    real space projection operators read in
  non local Contribution for L=           0  read in
    real space projection operators read in
  non local Contribution for L=           1  read in
    real space projection operators read in
  non local Contribution for L=           1  read in
    real space projection operators read in
    PAW grid and wavefunctions read in
 
   number of l-projection  operators is LMAX  =           4
   number of lm-projection operators is LMMAX =           8
 
 POTCAR:    PAW_PBE N 08Apr2002                   
   SHA256 =  e053789ff3a61a86a1b75d8a110fcc91f86041011e7b0817c7c99e4e8a6349d7 N/
   COPYR  = (c) Copyright 08Apr2002 Georg Kresse                                
   COPYR  = This file is part of the software VASP. Any use, copying, and all ot
   COPYR  = If you do not have a valid VASP license, you may not use, copy or di
   VRHFIN =N: s2p3                                                              
   LEXCH  = PE                                                                  
   EATOM  =   264.5486 eV,   19.4438 Ry                                         
                                                                                
   TITEL  = PAW_PBE N 08Apr2002                                                 
   LULTRA =        F    use ultrasoft PP ?                                      
   IUNSCR =        1    unscreen: 0-lin 1-nonlin 2-no                           
   RPACOR =    1.200    partial core radius                                     
   POMASS =   14.001; ZVAL   =    5.000    mass and valenz                      
   RCORE  =    1.500    outmost cutoff radius                                   
   RWIGS  =    1.400; RWIGS  =    0.741    wigner-seitz radius (au A)           
   ENMAX  =  400.000; ENMIN  =  300.000 eV                                      
   ICORE  =        2    local potential                                         
   LCOR   =        T    correct aug charges                                     
   LPAW   =        T    paw PP                                                  
   EAUG   =  627.112                                                            
   DEXC   =    0.000                                                            
   RMAX   =    1.529    core radius for proj-oper                               
   RAUG   =    1.300    factor for augmentation sphere                          
   RDEP   =    1.514    radius for radial grids                                 
   RDEPT  =    1.338    core radius for aug-charge                              
                                                                                
   Atomic configuration                                                         
    4 entries                                                                   
     n  l   j            E        occ.                                          
     1  0  0.50      -384.7179   2.0000                                         
     2  0  0.50       -18.5828   2.0000                                         
     2  1  0.50        -7.0898   3.0000                                         
     3  2  1.50        -6.8029   0.0000                                         
   Description                                                                  
     l       E           TYP  RCUT    TYP  RCUT                                 
     0    -18.5828119     23  1.200                                             
     0    -13.5018863     23  1.200                                             
     1     -7.0897853     23  1.500                                             
     1      9.5240782     23  1.500                                             
     2     -6.8029130      7  1.500                                             
  local pseudopotential read in
  partial core-charges read in
  partial kinetic energy density read in
  atomic valenz-charges read in
  non local Contribution for L=           0  read in
    real space projection operators read in
  non local Contribution for L=           0  read in
    real space projection operators read in
  non local Contribution for L=           1  read in
    real space projection operators read in
  non local Contribution for L=           1  read in
    real space projection operators read in
    PAW grid and wavefunctions read in
 
   number of l-projection  operators is LMAX  =           4
   number of lm-projection operators is LMMAX =           8
 
 POTCAR:    PAW_PBE C 08Apr2002                   
   SHA256 =  253f7b50bb8d59471dbedb8285d89021f4a42ed1a2c5d38a03a736e69125dd95 C/
   COPYR  = (c) Copyright 08Apr2002 Georg Kresse                                
   COPYR  = This file is part of the software VASP. Any use, copying, and all ot
   COPYR  = If you do not have a valid VASP license, you may not use, copy or di
   VRHFIN =C: s2p2                                                              
   LEXCH  = PE                                                                  
   EATOM  =   147.1560 eV,   10.8157 Ry                                         
                                                                                
   TITEL  = PAW_PBE C 08Apr2002                                                 
   LULTRA =        F    use ultrasoft PP ?                                      
   IUNSCR =        1    unscreen: 0-lin 1-nonlin 2-no                           
   RPACOR =    1.200    partial core radius                                     
   POMASS =   12.011; ZVAL   =    4.000    mass and valenz                      
   RCORE  =    1.500    outmost cutoff radius                                   
   RWIGS  =    1.630; RWIGS  =    0.863    wigner-seitz radius (au A)           
   ENMAX  =  400.000; ENMIN  =  300.000 eV                                      
   ICORE  =        2    local potential                                         
   LCOR   =        T    correct aug charges                                     
   LPAW   =        T    paw PP                                                  
   EAUG   =  644.873                                                            
   DEXC   =    0.000                                                            
   RMAX   =    1.529    core radius for proj-oper                               
   RAUG   =    1.300    factor for augmentation sphere                          
   RDEP   =    1.501    radius for radial grids                                 
   RDEPT  =    1.300    core radius for aug-charge                              
                                                                                
   Atomic configuration                                                         
    4 entries                                                                   
     n  l   j            E        occ.                                          
     1  0  0.50      -273.3789   2.0000                                         
     2  0  0.50       -13.7508   2.0000                                         
     2  1  0.50        -5.2854   2.0000                                         
     3  2  1.50        -5.4423   0.0000                                         
   Description                                                                  
     l       E           TYP  RCUT    TYP  RCUT                                 
     0    -13.7508458     23  1.200                                             
     0     -8.2022199     23  1.200                                             
     1     -5.2854383     23  1.500                                             
     1     34.0145650     23  1.500                                             
     2     -5.4423304      7  1.500                                             
  local pseudopotential read in
  partial core-charges read in
  partial kinetic energy density read in
  atomic valenz-charges read in
  non local Contribution for L=           0  read in
    real space projection operators read in
  non local Contribution for L=           0  read in
    real space projection operators read in
  non local Contribution for L=           1  read in
    real space projection operators read in
  non local Contribution for L=           1  read in
    real space projection operators read in
    PAW grid and wavefunctions read in
 
   number of l-projection  operators is LMAX  =           4
   number of lm-projection operators is LMMAX =           8
 
 POTCAR:    PAW_PBE Cr_pv 02Aug2007               
   SHA256 =  c9a7df34d3cdbacf1090e328ef39c0b420964e11c23f63548d1ac9dd218cdba0 Cr
   COPYR  = (c) Copyright 02Aug2007 Georg Kresse                                
   COPYR  = This file is part of the software VASP. Any use, copying, and all ot
   COPYR  = If you do not have a valid VASP license, you may not use, copy or di
   VRHFIN =Cr : p6d5s1                                                          
   LEXCH  = PE                                                                  
   EATOM  =  1647.9177 eV,  121.1185 Ry                                         
                                                                                
   TITEL  = PAW_PBE Cr_pv 02Aug2007                                             
   LULTRA =        F    use ultrasoft PP ?                                      
   IUNSCR =        1    unscreen: 0-lin 1-nonlin 2-no                           
   RPACOR =    2.080    partial core radius                                     
   POMASS =   51.996; ZVAL   =   12.000    mass and valenz                      
   RCORE  =    2.300    outmost cutoff radius                                   
   RWIGS  =    2.500; RWIGS  =    1.323    wigner-seitz radius (au A)           
   ENMAX  =  265.681; ENMIN  =  199.261 eV                                      
   ICORE  =        3    local potential                                         
   LCOR   =        T    correct aug charges                                     
   LPAW   =        T    paw PP                                                  
   EAUG   =  519.424                                                            
   DEXC   =    0.000                                                            
   RMAX   =    2.356    core radius for proj-oper                               
   RAUG   =    1.300    factor for augmentation sphere                          
   RDEP   =    2.447    radius for radial grids                                 
   RDEPT  =    1.882    core radius for aug-charge                              
                                                                                
   Atomic configuration                                                         
    8 entries                                                                   
     n  l   j            E        occ.                                          
     1  0  0.50     -5880.4963   2.0000                                         
     2  0  0.50      -667.0865   2.0000                                         
     2  1  1.50      -560.6250   6.0000                                         
     3  0  0.50       -73.9860   2.0000                                         
     3  1  1.50       -45.4378   6.0000                                         
     3  2  2.50        -2.9137   5.0000                                         
     4  0  0.50        -4.0071   1.0000                                         
     4  3  2.50        -1.3606   0.0000                                         
   Description                                                                  
     l       E           TYP  RCUT    TYP  RCUT                                 
     1    -45.4377911     23  2.000                                             
     1      1.3605826     23  2.000                                             
     2     -2.9136672     23  2.300                                             
     2     -4.2742498     23  2.300                                             
     0     -4.0071320     23  2.300                                             
     0      9.4498803     23  2.300                                             
     3      2.7211652     23  2.300                                             
  local pseudopotential read in
  partial core-charges read in
  partial kinetic energy density read in
  atomic valenz-charges read in
  non local Contribution for L=           1  read in
    real space projection operators read in
  non local Contribution for L=           1  read in
    real space projection operators read in
  non local Contribution for L=           2  read in
    real space projection operators read in
  non local Contribution for L=           2  read in
    real space projection operators read in
  non local Contribution for L=           0  read in
    real space projection operators read in
  non local Contribution for L=           0  read in
    real space projection operators read in
    PAW grid and wavefunctions read in
 
   number of l-projection  operators is LMAX  =           6
   number of lm-projection operators is LMMAX =          18
 
 POTCAR:    PAW_PBE C 08Apr2002                   
   SHA256 =  253f7b50bb8d59471dbedb8285d89021f4a42ed1a2c5d38a03a736e69125dd95 C/
   COPYR  = (c) Copyright 08Apr2002 Georg Kresse                                
   COPYR  = This file is part of the software VASP. Any use, copying, and all ot
   COPYR  = If you do not have a valid VASP license, you may not use, copy or di
   VRHFIN =C: s2p2                                                              
   LEXCH  = PE                                                                  
   EATOM  =   147.1560 eV,   10.8157 Ry                                         
                                                                                
   TITEL  = PAW_PBE C 08Apr2002                                                 
   LULTRA =        F    use ultrasoft PP ?                                      
   IUNSCR =        1    unscreen: 0-lin 1-nonlin 2-no                           
   RPACOR =    1.200    partial core radius                                     
   POMASS =   12.011; ZVAL   =    4.000    mass and valenz                      
   RCORE  =    1.500    outmost cutoff radius                                   
   RWIGS  =    1.630; RWIGS  =    0.863    wigner-seitz radius (au A)           
   ENMAX  =  400.000; ENMIN  =  300.000 eV                                      
   ICORE  =        2    local potential                                         
   LCOR   =        T    correct aug charges                                     
   LPAW   =        T    paw PP                                                  
   EAUG   =  644.873                                                            
   DEXC   =    0.000                                                            
   RMAX   =    1.529    core radius for proj-oper                               
   RAUG   =    1.300    factor for augmentation sphere                          
   RDEP   =    1.501    radius for radial grids                                 
   RDEPT  =    1.300    core radius for aug-charge                              
                                                                                
   Atomic configuration                                                         
    4 entries                                                                   
     n  l   j            E        occ.                                          
     1  0  0.50      -273.3789   2.0000                                         
     2  0  0.50       -13.7508   2.0000                                         
     2  1  0.50        -5.2854   2.0000                                         
     3  2  1.50        -5.4423   0.0000                                         
   Description                                                                  
     l       E           TYP  RCUT    TYP  RCUT                                 
     0    -13.7508458     23  1.200                                             
     0     -8.2022199     23  1.200                                             
     1     -5.2854383     23  1.500                                             
     1     34.0145650     23  1.500                                             
     2     -5.4423304      7  1.500                                             
  local pseudopotential read in
  partial core-charges read in
  partial kinetic energy density read in
  atomic valenz-charges read in
  non local Contribution for L=           0  read in
    real space projection operators read in
  non local Contribution for L=           0  read in
    real space projection operators read in
  non local Contribution for L=           1  read in
    real space projection operators read in
  non local Contribution for L=           1  read in
    real space projection operators read in
    PAW grid and wavefunctions read in
 
   number of l-projection  operators is LMAX  =           4
   number of lm-projection operators is LMMAX =           8
 
 POTCAR:    PAW_PBE O 08Apr2002                   
   SHA256 =  818f92134a0a090dccd8ba1447fa70422a3b330e708bb4f08108d8ae51209ddf O/
   COPYR  = (c) Copyright 08Apr2002 Georg Kresse                                
   COPYR  = This file is part of the software VASP. Any use, copying, and all ot
   COPYR  = If you do not have a valid VASP license, you may not use, copy or di
   VRHFIN =O: s2p4                                                              
   LEXCH  = PE                                                                  
   EATOM  =   432.3788 eV,   31.7789 Ry                                         
                                                                                
   TITEL  = PAW_PBE O 08Apr2002                                                 
   LULTRA =        F    use ultrasoft PP ?                                      
   IUNSCR =        1    unscreen: 0-lin 1-nonlin 2-no                           
   RPACOR =    1.200    partial core radius                                     
   POMASS =   16.000; ZVAL   =    6.000    mass and valenz                      
   RCORE  =    1.520    outmost cutoff radius                                   
   RWIGS  =    1.550; RWIGS  =    0.820    wigner-seitz radius (au A)           
   ENMAX  =  400.000; ENMIN  =  300.000 eV                                      
   ICORE  =        2    local potential                                         
   LCOR   =        T    correct aug charges                                     
   LPAW   =        T    paw PP                                                  
   EAUG   =  605.392                                                            
   DEXC   =    0.000                                                            
   RMAX   =    1.553    core radius for proj-oper                               
   RAUG   =    1.300    factor for augmentation sphere                          
   RDEP   =    1.550    radius for radial grids                                 
   RDEPT  =    1.329    core radius for aug-charge                              
                                                                                
   Atomic configuration                                                         
    4 entries                                                                   
     n  l   j            E        occ.                                          
     1  0  0.50      -514.6923   2.0000                                         
     2  0  0.50       -23.9615   2.0000                                         
     2  1  0.50        -9.0305   4.0000                                         
     3  2  1.50        -9.5241   0.0000                                         
   Description                                                                  
     l       E           TYP  RCUT    TYP  RCUT                                 
     0    -23.9615318     23  1.200                                             
     0     -9.5240782     23  1.200                                             
     1     -9.0304911     23  1.520                                             
     1      8.1634956     23  1.520                                             
     2     -9.5240782      7  1.500                                             
  local pseudopotential read in
  partial core-charges read in
  partial kinetic energy density read in
  kinetic energy density of atom read in
  atomic valenz-charges read in
  non local Contribution for L=           0  read in
    real space projection operators read in
  non local Contribution for L=           0  read in
    real space projection operators read in
  non local Contribution for L=           1  read in
    real space projection operators read in
  non local Contribution for L=           1  read in
    real space projection operators read in
    PAW grid and wavefunctions read in
 
   number of l-projection  operators is LMAX  =           4
   number of lm-projection operators is LMMAX =           8
 

 ----------------------------------------------------------------------------- 
|                                                                             |
|  ADVICE TO THIS USER RUNNING 'VASP/VAMP'   (HEAR YOUR MASTER'S VOICE ...):  |
|                                                                             |
|      You have a (more or less) 'large supercell' and for larger cells       |
|      it might be more efficient to use real space projection opertators     |
|      So try LREAL= Auto  in the INCAR   file.                               |
|      Mind:          For very  accurate calculation you might also keep the  |
|      reciprocal projection scheme          (i.e. LREAL=.FALSE.)             |
|                                                                             |
 ----------------------------------------------------------------------------- 

  PAW_PBE C 08Apr2002                   :
 energy of atom  1       EATOM= -147.1560
 kinetic energy error for atom=    0.0132 (will be added to EATOM!!)
  PAW_PBE N 08Apr2002                   :
 energy of atom  2       EATOM= -264.5486
 kinetic energy error for atom=    0.0298 (will be added to EATOM!!)
  PAW_PBE C 08Apr2002                   :
 energy of atom  3       EATOM= -147.1560
 kinetic energy error for atom=    0.0132 (will be added to EATOM!!)
  PAW_PBE Cr_pv 02Aug2007               :
 energy of atom  4       EATOM=-1647.9177
 kinetic energy error for atom=    0.0134 (will be added to EATOM!!)
  PAW_PBE C 08Apr2002                   :
 energy of atom  5       EATOM= -147.1560
 kinetic energy error for atom=    0.0132 (will be added to EATOM!!)
  PAW_PBE O 08Apr2002                   :
 energy of atom  6       EATOM= -432.3788
 kinetic energy error for atom=    0.0458 (will be added to EATOM!!)
 
 
 POSCAR: POSCAR-clean                            
  positions in direct lattice
  velocities in cartesian coordinates
 exchange correlation table for  LEXCH =        8
   RHO(1)=    0.500       N(1)  =     2000
   RHO(2)=  100.500       N(2)  =     4000

 VTST: version 3.2, (02/03/18)

 CHAIN: initializing optimizer
 
 OPT: Using VASP Dynamics algorithm
 CHAIN: Read ICHAIN            0
 
 POSCAR: POSCAR-clean                            
  positions in direct lattice
  velocities in cartesian coordinates
 


--------------------------------------------------------------------------------------------------------


 ion  position               nearest neighbor table
   1  0.998  0.999  0.491-   2 1.42  60 1.43  70 1.44
   2  0.054  0.111  0.491-  13 1.42   1 1.42  15 1.43
   3  0.167  0.002  0.491-   4 1.42  62 1.43  60 1.43
   4  0.223  0.113  0.491-   3 1.42  15 1.43  17 1.43
   5  0.334  0.002  0.491-   6 1.42  62 1.43  64 1.43
   6  0.390  0.113  0.494-   5 1.42  19 1.43  17 1.43
   7  0.500  0.001  0.490-   8 1.42  64 1.42  66 1.44
   8  0.556  0.112  0.492-  21 1.42   7 1.42  19 1.44
   9  0.667  0.998  0.490-  68 1.42  10 1.42  66 1.43
  10  0.722  0.110  0.490-   9 1.42  23 1.42  21 1.44
  11  0.831  0.998  0.492-  68 1.41  12 1.42  70 1.42
  12  0.887  0.109  0.491-  11 1.42  23 1.42  13 1.43
  13  0.999  0.165  0.492-   2 1.42  14 1.42  12 1.43
  14  0.054  0.277  0.493-  13 1.42  25 1.42  27 1.43
  15  0.166  0.167  0.491-  16 1.42   4 1.43   2 1.43
  16  0.222  0.279  0.491-  15 1.42  27 1.43  29 1.44
  17  0.335  0.170  0.494-  18 1.42   6 1.43   4 1.43
  18  0.391  0.281  0.498-  17 1.42  29 1.43  31 1.44
  19  0.501  0.169  0.495-   6 1.43  20 1.43   8 1.44
  20  0.557  0.281  0.500-  33 1.42  19 1.43  31 1.45
  21  0.666  0.166  0.492-  22 1.42   8 1.42  10 1.44
  22  0.722  0.277  0.494-  21 1.42  35 1.43  33 1.43
  23  0.833  0.166  0.491-  24 1.42  10 1.42  12 1.42
  24  0.888  0.277  0.492-  23 1.42  35 1.42  25 1.43
  25  0.999  0.333  0.493-  26 1.42  14 1.42  24 1.43
  26  0.055  0.444  0.493-  25 1.42  37 1.42  39 1.42
  27  0.165  0.333  0.493-  28 1.42  16 1.43  14 1.43
  28  0.220  0.445  0.494-  39 1.42  27 1.42  41 1.42
  29  0.334  0.335  0.492-  30 1.40  18 1.43  16 1.44
  30  0.387  0.446  0.491-  29 1.40  41 1.42  71 1.91
  31  0.502  0.339  0.504-  32 1.44  18 1.44  20 1.45
  32  0.559  0.451  0.514-  43 1.43  31 1.44  71 2.04
  33  0.667  0.334  0.499-  34 1.42  20 1.42  22 1.43
  34  0.724  0.445  0.501-  43 1.41  33 1.42  45 1.42
  35  0.833  0.333  0.493-  36 1.42  24 1.42  22 1.43
  36  0.889  0.444  0.493-  35 1.42  45 1.42  37 1.42
  37  0.000  0.500  0.492-  38 1.42  36 1.42  26 1.42
  38  0.056  0.612  0.492-  47 1.42  37 1.42  49 1.42
  39  0.166  0.500  0.494-  28 1.42  26 1.42  40 1.42
  40  0.221  0.612  0.493-  51 1.42  49 1.42  39 1.42
  41  0.331  0.500  0.490-  30 1.42  28 1.42  42 1.44  71 2.51
  42  0.388  0.613  0.488-  51 1.42  53 1.43  41 1.44  71 2.51
  43  0.670  0.501  0.508-  34 1.41  44 1.42  32 1.43
  44  0.725  0.612  0.507-  57 1.41  43 1.42  55 1.43
  45  0.835  0.500  0.496-  46 1.42  36 1.42  34 1.42
  46  0.890  0.611  0.496-  45 1.42  47 1.42  57 1.42
  47  0.001  0.667  0.492-  38 1.42  48 1.42  46 1.42
  48  0.056  0.779  0.491-  47 1.42  61 1.42  59 1.43
  49  0.167  0.668  0.492-  50 1.42  40 1.42  38 1.42
  50  0.222  0.779  0.491-  49 1.42  61 1.43  63 1.43
  51  0.332  0.668  0.492-  42 1.42  52 1.42  40 1.42
  52  0.389  0.779  0.489-  51 1.42  63 1.42  65 1.42
  53  0.499  0.667  0.484-  54 1.41  42 1.43  71 1.93
  54  0.555  0.777  0.487-  53 1.41  67 1.43  65 1.43
  55  0.664  0.662  0.514-  44 1.43  56 1.44  71 2.04
  56  0.719  0.774  0.502-  55 1.44  67 1.44  69 1.44
  57  0.835  0.667  0.499-  44 1.41  58 1.42  46 1.42
  58  0.889  0.778  0.496-  57 1.42  69 1.42  59 1.43
  59  0.000  0.834  0.492-  60 1.42  58 1.43  48 1.43
  60  0.055  0.945  0.491-  59 1.42   1 1.43   3 1.43
  61  0.167  0.835  0.490-  62 1.42  48 1.42  50 1.43
  62  0.223  0.946  0.491-  61 1.42   3 1.43   5 1.43
  63  0.334  0.835  0.490-  64 1.42  52 1.42  50 1.43
  64  0.390  0.946  0.490-  63 1.42   7 1.42   5 1.43
  65  0.499  0.833  0.487-  66 1.42  52 1.42  54 1.43
  66  0.556  0.944  0.489-  65 1.42   9 1.43   7 1.44
  67  0.666  0.832  0.494-  68 1.41  54 1.43  56 1.44
  68  0.721  0.942  0.492-  67 1.41  11 1.41   9 1.42
  69  0.831  0.831  0.496-  58 1.42  70 1.42  56 1.44
  70  0.886  0.942  0.492-  69 1.42  11 1.42   1 1.44
  71  0.512  0.557  0.541-  30 1.91  72 1.91  53 1.93  55 2.04  32 2.04  41 2.51  42 2.51
  72  0.518  0.521  0.662-  73 1.16  71 1.91
  73  0.520  0.503  0.738-  72 1.16
 

IMPORTANT INFORMATION: All symmetrisations will be switched off!
NOSYMM: (Re-)initialisation of all symmetry stuff for point group C_1.

 
 
 KPOINTS: K-Points                                

Automatic generation of k-mesh.
Space group operators:
 irot       det(A)        alpha          n_x          n_y          n_z        tau_x        tau_y        tau_z
    1     1.000000     0.000000     1.000000     0.000000     0.000000     0.000000     0.000000     0.000000
 
 Subroutine IBZKPT returns following result:
 ===========================================
 
 Found      5 irreducible k-points:
 
 Following reciprocal coordinates:
            Coordinates               Weight
  0.000000  0.000000  0.000000      1.000000
  0.333333 -0.000000  0.000000      2.000000
 -0.000000  0.333333  0.000000      2.000000
  0.333333  0.333333  0.000000      2.000000
 -0.333333  0.333333  0.000000      2.000000
 
 Following cartesian coordinates:
            Coordinates               Weight
  0.000000  0.000000  0.000000      1.000000
  0.022436  0.013067  0.000000      2.000000
 -0.000000  0.026135  0.000000      2.000000
  0.022436  0.039202  0.000000      2.000000
 -0.022436  0.013067  0.000000      2.000000
 
 TETIRR: Found     24 inequivalent tetrahedra from       54


--------------------------------------------------------------------------------------------------------




 Dimension of arrays:
   k-points           NKPTS =      5   k-points in BZ     NKDIM =      5   number of bands    NBANDS=    192
   number of dos      NEDOS =   4000   number of ions     NIONS =     73
   non local maximal  LDIM  =      6   non local SUM 2l+1 LMDIM =     18
   total plane-waves  NPLWV = 512000
   max r-space proj   IRMAX =      1   max aug-charges    IRDMAX=   6467
   dimension x,y,z NGX =    80 NGY =   80 NGZ =   80
   dimension x,y,z NGXF=   160 NGYF=  160 NGZF=  160
   support grid    NGXF=   160 NGYF=  160 NGZF=  160
   ions per type =              67   1   2   1   1   1
   NGX,Y,Z   is equivalent  to a cutoff of   8.95,  9.01,  8.87 a.u.
   NGXF,Y,Z  is equivalent  to a cutoff of  17.90, 18.02, 17.73 a.u.

 SYSTEM =  unknown system                          
 POSCAR =  POSCAR-clean                            

 Startparameter for this run:
   NWRITE =      2    write-flag & timer
   PREC   = normal    normal or accurate (medium, high low for compatibility)
   ISTART =      0    job   : 0-new  1-cont  2-samecut
   ICHARG =      2    charge: 1-file 2-atom 10-const
   ISPIN  =      2    spin polarized calculation?
   LNONCOLLINEAR =      F non collinear calculations
   LSORBIT =      F    spin-orbit coupling
   INIWAV =      1    electr: 0-lowe 1-rand  2-diag
   LASPH  =      F    aspherical Exc in radial PAW
   METAGGA=      F    non-selfconsistent MetaGGA calc.

 Electronic Relaxation 1
   ENCUT  =  440.0 eV  32.34 Ry    5.69 a.u.  25.41 25.24 25.66*2*pi/ulx,y,z
   ENINI  =  440.0     initial cutoff
   ENAUG  =  644.9 eV  augmentation charge cutoff
   NELM   =    100;   NELMIN=  2; NELMDL= -5     # of ELM steps 
   EDIFF  = 0.1E-03   stopping-criterion for ELM
   LREAL  =      F    real-space projection
   NLSPLINE    = F    spline interpolate recip. space projectors
   LCOMPAT=      F    compatible to vasp.4.4
   GGA_COMPAT  = T    GGA compatible to vasp.4.4-vasp.4.6
   LMAXPAW     = -100 max onsite density
   LMAXMIX     =    2 max onsite mixed and CHGCAR
   VOSKOWN=      0    Vosko Wilk Nusair interpolation
   ROPT   =    0.00000   0.00000   0.00000   0.00000
   ROPT   =    0.00000   0.00000
 Ionic relaxation
   EDIFFG = -.1E-01   stopping-criterion for IOM
   NSW    =      0    number of steps for IOM
   NBLOCK =      1;   KBLOCK =      1    inner block; outer block 
   IBRION =     -1    ionic relax: 0-MD 1-quasi-New 2-CG
   NFREE  =      0    steps in history (QN), initial steepest desc. (CG)
   ISIF   =      2    stress and relaxation
   IWAVPR =     10    prediction:  0-non 1-charg 2-wave 3-comb
   ISYM   =      0    0-nonsym 1-usesym 2-fastsym
   LCORR  =      T    Harris-Foulkes like correction to forces

   POTIM  = 0.5000    time-step for ionic-motion
   TEIN   =    0.0    initial temperature
   TEBEG  =    0.0;   TEEND  =   0.0 temperature during run
   SMASS  =  -3.00    Nose mass-parameter (am)
   estimated Nose-frequenzy (Omega)   =  0.10E-29 period in steps =****** mass=  -0.504E-26a.u.
   SCALEE = 1.0000    scale energy and forces
   NPACO  =    256;   APACO  = 16.0  distance and # of slots for P.C.
   PSTRESS=    0.0 pullay stress

  Mass of Ions in am
   POMASS =  12.01 14.00 12.01 52.00 12.01 16.00
  Ionic Valenz
   ZVAL   =   4.00  5.00  4.00 12.00  4.00  6.00
  Atomic Wigner-Seitz radii
   RWIGS  =  -1.00 -1.00 -1.00 -1.00 -1.00 -1.00
  virtual crystal weights 
   VCA    =   1.00  1.00  1.00  1.00  1.00  1.00
   NELECT =     303.0000    total number of electrons
   NUPDOWN=      -1.0000    fix difference up-down

 DOS related values:
   EMIN   = -14.00;   EMAX   =  6.00  energy-range for DOS
   EFERMI =   0.00
   ISMEAR =    -5;   SIGMA  =   0.20  broadening in eV -4-tet -1-fermi 0-gaus

 Electronic relaxation 2 (details)
   IALGO  =     38    algorithm
   LDIAG  =      T    sub-space diagonalisation (order eigenvalues)
   LSUBROT=      F    optimize rotation matrix (better conditioning)
   TURBO    =      0    0=normal 1=particle mesh
   IRESTART =      0    0=no restart 2=restart with 2 vectors
   NREBOOT  =      0    no. of reboots
   NMIN     =      0    reboot dimension
   EREF     =   0.00    reference energy to select bands
   IMIX   =      4    mixing-type and parameters
     AMIX     =   0.25;   BMIX     =  0.00
     AMIX_MAG =   1.00;   BMIX_MAG =  0.00
     AMIN     =   0.10
     WC   =   100.;   INIMIX=   1;  MIXPRE=   1;  MAXMIX= -45

 Intra band minimization:
   WEIMIN = 0.0000     energy-eigenvalue tresh-hold
   EBREAK =  0.13E-06  absolut break condition
   DEPER  =   0.30     relativ break condition  

   TIME   =   0.40     timestep for ELM

  volume/ion in A,a.u.               =      38.94       262.75
  Fermi-wavevector in a.u.,A,eV,Ry     =   0.776241  1.466884  8.198201  0.602551
  Thomas-Fermi vector in A             =   1.878678
 
 Write flags
   LWAVE        =      F    write WAVECAR
   LDOWNSAMPLE  =      F    k-point downsampling of WAVECAR
   LCHARG       =      F    write CHGCAR
   LVTOT        =      F    write LOCPOT, total local potential
   LVHAR        =      F    write LOCPOT, Hartree potential only
   LELF         =      F    write electronic localiz. function (ELF)
   LORBIT       =     11    0 simple, 1 ext, 2 COOP (PROOUT), +10 PAW based schemes


 Dipole corrections
   LMONO  =      F    monopole corrections only (constant potential shift)
   LDIPOL =      F    correct potential (dipole corrections)
   IDIPOL =      0    1-x, 2-y, 3-z, 4-all directions 
   EPSILON=  1.0000000 bulk dielectric constant

 Exchange correlation treatment:
   GGA     =    --    GGA type
   LEXCH   =     8    internal setting for exchange type
   VOSKOWN=      0    Vosko Wilk Nusair interpolation
   LHFCALC =     F    Hartree Fock is set to
   LHFONE  =     F    Hartree Fock one center treatment
   AEXX    =    0.0000 exact exchange contribution

 Linear response parameters
   LEPSILON=     F    determine dielectric tensor
   LRPA    =     F    only Hartree local field effects (RPA)
   LNABLA  =     F    use nabla operator in PAW spheres
   LVEL    =     F    velocity operator in full k-point grid
   LINTERFAST=   F  fast interpolation
   KINTER  =     0    interpolate to denser k-point grid
   CSHIFT  =0.1000    complex shift for real part using Kramers Kronig
   OMEGAMAX=  -1.0    maximum frequency
   DEG_THRESHOLD= 0.2000000E-02 threshold for treating states as degnerate
   RTIME   =   -0.100 relaxation time in fs
  (WPLASMAI=    0.000 imaginary part of plasma frequency in eV, 0.658/RTIME)
   DFIELD  = 0.0000000 0.0000000 0.0000000 field for delta impulse in time
 
 Orbital magnetization related:
   ORBITALMAG=     F  switch on orbital magnetization
   LCHIMAG   =     F  perturbation theory with respect to B field
   DQ        =  0.001000  dq finite difference perturbation B field
   LLRAUG    =     F  two centre corrections for induced B field



--------------------------------------------------------------------------------------------------------


 Static calculation
 charge density and potential will be updated during run
 spin polarized calculation
 Variant of blocked Davidson
 Davidson routine will perform the subspace rotation
 perform sub-space diagonalisation
    after iterative eigenvector-optimisation
 modified Broyden-mixing scheme, WC =      100.0
 initial mixing is a Kerker type mixing with AMIX =  0.2500 and BMIX =      0.0001
 Hartree-type preconditioning will be used
 using additional bands           40
 reciprocal scheme for non local part
 use partial core corrections
 calculate Harris-corrections to forces 
   (improved forces if not selfconsistent)
 use gradient corrections 
 use of overlap-Matrix (Vanderbilt PP)
 Fermi weights with tetrahedron method with Bloechl corrections


--------------------------------------------------------------------------------------------------------


  energy-cutoff  :      440.00
  volume of cell :     2842.34
      direct lattice vectors                 reciprocal lattice vectors
    14.856884906  0.000020497  0.000000000     0.067308807  0.039202376  0.000000000
    -7.428442453 12.754318856  0.000000000    -0.000000108  0.078404751  0.000000000
     0.000000000  0.000000000 15.000000000     0.000000000  0.000000000  0.066666667

  length of vectors
    14.856884906 14.759891828 15.000000000     0.077892886  0.078404751  0.066666667


 
 k-points in units of 2pi/SCALE and weight: K-Points                                
   0.00000000  0.00000000  0.00000000       0.111
   0.02243627  0.01306746  0.00000000       0.222
  -0.00000004  0.02613492  0.00000000       0.222
   0.02243623  0.03920238  0.00000000       0.222
  -0.02243631  0.01306746  0.00000000       0.222
 
 k-points in reciprocal lattice and weights: K-Points                                
   0.00000000  0.00000000  0.00000000       0.111
   0.33333333 -0.00000000  0.00000000       0.222
  -0.00000000  0.33333333  0.00000000       0.222
   0.33333333  0.33333333  0.00000000       0.222
  -0.33333333  0.33333333  0.00000000       0.222
 
 position of ions in fractional coordinates (direct lattice) 
   0.99832868  0.99928485  0.49082257
   0.05447791  0.11074294  0.49106669
   0.16705362  0.00157143  0.49052908
   0.22293946  0.11294278  0.49141665
   0.33403283  0.00198122  0.49142274
   0.38967200  0.11334272  0.49405905
   0.50048633  0.00100494  0.49029324
   0.55578284  0.11247106  0.49237241
   0.66671348  0.99849183  0.48964465
   0.72213517  0.10984442  0.49048946
   0.83104040  0.99803043  0.49184280
   0.88681763  0.10941980  0.49146744
   0.99858567  0.16538914  0.49182130
   0.05431136  0.27698169  0.49286183
   0.16621709  0.16722371  0.49112094
   0.22188794  0.27851566  0.49109184
   0.33460029  0.16955928  0.49436446
   0.39053359  0.28106735  0.49763007
   0.50078731  0.16920503  0.49519646
   0.55651549  0.28101968  0.49950817
   0.66647044  0.16605353  0.49206736
   0.72223394  0.27740586  0.49440483
   0.83280254  0.16613120  0.49133379
   0.88840381  0.27741215  0.49215209
   0.99941189  0.33305268  0.49297985
   0.05487227  0.44431929  0.49316383
   0.16542177  0.33303922  0.49298897
   0.22041561  0.44452049  0.49443239
   0.33391372  0.33543664  0.49192827
   0.38730962  0.44554164  0.49126920
   0.50223680  0.33944101  0.50414999
   0.55928576  0.45130729  0.51449391
   0.66739319  0.33360353  0.49884798
   0.72387713  0.44485273  0.50092402
   0.83334393  0.33311463  0.49312637
   0.88928163  0.44439720  0.49349234
   0.00002113  0.50021554  0.49243747
   0.05568603  0.61168289  0.49184064
   0.16561848  0.50031042  0.49428094
   0.22144670  0.61182261  0.49314809
   0.33107637  0.50006064  0.48988115
   0.38778827  0.61298212  0.48776152
   0.66982250  0.50062934  0.50800448
   0.72527554  0.61210914  0.50725459
   0.83465989  0.50040705  0.49627210
   0.89001224  0.61148765  0.49558196
   0.00074114  0.66741849  0.49240459
   0.05606437  0.77891979  0.49145717
   0.16652161  0.66766382  0.49160115
   0.22242293  0.77911468  0.49051952
   0.33205439  0.66767438  0.49152686
   0.38855739  0.77894621  0.48899720
   0.49869866  0.66689089  0.48380949
   0.55479812  0.77710906  0.48662333
   0.66437689  0.66197517  0.51368734
   0.71913758  0.77364185  0.50181878
   0.83479921  0.66713165  0.49919828
   0.88930023  0.77824441  0.49610343
   0.00028522  0.83426890  0.49218264
   0.05535679  0.94529276  0.49063711
   0.16703336  0.83476473  0.49044687
   0.22280576  0.94627056  0.49061647
   0.33353831  0.83478650  0.48970432
   0.38950470  0.94602720  0.49019436
   0.49939821  0.83330484  0.48713638
   0.55571604  0.94434463  0.48880388
   0.66597304  0.83207845  0.49393867
   0.72091226  0.94239325  0.49165254
   0.83142582  0.83091892  0.49649544
   0.88628245  0.94235285  0.49229287
   0.51244632  0.55707672  0.54104191
   0.51848115  0.52071589  0.66220213
   0.52029477  0.50317094  0.73766728
 
 position of ions in cartesian coordinates  (Angst):
   7.40892424 12.74521809  7.36233855
  -0.01327557  1.41245192  7.36600040
   2.47022316  0.02004592  7.35793614
   2.47319690  1.44051278  7.37124973
   4.94797004  0.02527590  7.37134108
   4.94735213  1.44561724  7.41088574
   7.42820267  0.01282761  7.35439861
   7.42171687  1.43450312  7.38558618
   2.48804639 12.73509687  7.34466977
   9.91270610  1.40100558  7.35734188
   4.93285997 12.72921536  7.37764206
  12.36252882  1.39559320  7.37201165
  13.60728871  2.10944629  7.37731956
  -1.25064502  3.53271395  7.39292742
   1.22725650  2.13282793  7.36681405
   1.22762604  3.55228212  7.36637763
   3.71155667  2.16261995  7.41546683
   3.71421996  3.58483060  7.46445098
   6.18320959  2.15810516  7.42794684
   6.18054800  3.58422606  7.49262257
   8.66815547  2.11791331  7.38101038
   8.66945308  3.53813755  7.41607246
  11.13875542  2.11890731  7.37000689
  11.13817300  3.53822128  7.38228142
  12.37408484  4.24788054  7.39469780
  -2.48536924  5.66699107  7.39745738
  -0.01631054  4.24769177  7.39483458
  -0.02740558  5.66956058  7.41648586
   2.46914588  4.27827272  7.37892402
   2.44453396  5.68258809  7.36903802
   4.94015632  4.32934920  7.56224984
   4.95673391  5.75612859  7.71740869
   7.43722922  4.25489944  7.48271976
   7.44999622  5.67380844  7.51386026
   9.90637193  4.24866734  7.39689562
   9.91077576  5.66800178  7.40238517
  -3.71550840  6.37990848  7.38656204
  -3.71653028  7.80159980  7.37760953
  -1.25595248  6.38112206  7.41421407
  -1.25488094  7.80338515  7.39722139
   1.20409179  6.37793964  7.34821726
   1.20782330  7.81817742  7.31642281
   6.23257956  6.38520001  7.62006717
   6.22831766  7.80705007  7.60881892
   8.68320088  6.38236824  7.44408149
   8.68040864  7.79912668  7.43372937
  -4.94686879  8.51246824  7.38606887
  -4.95321902  9.93459254  7.37185748
  -2.48570988  8.51560068  7.37401725
  -2.48309671  9.93708166  7.35779280
  -0.02648689  8.51573873  7.37290289
  -0.01360472  9.93493630  7.33495799
   2.45514807  8.50574924  7.25714230
   2.46986190  9.91150816  7.29934999
   4.95312650  8.44305602  7.70531007
   4.93719020  9.86728963  7.52728176
   7.44676674  8.50882692  7.48797415
   7.43108736  9.92599558  7.44155147
  -6.19308092 10.64053151  7.38273958
  -6.19962340 12.05656637  7.35955660
  -3.71940632 10.64685891  7.35670306
  -3.71911681 12.06904097  7.35924708
  -1.24582322 10.64714007  7.34556480
  -1.24068214 12.06594054  7.35291547
   1.22934464 10.62824593  7.30704576
   1.24119956 12.04448390  7.33205825
   3.71323789 10.61260755  7.40908006
   3.70999647 12.01959881  7.37478811
   6.17996439 10.59782188  7.44743156
   6.16718240 12.01908687  7.38439299
   3.47514359  7.10514464  8.11562862
   3.83490679  6.64138707  9.93303189
   3.99218307  6.41761331 11.06500927
 


--------------------------------------------------------------------------------------------------------


 k-point  1 :   0.0000 0.0000 0.0000  plane waves:   59573
 k-point  2 :   0.3333-0.0000 0.0000  plane waves:   59536
 k-point  3 :  -0.0000 0.3333 0.0000  plane waves:   59600
 k-point  4 :   0.3333 0.3333 0.0000  plane waves:   59608
 k-point  5 :  -0.3333 0.3333 0.0000  plane waves:   59536

 maximum and minimum number of plane-waves per node :      5000     4941

 maximum number of plane-waves:     59608
 maximum index in each direction: 
   IXMAX=   25   IYMAX=   25   IZMAX=   25
   IXMIN=  -25   IYMIN=  -25   IZMIN=  -25


 parallel 3D FFT for wavefunctions:
    minimum data exchange during FFTs selected (reduces bandwidth)
 parallel 3D FFT for charge:
    minimum data exchange during FFTs selected (reduces bandwidth)


 total amount of memory used by VASP MPI-rank0   116041. kBytes
=======================================================================

   base      :      30000. kBytes
   nonl-proj :      27286. kBytes
   fftplans  :       4700. kBytes
   grid      :      15193. kBytes
   one-center:        217. kBytes
   wavefun   :      38645. kBytes
 
     INWAV:  cpu time    0.0000: real time    0.0000
 Broyden mixing: mesh for mixing (old mesh)
   NGX = 51   NGY = 51   NGZ = 51
  (NGX  =160   NGY  =160   NGZ  =160)
  gives a total of 132651 points

 initial charge density was supplied:
 charge density of overlapping atoms calculated
 number of electron     303.0000000 magnetization       2.0000000
 keeping initial charge density in first step


--------------------------------------------------------------------------------------------------------


 Maximum index for augmentation-charges          178 (set IRDMAX)


--------------------------------------------------------------------------------------------------------


 First call to EWALD:  gamma=   0.125
 Maximum number of real-space cells 3x 3x 3
 Maximum number of reciprocal cells 3x 3x 3

    FEWALD:  cpu time    0.0035: real time    0.0048


--------------------------------------- Iteration      1(   1)  ---------------------------------------


    POTLOK:  cpu time    0.2447: real time    0.2743
    SETDIJ:  cpu time    0.0088: real time    0.0101
     EDDAV:  cpu time   11.4513: real time   11.5447
 BZINTS: Fermi energy:  8.087202;303.000000 electrons
         Band energy:***********;  BLOECHL correction: -0.016105
       DOS:  cpu time    0.1145: real time    0.1149
    --------------------------------------------
      LOOP:  cpu time   11.8193: real time   11.9440

 eigenvalue-minimisations  :  4392
 total energy-change (2. order) : 0.2516719E+04  (-0.1122993E+05)
 number of electron     303.0000000 magnetization       2.0000000
 augmentation part      303.0000000 magnetization       2.0000000

 Free energy of the ion-electron system (eV)
  ---------------------------------------------------
  alpha Z        PSCENC =       167.30009242
  Ewald energy   TEWEN  =     30877.95733953
  -Hartree energ DENC   =    -40549.04075716
  -exchange      EXHF   =         0.00000000
  -V(xc)+E(xc)   XCENC  =      1023.25334403
  PAW double counting   =      9455.23336183    -9546.47664214
  entropy T*S    EENTRO =         0.00000000
  eigenvalues    EBANDS =     -1556.26087378
  atomic energy  EATOM  =     12644.75315347
  Solvation  Ediel_sol  =         0.00000000
  ---------------------------------------------------
  free energy    TOTEN  =      2516.71901820 eV

  energy without entropy =     2516.71901820  energy(sigma->0) =     2516.71901820


--------------------------------------------------------------------------------------------------------




--------------------------------------- Iteration      1(   2)  ---------------------------------------


     EDDAV:  cpu time   14.7330: real time   15.0933
 BZINTS: Fermi energy: -1.941829;303.000000 electrons
         Band energy:***********;  BLOECHL correction:  0.000000
       DOS:  cpu time    0.0052: real time    0.0052
    --------------------------------------------
      LOOP:  cpu time   14.7382: real time   15.0985

 eigenvalue-minimisations  :  5456
 total energy-change (2. order) :-0.2760742E+04  (-0.2635522E+04)
 number of electron     303.0000000 magnetization       2.0000000
 augmentation part      303.0000000 magnetization       2.0000000

 Free energy of the ion-electron system (eV)
  ---------------------------------------------------
  alpha Z        PSCENC =       167.30009242
  Ewald energy   TEWEN  =     30877.95733953
  -Hartree energ DENC   =    -40549.04075716
  -exchange      EXHF   =         0.00000000
  -V(xc)+E(xc)   XCENC  =      1023.25334403
  PAW double counting   =      9455.23336183    -9546.47664214
  entropy T*S    EENTRO =         0.00000000
  eigenvalues    EBANDS =     -4317.00337049
  atomic energy  EATOM  =     12644.75315347
  Solvation  Ediel_sol  =         0.00000000
  ---------------------------------------------------
  free energy    TOTEN  =      -244.02347851 eV

  energy without entropy =     -244.02347851  energy(sigma->0) =     -244.02347851


--------------------------------------------------------------------------------------------------------




--------------------------------------- Iteration      1(   3)  ---------------------------------------


     EDDAV:  cpu time   12.7208: real time   12.9203
 BZINTS: Fermi energy: -4.518936;303.000000 electrons
         Band energy:***********;  BLOECHL correction: -0.051896
       DOS:  cpu time    0.0108: real time    0.0108
    --------------------------------------------
      LOOP:  cpu time   12.7316: real time   12.9312

 eigenvalue-minimisations  :  4568
 total energy-change (2. order) :-0.4559491E+03  (-0.4519090E+03)
 number of electron     303.0000000 magnetization       2.0000000
 augmentation part      303.0000000 magnetization       2.0000000

 Free energy of the ion-electron system (eV)
  ---------------------------------------------------
  alpha Z        PSCENC =       167.30009242
  Ewald energy   TEWEN  =     30877.95733953
  -Hartree energ DENC   =    -40549.04075716
  -exchange      EXHF   =         0.00000000
  -V(xc)+E(xc)   XCENC  =      1023.25334403
  PAW double counting   =      9455.23336183    -9546.47664214
  entropy T*S    EENTRO =         0.00000000
  eigenvalues    EBANDS =     -4772.95245733
  atomic energy  EATOM  =     12644.75315347
  Solvation  Ediel_sol  =         0.00000000
  ---------------------------------------------------
  free energy    TOTEN  =      -699.97256534 eV

  energy without entropy =     -699.97256534  energy(sigma->0) =     -699.97256534


--------------------------------------------------------------------------------------------------------




--------------------------------------- Iteration      1(   4)  ---------------------------------------


     EDDAV:  cpu time   12.7469: real time   12.9118
 BZINTS: Fermi energy: -4.691299;303.000000 electrons
         Band energy:***********;  BLOECHL correction: -0.045956
       DOS:  cpu time    0.0111: real time    0.0111
    --------------------------------------------
      LOOP:  cpu time   12.7580: real time   12.9229

 eigenvalue-minimisations  :  4640
 total energy-change (2. order) :-0.1649568E+02  (-0.1635478E+02)
 number of electron     303.0000000 magnetization       2.0000000
 augmentation part      303.0000000 magnetization       2.0000000

 Free energy of the ion-electron system (eV)
  ---------------------------------------------------
  alpha Z        PSCENC =       167.30009242
  Ewald energy   TEWEN  =     30877.95733953
  -Hartree energ DENC   =    -40549.04075716
  -exchange      EXHF   =         0.00000000
  -V(xc)+E(xc)   XCENC  =      1023.25334403
  PAW double counting   =      9455.23336183    -9546.47664214
  entropy T*S    EENTRO =         0.00000000
  eigenvalues    EBANDS =     -4789.44813458
  atomic energy  EATOM  =     12644.75315347
  Solvation  Ediel_sol  =         0.00000000
  ---------------------------------------------------
  free energy    TOTEN  =      -716.46824260 eV

  energy without entropy =     -716.46824260  energy(sigma->0) =     -716.46824260


--------------------------------------------------------------------------------------------------------




--------------------------------------- Iteration      1(   5)  ---------------------------------------


     EDDAV:  cpu time   14.3483: real time   14.5613
 BZINTS: Fermi energy: -4.701366;303.000000 electrons
         Band energy:***********;  BLOECHL correction: -0.044912
       DOS:  cpu time    0.0116: real time    0.0117
    CHARGE:  cpu time    0.1679: real time    0.1717
    MIXING:  cpu time    0.0043: real time    0.0045
    --------------------------------------------
      LOOP:  cpu time   14.5322: real time   14.7492

 eigenvalue-minimisations  :  5320
 total energy-change (2. order) :-0.5445648E+00  (-0.5434029E+00)
 number of electron     302.9999976 magnetization       0.1213589
 augmentation part       12.4785103 magnetization       0.0959196

 Broyden mixing:
  rms(total) = 0.47935E+01    rms(broyden)= 0.47930E+01
  rms(prec ) = 0.54740E+01
  weight for this iteration     100.00

 Free energy of the ion-electron system (eV)
  ---------------------------------------------------
  alpha Z        PSCENC =       167.30009242
  Ewald energy   TEWEN  =     30877.95733953
  -Hartree energ DENC   =    -40549.04075716
  -exchange      EXHF   =         0.00000000
  -V(xc)+E(xc)   XCENC  =      1023.25334403
  PAW double counting   =      9455.23336183    -9546.47664214
  entropy T*S    EENTRO =         0.00000000
  eigenvalues    EBANDS =     -4789.99269937
  atomic energy  EATOM  =     12644.75315347
  Solvation  Ediel_sol  =         0.00000000
  ---------------------------------------------------
  free energy    TOTEN  =      -717.01280738 eV

  energy without entropy =     -717.01280738  energy(sigma->0) =     -717.01280738


--------------------------------------------------------------------------------------------------------




--------------------------------------- Iteration      1(   6)  ---------------------------------------


    POTLOK:  cpu time    0.2096: real time    0.2133
    SETDIJ:  cpu time    0.0106: real time    0.0106
     EDDAV:  cpu time   12.6971: real time   12.8022
 BZINTS: Fermi energy: -5.518712;303.000000 electrons
         Band energy:***********;  BLOECHL correction: -0.023172
       DOS:  cpu time    0.0113: real time    0.0116
    CHARGE:  cpu time    0.1659: real time    0.1723
    MIXING:  cpu time    0.0031: real time    0.0035
    --------------------------------------------
      LOOP:  cpu time   13.0976: real time   13.2136

 eigenvalue-minimisations  :  4776
 total energy-change (2. order) : 0.5839991E+01  (-0.7513812E+01)
 number of electron     303.0000002 magnetization       0.0915495
 augmentation part       17.8215988 magnetization       0.1011328

 Broyden mixing:
  rms(total) = 0.71548E+01    rms(broyden)= 0.71545E+01
  rms(prec ) = 0.81910E+01
  weight for this iteration     100.00

 eigenvalues of (default mixing * dielectric matrix)
  average eigenvalue GAMMA=   0.2823
  0.2823

 Free energy of the ion-electron system (eV)
  ---------------------------------------------------
  alpha Z        PSCENC =       167.30009242
  Ewald energy   TEWEN  =     30877.95733953
  -Hartree energ DENC   =    -40908.96356377
  -exchange      EXHF   =         0.00000000
  -V(xc)+E(xc)   XCENC  =      1035.84536854
  PAW double counting   =     13273.03908181   -13364.65370361
  entropy T*S    EENTRO =         0.00000000
  eigenvalues    EBANDS =     -4436.45058458
  atomic energy  EATOM  =     12644.75315347
  Solvation  Ediel_sol  =         0.00000000
  ---------------------------------------------------
  free energy    TOTEN  =      -711.17281619 eV

  energy without entropy =     -711.17281619  energy(sigma->0) =     -711.17281619


--------------------------------------------------------------------------------------------------------




--------------------------------------- Iteration      1(   7)  ---------------------------------------


    POTLOK:  cpu time    0.1363: real time    0.1425
    SETDIJ:  cpu time    0.0087: real time    0.0087
     EDDAV:  cpu time   13.4628: real time   14.0161
 BZINTS: Fermi energy: -4.036471;303.000000 electrons
         Band energy:***********;  BLOECHL correction: -0.014289
       DOS:  cpu time    0.0115: real time    0.0116
    CHARGE:  cpu time    0.1702: real time    0.1738
    MIXING:  cpu time    0.0037: real time    0.0040
    --------------------------------------------
      LOOP:  cpu time   13.7932: real time   14.3567

 eigenvalue-minimisations  :  5328
 total energy-change (2. order) : 0.3578009E+02  (-0.7613273E+01)
 number of electron     302.9999981 magnetization       0.4330743
 augmentation part       13.9573289 magnetization       0.1934826

 Broyden mixing:
  rms(total) = 0.25338E+01    rms(broyden)= 0.25333E+01
  rms(prec ) = 0.27694E+01
  weight for this iteration     100.00

 eigenvalues of (default mixing * dielectric matrix)
  average eigenvalue GAMMA=   0.7665
  1.2509  0.2821

 Free energy of the ion-electron system (eV)
  ---------------------------------------------------
  alpha Z        PSCENC =       167.30009242
  Ewald energy   TEWEN  =     30877.95733953
  -Hartree energ DENC   =    -41062.89034285
  -exchange      EXHF   =         0.00000000
  -V(xc)+E(xc)   XCENC  =      1040.20847604
  PAW double counting   =     14454.66034948   -14550.58780414
  entropy T*S    EENTRO =         0.00000000
  eigenvalues    EBANDS =     -4246.79399387
  atomic energy  EATOM  =     12644.75315347
  Solvation  Ediel_sol  =         0.00000000
  ---------------------------------------------------
  free energy    TOTEN  =      -675.39272993 eV

  energy without entropy =     -675.39272993  energy(sigma->0) =     -675.39272993


--------------------------------------------------------------------------------------------------------




--------------------------------------- Iteration      1(   8)  ---------------------------------------


    POTLOK:  cpu time    0.1575: real time    0.1596
    SETDIJ:  cpu time    0.0105: real time    0.0105
     EDDAV:  cpu time   12.6065: real time   12.7676
 BZINTS: Fermi energy: -2.477936;303.000000 electrons
         Band energy:***********;  BLOECHL correction: -0.035393
       DOS:  cpu time    0.0123: real time    0.0123
    CHARGE:  cpu time    0.2202: real time    0.2223
    MIXING:  cpu time    0.0038: real time    0.0038
    --------------------------------------------
      LOOP:  cpu time   13.0108: real time   13.1762

 eigenvalue-minimisations  :  4776
 total energy-change (2. order) : 0.6824180E+01  (-0.3114792E+01)
 number of electron     302.9999984 magnetization       0.5168590
 augmentation part       12.4853554 magnetization       0.1847606

 Broyden mixing:
  rms(total) = 0.22490E+01    rms(broyden)= 0.22487E+01
  rms(prec ) = 0.26067E+01
  weight for this iteration     100.00

 eigenvalues of (default mixing * dielectric matrix)
  average eigenvalue GAMMA=   1.2160
  2.7726  0.3150  0.5605

 Free energy of the ion-electron system (eV)
  ---------------------------------------------------
  alpha Z        PSCENC =       167.30009242
  Ewald energy   TEWEN  =     30877.95733953
  -Hartree energ DENC   =    -41385.81248862
  -exchange      EXHF   =         0.00000000
  -V(xc)+E(xc)   XCENC  =      1051.68389323
  PAW double counting   =     18956.22348033   -19055.62155360
  entropy T*S    EENTRO =         0.00000000
  eigenvalues    EBANDS =     -3925.05246656
  atomic energy  EATOM  =     12644.75315347
  Solvation  Ediel_sol  =         0.00000000
  ---------------------------------------------------
  free energy    TOTEN  =      -668.56854980 eV

  energy without entropy =     -668.56854980  energy(sigma->0) =     -668.56854980


--------------------------------------------------------------------------------------------------------




--------------------------------------- Iteration      1(   9)  ---------------------------------------


    POTLOK:  cpu time    0.1358: real time    0.1382
    SETDIJ:  cpu time    0.0105: real time    0.0105
     EDDAV:  cpu time   12.3563: real time   12.4475
 BZINTS: Fermi energy: -2.707506;303.000000 electrons
         Band energy:***********;  BLOECHL correction: -0.056810
       DOS:  cpu time    0.0103: real time    0.0103
    CHARGE:  cpu time    0.1656: real time    0.1664
    MIXING:  cpu time    0.0037: real time    0.0037
    --------------------------------------------
      LOOP:  cpu time   12.6821: real time   12.7766

 eigenvalue-minimisations  :  4624
 total energy-change (2. order) : 0.3964264E+01  (-0.2075761E+01)
 number of electron     302.9999985 magnetization       0.2782234
 augmentation part       14.3439471 magnetization       0.0839530

 Broyden mixing:
  rms(total) = 0.14716E+01    rms(broyden)= 0.14708E+01
  rms(prec ) = 0.17906E+01
  weight for this iteration     100.00

 eigenvalues of (default mixing * dielectric matrix)
  average eigenvalue GAMMA=   1.2342
  3.1827  1.0398  0.3572  0.3572

 Free energy of the ion-electron system (eV)
  ---------------------------------------------------
  alpha Z        PSCENC =       167.30009242
  Ewald energy   TEWEN  =     30877.95733953
  -Hartree energ DENC   =    -41762.49495107
  -exchange      EXHF   =         0.00000000
  -V(xc)+E(xc)   XCENC  =      1065.51198576
  PAW double counting   =     26431.03725080   -26533.54033925
  entropy T*S    EENTRO =         0.00000000
  eigenvalues    EBANDS =     -3555.12881707
  atomic energy  EATOM  =     12644.75315347
  Solvation  Ediel_sol  =         0.00000000
  ---------------------------------------------------
  free energy    TOTEN  =      -664.60428541 eV

  energy without entropy =     -664.60428541  energy(sigma->0) =     -664.60428541


--------------------------------------------------------------------------------------------------------




--------------------------------------- Iteration      1(  10)  ---------------------------------------


    POTLOK:  cpu time    0.1364: real time    0.1388
    SETDIJ:  cpu time    0.0086: real time    0.0087
     EDDAV:  cpu time   13.4383: real time   13.5573
 BZINTS: Fermi energy: -1.972059;303.000000 electrons
         Band energy:***********;  BLOECHL correction: -0.004123
       DOS:  cpu time    0.0121: real time    0.0122
    CHARGE:  cpu time    0.1628: real time    0.1631
    MIXING:  cpu time    0.0039: real time    0.0039
    --------------------------------------------
      LOOP:  cpu time   13.7620: real time   13.8839

 eigenvalue-minimisations  :  5224
 total energy-change (2. order) : 0.1196882E+01  (-0.8202029E+00)
 number of electron     302.9999984 magnetization       0.5671468
 augmentation part       13.0366599 magnetization       0.0843629

 Broyden mixing:
  rms(total) = 0.73350E+00    rms(broyden)= 0.73298E+00
  rms(prec ) = 0.80282E+00
  weight for this iteration     100.00

 eigenvalues of (default mixing * dielectric matrix)
  average eigenvalue GAMMA=   1.2547
  3.4949  1.4366  0.6492  0.3464  0.3464

 Free energy of the ion-electron system (eV)
  ---------------------------------------------------
  alpha Z        PSCENC =       167.30009242
  Ewald energy   TEWEN  =     30877.95733953
  -Hartree energ DENC   =    -41782.02537406
  -exchange      EXHF   =         0.00000000
  -V(xc)+E(xc)   XCENC  =      1066.19858174
  PAW double counting   =     28411.23448102   -28514.02430337
  entropy T*S    EENTRO =         0.00000000
  eigenvalues    EBANDS =     -3534.80137406
  atomic energy  EATOM  =     12644.75315347
  Solvation  Ediel_sol  =         0.00000000
  ---------------------------------------------------
  free energy    TOTEN  =      -663.40740331 eV

  energy without entropy =     -663.40740331  energy(sigma->0) =     -663.40740331


--------------------------------------------------------------------------------------------------------




--------------------------------------- Iteration      1(  11)  ---------------------------------------


    POTLOK:  cpu time    0.1356: real time    0.1378
    SETDIJ:  cpu time    0.0104: real time    0.0105
     EDDAV:  cpu time   13.0322: real time   13.1565
 BZINTS: Fermi energy: -1.991842;303.000000 electrons
         Band energy:***********;  BLOECHL correction:  0.000000
       DOS:  cpu time    0.0053: real time    0.0053
    CHARGE:  cpu time    0.1626: real time    0.1636
    MIXING:  cpu time    0.0038: real time    0.0038
    --------------------------------------------
      LOOP:  cpu time   13.3499: real time   13.4774

 eigenvalue-minimisations  :  4968
 total energy-change (2. order) : 0.9748087E-01  (-0.1041804E+00)
 number of electron     302.9999985 magnetization       1.0401624
 augmentation part       13.1349020 magnetization       0.3963155

 Broyden mixing:
  rms(total) = 0.55541E+00    rms(broyden)= 0.55521E+00
  rms(prec ) = 0.60684E+00
  weight for this iteration     100.00

 eigenvalues of (default mixing * dielectric matrix)
  average eigenvalue GAMMA=   1.1988
  3.4995  1.7319  0.6231  0.6231  0.3577  0.3577

 Free energy of the ion-electron system (eV)
  ---------------------------------------------------
  alpha Z        PSCENC =       167.30009242
  Ewald energy   TEWEN  =     30877.95733953
  -Hartree energ DENC   =    -41757.81411665
  -exchange      EXHF   =         0.00000000
  -V(xc)+E(xc)   XCENC  =      1065.90319395
  PAW double counting   =     30068.41968361   -30170.79087243
  entropy T*S    EENTRO =         0.00000000
  eigenvalues    EBANDS =     -3559.03839635
  atomic energy  EATOM  =     12644.75315347
  Solvation  Ediel_sol  =         0.00000000
  ---------------------------------------------------
  free energy    TOTEN  =      -663.30992244 eV

  energy without entropy =     -663.30992244  energy(sigma->0) =     -663.30992244


--------------------------------------------------------------------------------------------------------




--------------------------------------- Iteration      1(  12)  ---------------------------------------


    POTLOK:  cpu time    0.1376: real time    0.1398
    SETDIJ:  cpu time    0.0092: real time    0.0098
     EDDAV:  cpu time   12.0287: real time   12.1440
 BZINTS: Fermi energy: -2.192046;303.000000 electrons
         Band energy:***********;  BLOECHL correction:  0.000000
       DOS:  cpu time    0.0072: real time    0.0077
    CHARGE:  cpu time    0.1653: real time    0.1660
    MIXING:  cpu time    0.0039: real time    0.0039
    --------------------------------------------
      LOOP:  cpu time   12.3519: real time   12.4713

 eigenvalue-minimisations  :  4536
 total energy-change (2. order) : 0.8625953E-01  (-0.4578484E-01)
 number of electron     302.9999985 magnetization       1.0014728
 augmentation part       13.2774950 magnetization       0.4863653

 Broyden mixing:
  rms(total) = 0.30638E+00    rms(broyden)= 0.30626E+00
  rms(prec ) = 0.32059E+00
  weight for this iteration     100.00

 eigenvalues of (default mixing * dielectric matrix)
  average eigenvalue GAMMA=   1.3425
  3.7920  2.4169  0.8768  0.8010  0.8010  0.3548  0.3548

 Free energy of the ion-electron system (eV)
  ---------------------------------------------------
  alpha Z        PSCENC =       167.30009242
  Ewald energy   TEWEN  =     30877.95733953
  -Hartree energ DENC   =    -41709.29141902
  -exchange      EXHF   =         0.00000000
  -V(xc)+E(xc)   XCENC  =      1064.42475309
  PAW double counting   =     31126.63612932   -31228.36828906
  entropy T*S    EENTRO =         0.00000000
  eigenvalues    EBANDS =     -3606.63542267
  atomic energy  EATOM  =     12644.75315347
  Solvation  Ediel_sol  =         0.00000000
  ---------------------------------------------------
  free energy    TOTEN  =      -663.22366292 eV

  energy without entropy =     -663.22366292  energy(sigma->0) =     -663.22366292


--------------------------------------------------------------------------------------------------------




--------------------------------------- Iteration      1(  13)  ---------------------------------------


    POTLOK:  cpu time    0.1474: real time    0.1496
    SETDIJ:  cpu time    0.0106: real time    0.0107
     EDDAV:  cpu time   12.4809: real time   12.6506
 BZINTS: Fermi energy: -2.262065;303.000000 electrons
         Band energy:***********;  BLOECHL correction:  0.000000
       DOS:  cpu time    0.0076: real time    0.0077
    CHARGE:  cpu time    0.1903: real time    0.1920
    MIXING:  cpu time    0.0041: real time    0.0041
    --------------------------------------------
      LOOP:  cpu time   12.8410: real time   13.0146

 eigenvalue-minimisations  :  4784
 total energy-change (2. order) :-0.1563839E-02  (-0.1978322E-01)
 number of electron     302.9999985 magnetization       0.9620911
 augmentation part       13.4005859 magnetization       0.5314803

 Broyden mixing:
  rms(total) = 0.20440E+00    rms(broyden)= 0.20432E+00
  rms(prec ) = 0.20812E+00
  weight for this iteration     100.00

 eigenvalues of (default mixing * dielectric matrix)
  average eigenvalue GAMMA=   1.3657
  3.7851  2.2822  1.6034  1.0483  0.7487  0.7487  0.3546  0.3546

 Free energy of the ion-electron system (eV)
  ---------------------------------------------------
  alpha Z        PSCENC =       167.30009242
  Ewald energy   TEWEN  =     30877.95733953
  -Hartree energ DENC   =    -41686.70553446
  -exchange      EXHF   =         0.00000000
  -V(xc)+E(xc)   XCENC  =      1063.76822461
  PAW double counting   =     31859.76059562   -31961.12166450
  entropy T*S    EENTRO =         0.00000000
  eigenvalues    EBANDS =     -3628.93743343
  atomic energy  EATOM  =     12644.75315347
  Solvation  Ediel_sol  =         0.00000000
  ---------------------------------------------------
  free energy    TOTEN  =      -663.22522676 eV

  energy without entropy =     -663.22522676  energy(sigma->0) =     -663.22522676


--------------------------------------------------------------------------------------------------------




--------------------------------------- Iteration      1(  14)  ---------------------------------------


    POTLOK:  cpu time    0.1348: real time    0.1369
    SETDIJ:  cpu time    0.0098: real time    0.0102
     EDDAV:  cpu time   11.8593: real time   11.9616
 BZINTS: Fermi energy: -2.252062;303.000000 electrons
         Band energy:***********;  BLOECHL correction:  0.000000
       DOS:  cpu time    0.0074: real time    0.0077
    CHARGE:  cpu time    0.1601: real time    0.1608
    MIXING:  cpu time    0.0043: real time    0.0043
    --------------------------------------------
      LOOP:  cpu time   12.1757: real time   12.2815

 eigenvalue-minimisations  :  4440
 total energy-change (2. order) :-0.5736972E-02  (-0.4390101E-02)
 number of electron     302.9999985 magnetization       0.9842004
 augmentation part       13.4028957 magnetization       0.5662319

 Broyden mixing:
  rms(total) = 0.16920E+00    rms(broyden)= 0.16918E+00
  rms(prec ) = 0.17550E+00
  weight for this iteration     100.00

 eigenvalues of (default mixing * dielectric matrix)
  average eigenvalue GAMMA=   1.3689
  3.6870  2.5752  1.9960  0.3547  0.3547  0.8945  0.8945  0.7816  0.7816

 Free energy of the ion-electron system (eV)
  ---------------------------------------------------
  alpha Z        PSCENC =       167.30009242
  Ewald energy   TEWEN  =     30877.95733953
  -Hartree energ DENC   =    -41692.39973487
  -exchange      EXHF   =         0.00000000
  -V(xc)+E(xc)   XCENC  =      1063.94678252
  PAW double counting   =     31856.56402183   -31957.94388912
  entropy T*S    EENTRO =         0.00000000
  eigenvalues    EBANDS =     -3623.40872950
  atomic energy  EATOM  =     12644.75315347
  Solvation  Ediel_sol  =         0.00000000
  ---------------------------------------------------
  free energy    TOTEN  =      -663.23096373 eV

  energy without entropy =     -663.23096373  energy(sigma->0) =     -663.23096373


--------------------------------------------------------------------------------------------------------




--------------------------------------- Iteration      1(  15)  ---------------------------------------


    POTLOK:  cpu time    0.1627: real time    0.1653
    SETDIJ:  cpu time    0.0102: real time    0.0102
     EDDAV:  cpu time   12.5990: real time   12.7091
 BZINTS: Fermi energy: -2.252062;303.000000 electrons
         Band energy:***********;  BLOECHL correction:  0.000000
       DOS:  cpu time    0.0074: real time    0.0074
    CHARGE:  cpu time    0.1619: real time    0.1624
    MIXING:  cpu time    0.0045: real time    0.0045
    --------------------------------------------
      LOOP:  cpu time   12.9457: real time   13.0590

 eigenvalue-minimisations  :  4792
 total energy-change (2. order) :-0.1464026E-03  (-0.8111019E-03)
 number of electron     302.9999985 magnetization       1.0006431
 augmentation part       13.3955587 magnetization       0.6009925

 Broyden mixing:
  rms(total) = 0.12350E+00    rms(broyden)= 0.12349E+00
  rms(prec ) = 0.12959E+00
  weight for this iteration     100.00

 eigenvalues of (default mixing * dielectric matrix)
  average eigenvalue GAMMA=   1.3421
  3.7018  2.6659  2.0040  0.3547  0.3547  0.9623  0.9623  0.7965  0.7965  0.8227

 Free energy of the ion-electron system (eV)
  ---------------------------------------------------
  alpha Z        PSCENC =       167.30009242
  Ewald energy   TEWEN  =     30877.95733953
  -Hartree energ DENC   =    -41692.39284879
  -exchange      EXHF   =         0.00000000
  -V(xc)+E(xc)   XCENC  =      1063.93686697
  PAW double counting   =     31838.64588165   -31939.96165274
  entropy T*S    EENTRO =         0.00000000
  eigenvalues    EBANDS =     -3623.46994265
  atomic energy  EATOM  =     12644.75315347
  Solvation  Ediel_sol  =         0.00000000
  ---------------------------------------------------
  free energy    TOTEN  =      -663.23111013 eV

  energy without entropy =     -663.23111013  energy(sigma->0) =     -663.23111013


--------------------------------------------------------------------------------------------------------




--------------------------------------- Iteration      1(  16)  ---------------------------------------


    POTLOK:  cpu time    0.1456: real time    0.1477
    SETDIJ:  cpu time    0.0104: real time    0.0104
     EDDAV:  cpu time   12.9100: real time   13.0943
 BZINTS: Fermi energy: -2.252062;303.000000 electrons
         Band energy:***********;  BLOECHL correction:  0.000000
       DOS:  cpu time    0.0075: real time    0.0075
    CHARGE:  cpu time    0.1630: real time    0.1675
    MIXING:  cpu time    0.0041: real time    0.0044
    --------------------------------------------
      LOOP:  cpu time   13.2406: real time   13.4319

 eigenvalue-minimisations  :  4888
 total energy-change (2. order) : 0.1090972E-02  (-0.2921414E-03)
 number of electron     302.9999985 magnetization       0.9983076
 augmentation part       13.3837466 magnetization       0.6066582

 Broyden mixing:
  rms(total) = 0.92154E-01    rms(broyden)= 0.92151E-01
  rms(prec ) = 0.95549E-01
  weight for this iteration     100.00

 eigenvalues of (default mixing * dielectric matrix)
  average eigenvalue GAMMA=   1.3587
  3.6926  2.3088  1.9590  1.9590  0.3547  0.3547  0.9590  0.9175  0.9175  0.7616
  0.7616

 Free energy of the ion-electron system (eV)
  ---------------------------------------------------
  alpha Z        PSCENC =       167.30009242
  Ewald energy   TEWEN  =     30877.95733953
  -Hartree energ DENC   =    -41691.99255720
  -exchange      EXHF   =         0.00000000
  -V(xc)+E(xc)   XCENC  =      1063.93003097
  PAW double counting   =     31852.72472329   -31953.98343554
  entropy T*S    EENTRO =         0.00000000
  eigenvalues    EBANDS =     -3623.91936611
  atomic energy  EATOM  =     12644.75315347
  Solvation  Ediel_sol  =         0.00000000
  ---------------------------------------------------
  free energy    TOTEN  =      -663.23001916 eV

[...]
   0.177E+02 -.326E+01 0.382E+01   -.178E+02 0.321E+01 -.361E+01   -.296E-01 0.561E-01 -.196E+00   0.121E-01 -.238E-03 -.110E-01
   0.571E+02 0.167E+02 0.672E+02   -.572E+02 -.174E+02 -.692E+02   0.189E+00 0.787E+00 0.205E+01   -.533E-01 -.384E-01 -.485E-01
   0.536E+02 -.191E+02 0.692E+02   -.533E+02 0.199E+02 -.706E+02   -.111E+00 -.862E+00 0.157E+01   -.630E-01 0.340E-01 -.542E-01
   -.438E+02 0.145E+02 0.108E+02   0.426E+02 -.147E+02 -.105E+02   0.109E+01 0.182E+00 -.230E+00   0.295E-01 -.160E-01 -.327E-01
   -.396E+02 -.204E+02 0.785E+01   0.382E+02 0.204E+02 -.747E+01   0.124E+01 -.284E-01 -.338E+00   0.327E-01 0.325E-01 -.343E-01
   -.150E+02 0.270E+01 0.127E+02   0.147E+02 -.277E+01 -.127E+02   0.279E+00 0.185E-01 0.161E-01   -.120E-02 0.194E-02 -.688E-02
   -.146E+02 -.488E+01 0.134E+02   0.144E+02 0.484E+01 -.134E+02   0.262E+00 0.880E-01 0.120E-01   -.460E-02 0.485E-02 -.657E-02
   -.608E+01 -.378E+01 0.138E+02   0.592E+01 0.371E+01 -.139E+02   0.989E-01 0.602E-01 0.555E-01   -.186E-02 0.347E-02 -.402E-02
   -.399E+01 -.445E+01 0.127E+02   0.401E+01 0.443E+01 -.127E+02   0.160E-01 0.189E-01 -.380E-01   -.349E-02 -.262E-02 -.357E-02
   0.779E+01 -.342E+01 0.932E+01   -.783E+01 0.339E+01 -.935E+01   0.533E-01 0.137E-01 0.243E-01   0.141E-01 -.108E-02 -.495E-02
   0.537E+01 -.485E+01 0.106E+02   -.549E+01 0.488E+01 -.105E+02   0.739E-01 -.181E-01 -.235E-01   0.121E-01 -.672E-02 -.431E-02
   0.274E+02 -.112E+02 0.124E+02   -.273E+02 0.110E+02 -.120E+02   -.118E+00 0.229E+00 -.336E+00   0.553E-02 0.270E-03 -.200E-01
   0.160E+02 -.139E+02 0.206E+02   -.163E+02 0.136E+02 -.207E+02   0.199E+00 0.219E+00 0.701E-01   0.156E-01 -.284E-02 -.112E-01
   -.157E+01 -.550E+02 0.146E+03   0.924E+01 0.508E+02 -.147E+03   -.760E+01 0.401E+01 0.150E+01   -.955E-01 0.134E+00 -.112E+00
   0.717E+01 -.280E+02 0.585E+02   -.783E+01 0.262E+02 -.587E+02   0.640E+00 0.178E+01 0.236E+00   -.150E-02 0.284E-01 -.303E-01
   -.183E+02 -.501E+02 -.659E+01   0.117E+02 0.450E+02 0.876E+01   0.644E+01 0.496E+01 -.213E+01   0.105E+00 0.126E+00 -.717E-01
   -.130E+02 -.213E+02 0.266E+01   0.138E+02 0.186E+02 -.252E+01   -.758E+00 0.270E+01 -.119E+00   -.289E-02 0.295E-01 -.239E-01
   -.239E+02 -.105E+02 0.112E+02   0.234E+02 0.100E+02 -.113E+02   0.559E+00 0.401E+00 0.124E+00   -.844E-02 0.673E-02 -.112E-01
   -.147E+02 -.132E+02 0.937E+01   0.149E+02 0.129E+02 -.927E+01   -.139E+00 0.322E+00 -.945E-01   -.159E-01 0.253E-02 -.718E-02
   -.768E+01 -.309E+01 0.138E+02   0.765E+01 0.301E+01 -.138E+02   0.199E-01 0.475E-01 0.540E-01   -.732E-02 -.346E-02 -.412E-02
   -.534E+01 -.470E+01 0.156E+02   0.558E+01 0.467E+01 -.156E+02   -.192E+00 0.369E-01 0.400E-01   -.696E-02 -.150E-02 -.357E-02
   0.304E+00 -.138E+01 0.123E+02   -.368E+00 0.141E+01 -.124E+02   0.736E-01 -.446E-01 0.420E-01   0.232E-02 -.483E-02 -.332E-02
   -.234E+00 0.405E+00 0.117E+02   0.231E+00 -.383E+00 -.116E+02   0.942E-02 -.609E-01 -.144E-01   -.171E-04 0.258E-03 -.339E-02
   0.953E+01 -.477E+01 0.134E+02   -.966E+01 0.481E+01 -.134E+02   0.865E-01 -.238E-01 0.132E-01   0.130E-01 -.100E-01 -.544E-02
   0.547E+01 -.436E+01 0.123E+02   -.573E+01 0.439E+01 -.123E+02   0.200E+00 -.248E-01 0.152E-01   0.101E-01 -.926E-02 -.435E-02
   0.143E+02 -.131E+02 0.327E+02   -.144E+02 0.125E+02 -.328E+02   0.139E+00 0.633E+00 0.104E+00   0.103E-01 -.281E-02 -.124E-01
   0.143E+02 -.141E+02 0.186E+02   -.157E+02 0.136E+02 -.186E+02   0.136E+01 0.492E+00 0.287E-01   0.214E-01 -.125E-01 -.661E-02
   -.518E+01 0.433E+01 0.172E+02   0.544E+01 -.115E+02 -.168E+02   -.244E+00 0.717E+01 -.492E+00   -.114E-02 0.274E-01 -.197E-01
   -.664E+00 -.173E+02 0.171E+02   0.652E+00 0.167E+02 -.171E+02   0.231E-01 0.587E+00 -.148E-02   -.235E-02 -.187E-01 -.109E-01
   -.109E+02 -.105E+02 0.975E+01   0.109E+02 0.954E+01 -.972E+01   -.441E-01 0.962E+00 -.371E-01   -.170E-01 0.251E-02 -.963E-02
   -.145E+02 -.102E+02 0.151E+02   0.158E+02 0.941E+01 -.152E+02   -.127E+01 0.781E+00 0.132E+00   -.224E-01 -.626E-02 -.548E-02
   0.315E+02 -.720E+02 -.287E+03   -.219E+02 0.702E+02 0.281E+03   -.968E+01 0.189E+01 0.666E+01   -.400E-01 -.110E-02 -.329E+00
   0.124E+02 -.842E+01 -.262E+03   -.153E+02 0.124E+02 0.243E+03   0.291E+01 -.402E+01 0.187E+02   0.307E-01 -.404E-01 0.157E+00
   -.322E+02 0.548E+02 -.680E+03   0.401E+02 -.661E+02 0.737E+03   -.793E+01 0.113E+02 -.572E+02   0.121E-01 -.165E-01 0.751E-01
 -----------------------------------------------------------------------------------------------
   0.122E+02 -.996E+01 0.326E+02   -.199E-12 0.171E-12 0.114E-12   -.123E+02 0.100E+02 -.314E+02   0.245E-01 -.740E-01 -.117E+01
 
 
 POSITION                                       TOTAL-FORCE (eV/Angst)
 -----------------------------------------------------------------------------------
      7.40892     12.74522      7.36234        -0.042197      0.085109      0.028449
     -0.01328      1.41245      7.36600         0.077851     -0.001448      0.006443
      2.47022      0.02005      7.35794        -0.009819      0.005940     -0.001303
      2.47320      1.44051      7.37125        -0.006163      0.002298     -0.002568
      4.94797      0.02528      7.37134         0.013271      0.005946      0.002015
      4.94735      1.44562      7.41089         0.000094      0.017612     -0.010284
      7.42820      0.01283      7.35440         0.069599      0.073124      0.012230
      7.42172      1.43450      7.38559        -0.022850     -0.020292      0.010109
      2.48805     12.73510      7.34467        -0.017427      0.052758      0.013796
      9.91271      1.40101      7.35734        -0.026184     -0.027715      0.018040
      4.93286     12.72922      7.37764        -0.050639      0.046717      0.021079
     12.36253      1.39559      7.37201         0.050298     -0.025637     -0.001002
     13.60729      2.10945      7.37732        -0.091304     -0.037023     -0.018586
     -1.25065      3.53271      7.39293         0.014202      0.042974     -0.021635
      1.22726      2.13283      7.36681        -0.035202     -0.011252      0.000342
      1.22763      3.55228      7.36638         0.005473      0.004312     -0.012420
      3.71156      2.16262      7.41547        -0.005409     -0.061717     -0.008586
      3.71422      3.58483      7.46445         0.024192      0.014797     -0.035766
      6.18321      2.15811      7.42795         0.023081     -0.034124     -0.020595
      6.18055      3.58423      7.49262        -0.018241      0.001825     -0.008451
      8.66816      2.11791      7.38101         0.042710     -0.041952      0.013336
      8.66945      3.53814      7.41607        -0.035055      0.074515      0.019093
     11.13876      2.11891      7.37001         0.000199     -0.042869     -0.000036
     11.13817      3.53822      7.38228         0.027665      0.020849      0.018941
     12.37408      4.24788      7.39470        -0.012866     -0.109261     -0.019001
     -2.48537      5.66699      7.39746         0.023223      0.091900     -0.003778
     -0.01631      4.24769      7.39483         0.015644     -0.003346     -0.020657
     -0.02741      5.66956      7.41649        -0.030305      0.020627     -0.036712
      2.46915      4.27827      7.37892        -0.033033     -0.031309      0.013779
      2.44453      5.68259      7.36904        -0.028915      0.023336     -0.017818
      4.94016      4.32935      7.56225         0.025938     -0.055468      0.008143
      4.95673      5.75613      7.71741         0.051311      0.005842     -0.002973
      7.43723      4.25490      7.48272        -0.007321     -0.030371     -0.019298
      7.45000      5.67381      7.51386        -0.038286      0.050014     -0.009704
      9.90637      4.24867      7.39690        -0.023557     -0.090257      0.015287
      9.91078      5.66800      7.40239        -0.009177      0.103052      0.011401
     -3.71551      6.37991      7.38656        -0.016083     -0.059500      0.027996
     -3.71653      7.80160      7.37761         0.014583      0.056409      0.015505
     -1.25595      6.38112      7.41421         0.017130     -0.027291     -0.010589
     -1.25488      7.80339      7.39722        -0.059867      0.009297      0.001533
      1.20409      6.37794      7.34822         0.016432      0.008208      0.025658
      1.20782      7.81818      7.31642         0.037810     -0.000368      0.012704
      6.23258      6.38520      7.62007        -0.022419      0.012198      0.013111
      6.22832      7.80705      7.60882        -0.041748     -0.018851      0.004963
      8.68320      6.38237      7.44408        -0.026104     -0.052056      0.021583
      8.68041      7.79913      7.43373         0.064704      0.051905      0.015976
     -4.94687      8.51247      7.38607        -0.058717      0.000479      0.005996
     -4.95322      9.93459      7.37186         0.038093      0.000922      0.003036
     -2.48571      8.51560      7.37402         0.034602     -0.021531     -0.007942
     -2.48310      9.93708      7.35779        -0.031535      0.002307     -0.000455
     -0.02649      8.51574      7.37290        -0.012648     -0.000908     -0.004772
     -0.01360      9.93494      7.33496        -0.005801     -0.025772     -0.019065
      2.45515      8.50575      7.25714        -0.005908     -0.053734     -0.074867
      2.46986      9.91151      7.29935         0.000013      0.036940     -0.002855
      4.95313      8.44306      7.70531        -0.017242     -0.032521     -0.027635
      4.93719      9.86729      7.52728         0.015336      0.044960      0.004251
      7.44677      8.50883      7.48797         0.006504     -0.031605     -0.016139
      7.43109      9.92600      7.44155         0.037987      0.005020     -0.003552
     -6.19308     10.64053      7.38274        -0.014693     -0.035292      0.016172
     -6.19962     12.05657      7.35956         0.042041      0.011025      0.019185
     -3.71941     10.64686      7.35670         0.011965     -0.014121      0.003384
     -3.71912     12.06904      7.35925         0.006184     -0.038399      0.000078
     -1.24582     10.64714      7.34556        -0.031643      0.011191      0.004216
     -1.24068     12.06594      7.35292        -0.045997     -0.006351      0.001777
      1.22934     10.62825      7.30705         0.024092      0.026776     -0.020232
      1.24120     12.04448      7.33206         0.041305     -0.016787      0.018196
      3.71324     10.61261      7.40908         0.015089      0.016371     -0.027223
      3.71000     12.01960      7.37479         0.009436     -0.006190     -0.006362
      6.17996     10.59782      7.44743        -0.073990      0.040388     -0.009291
      6.16718     12.01909      7.38439         0.026892      0.005596      0.021086
      3.47514      7.10514      8.11563        -0.050652      0.049197      0.069881
      3.83491      6.64139      9.93303         0.089842     -0.045022     -0.008534
      3.99218      6.41761     11.06501         0.044208     -0.022395     -0.008082
 -----------------------------------------------------------------------------------
    total drift:                               -0.012015     -0.001024      0.025345


--------------------------------------------------------------------------------------------------------



  FREE ENERGIE OF THE ION-ELECTRON SYSTEM (eV)
  ---------------------------------------------------
  free  energy   TOTEN  =      -669.79735381 eV

  energy  without entropy=     -669.79735381  energy(sigma->0) =     -669.79735381
 


--------------------------------------------------------------------------------------------------------


    POTLOK:  cpu time    0.1524: real time    0.1529


--------------------------------------------------------------------------------------------------------


 stress matrix after NEB project (eV)
    -11.13760      0.16774      0.30379
      0.16774     -0.96252     -0.15959
      0.30379     -0.15959     -3.22545
  FORCES: max atom, RMS     0.111644    0.057349
  FORCE total and by dimension    0.489989    0.109261
  Stress total and by dimension   11.647654   11.137598
     LOOP+:  cpu time  254.7390: real time  258.4092
    4ORBIT:  cpu time    0.0000: real time    0.0000
 


 total charge     
 
# of ion       s       p       d       tot
------------------------------------------
    1        0.862   1.779   0.000   2.641
    2        0.865   1.783   0.000   2.648
    3        0.864   1.781   0.000   2.645
    4        0.864   1.780   0.000   2.645
    5        0.864   1.782   0.000   2.645
    6        0.865   1.783   0.000   2.648
    7        0.862   1.780   0.000   2.642
    8        0.864   1.782   0.000   2.646
    9        0.851   1.748   0.000   2.599
   10        0.862   1.787   0.000   2.649
   11        0.852   1.750   0.000   2.602
   12        0.862   1.787   0.000   2.649
   13        0.863   1.786   0.000   2.648
   14        0.865   1.784   0.000   2.649
   15        0.864   1.783   0.000   2.647
   16        0.865   1.776   0.000   2.641
   17        0.863   1.778   0.000   2.641
   18        0.866   1.769   0.000   2.636
   19        0.862   1.775   0.000   2.638
   20        0.862   1.764   0.000   2.626
   21        0.863   1.784   0.000   2.647
   22        0.865   1.784   0.000   2.648
   23        0.866   1.793   0.000   2.659
   24        0.865   1.792   0.000   2.657
   25        0.865   1.789   0.000   2.655
   26        0.867   1.793   0.000   2.660
   27        0.865   1.786   0.000   2.651
   28        0.868   1.790   0.000   2.658
   29        0.866   1.780   0.000   2.645
   30        0.883   1.693   0.000   2.575
   31        0.858   1.749   0.000   2.607
   32        0.870   1.628   0.000   2.498
   33        0.865   1.790   0.000   2.655
   34        0.869   1.794   0.000   2.664
   35        0.865   1.791   0.000   2.656
   36        0.867   1.793   0.000   2.660
   37        0.867   1.790   0.000   2.657
   38        0.866   1.793   0.000   2.659
   39        0.866   1.793   0.000   2.659
   40        0.866   1.792   0.000   2.658
   41        0.867   1.774   0.000   2.640
   42        0.868   1.766   0.000   2.634
   43        0.874   1.789   0.000   2.663
   44        0.876   1.781   0.000   2.656
   45        0.867   1.794   0.000   2.661
   46        0.867   1.793   0.000   2.660
   47        0.867   1.789   0.000   2.656
   48        0.865   1.787   0.000   2.652
   49        0.867   1.788   0.000   2.655
   50        0.865   1.787   0.000   2.651
   51        0.869   1.794   0.000   2.663
   52        0.866   1.792   0.000   2.658
   53        0.876   1.702   0.000   2.578
   54        0.863   1.780   0.000   2.643
   55        0.868   1.642   0.000   2.510
   56        0.856   1.752   0.000   2.609
   57        0.870   1.797   0.000   2.668
   58        0.866   1.795   0.000   2.661
   59        0.866   1.787   0.000   2.653
   60        0.864   1.785   0.000   2.649
   61        0.865   1.786   0.000   2.651
   62        0.864   1.785   0.000   2.649
   63        0.866   1.788   0.000   2.654
   64        0.864   1.786   0.000   2.650
   65        0.867   1.780   0.000   2.647
   66        0.861   1.788   0.000   2.649
   67        0.853   1.735   0.000   2.588
   68        1.211   2.686   0.000   3.896
   69        0.864   1.771   0.000   2.635
   70        0.861   1.782   0.000   2.643
   71        0.411   6.456   4.329  11.196
   72        0.983   1.542   0.000   2.525
   73        1.627   3.527   0.000   5.154
--------------------------------------------------
tot         63.922 136.726   4.329 204.976
 


 magnetization (x)
 
# of ion       s       p       d       tot
------------------------------------------
    1        0.000   0.003   0.000   0.003
    2       -0.000  -0.003   0.000  -0.004
    3        0.000   0.002   0.000   0.002
    4       -0.000  -0.006   0.000  -0.006
    5        0.000   0.004   0.000   0.004
    6       -0.000  -0.004   0.000  -0.005
    7        0.000   0.003   0.000   0.003
    8       -0.000  -0.003   0.000  -0.003
    9        0.000   0.004   0.000   0.004
   10       -0.000  -0.004   0.000  -0.004
   11        0.000   0.005   0.000   0.005
   12       -0.000  -0.002   0.000  -0.003
   13        0.000   0.003   0.000   0.003
   14       -0.000  -0.005   0.000  -0.005
   15        0.000   0.005   0.000   0.005
   16       -0.001  -0.004   0.000  -0.005
   17        0.001   0.006   0.000   0.006
   18       -0.001  -0.015   0.000  -0.016
   19        0.000   0.002   0.000   0.002
   20       -0.001  -0.005   0.000  -0.006
   21        0.000   0.005   0.000   0.005
   22       -0.000  -0.004   0.000  -0.004
   23        0.000   0.006   0.000   0.006
   24       -0.000  -0.003   0.000  -0.003
   25        0.000   0.005   0.000   0.005
   26       -0.000  -0.003   0.000  -0.003
   27        0.001   0.009   0.000   0.010
   28       -0.000  -0.005   0.000  -0.006
   29        0.002   0.016   0.000   0.018
   30       -0.008  -0.046   0.000  -0.054
   31        0.001   0.012   0.000   0.013
   32       -0.007  -0.036   0.000  -0.042
   33        0.000   0.006   0.000   0.006
   34       -0.000  -0.004   0.000  -0.004
   35        0.000   0.001   0.000   0.001
   36       -0.000  -0.003   0.000  -0.004
   37        0.000   0.002   0.000   0.002
   38       -0.000  -0.003   0.000  -0.003
   39        0.000   0.001   0.000   0.001
   40       -0.000  -0.006   0.000  -0.006
   41        0.002   0.014   0.000   0.015
   42        0.000  -0.006   0.000  -0.006
   43        0.002   0.006   0.000   0.008
   44        0.001  -0.005   0.000  -0.005
   45        0.000   0.001   0.000   0.001
   46       -0.000  -0.004   0.000  -0.004
   47        0.000   0.002   0.000   0.002
   48       -0.000  -0.007   0.000  -0.007
   49        0.000   0.004   0.000   0.005
   50       -0.000  -0.004   0.000  -0.005
   51        0.000   0.003   0.000   0.003
   52       -0.000  -0.001   0.000  -0.001
   53       -0.003  -0.004   0.000  -0.007
   54        0.000   0.000   0.000   0.001
   55       -0.005  -0.018   0.000  -0.024
   56        0.000   0.006   0.000   0.006
   57        0.000   0.000   0.000   0.000
   58       -0.000  -0.001   0.000  -0.001
   59        0.000   0.003   0.000   0.003
   60       -0.000  -0.000   0.000  -0.001
   61        0.000   0.003   0.000   0.003
   62       -0.000  -0.004   0.000  -0.005
   63        0.000   0.001   0.000   0.001
   64       -0.000  -0.003   0.000  -0.003
   65        0.000   0.003   0.000   0.003
   66       -0.000  -0.003   0.000  -0.003
   67        0.000  -0.002   0.000  -0.002
   68       -0.000  -0.003   0.000  -0.003
   69       -0.000   0.000   0.000   0.000
   70       -0.000  -0.004   0.000  -0.004
   71        0.010   0.015   0.939   0.965
   72       -0.003   0.016   0.000   0.013
   73        0.001   0.042   0.000   0.043
--------------------------------------------------
tot         -0.008  -0.015   0.939   0.916
 
 BZINTS: Fermi energy: -2.252062;303.000000 electrons
         Band energy:***********;  BLOECHL correction:  0.000000

 total amount of memory used by VASP MPI-rank0   116041. kBytes
=======================================================================

   base      :      30000. kBytes
   nonl-proj :      27286. kBytes
   fftplans  :       4700. kBytes
   grid      :      15193. kBytes
   one-center:        217. kBytes
   wavefun   :      38645. kBytes
 
  
  
 General timing and accounting informations for this job:
 ========================================================
  
                  Total CPU time used (sec):      271.509
                            User time (sec):      263.110
                          System time (sec):        8.398
                         Elapsed time (sec):      283.904
  
                   Maximum memory used (kb):      479480.
                   Average memory used (kb):           0.
  
                          Minor page faults:      1459757
                          Major page faults:            0
                 Voluntary context switches:        10002
