  71  71   0   0
  0.3999982E+02  0.1485850E-08  0.1474667E-08  0.1500000E-08  0.3000000E-15
  1.000000000000000E-004
  CAR 
 unknown system                          
      5.78119708    -48.61284696  301     -2.16459254      1.00000000
    -48.613  0.0000E+00  0.0000E+00  0.0000E+00  0.0000E+00
    -48.432  0.0000E+00  0.0000E+00  0.0000E+00  0.0000E+00
    -48.250  0.0000E+00  0.0000E+00  0.0000E+00  0.0000E+00
    -48.069  0.0000E+00  0.0000E+00  0.0000E+00  0.0000E+00
    -47.888  0.0000E+00  0.0000E+00  0.0000E+00  0.0000E+00
    -47.706  0.0000E+00  0.0000E+00  0.0000E+00  0.0000E+00
    -47.525  0.0000E+00  0.0000E+00  0.0000E+00  0.0000E+00
    -47.344  0.0000E+00  0.0000E+00  0.0000E+00  0.0000E+00
    -47.162  0.0000E+00  0.0000E+00  0.0000E+00  0.0000E+00
    -46.981  0.0000E+00  0.0000E+00  0.0000E+00  0.0000E+00
    -46.800  0.0000E+00  0.0000E+00  0.0000E+00  0.0000E+00
    -46.618  0.9501E-13  0.0000E+00  0.1723E-13  0.0000E+00
    -46.437  0.1873E-06  0.0000E+00  0.3396E-07  0.0000E+00
    -46.256  0.7185E-03  0.0000E+00  0.1303E-03  0.0000E+00
    -46.074  0.1621E-01  0.0000E+00  0.3070E-02  0.0000E+00
    -45.893  0.2318E-01  0.0000E+00  0.7272E-02  0.0000E+00
    -45.712  0.1255E-02  0.0000E+00  0.7500E-02  0.0000E+00
    -45.531  0.3348E-06  0.0000E+00  0.7500E-02  0.0000E+00
    -45.349  0.1909E-12  0.0000E+00  0.7500E-02  0.0000E+00
    -45.168  0.0000E+00  0.0000E+00  0.7500E-02  0.0000E+00
    -44.987  0.0000E+00  0.0000E+00  0.7500E-02  0.0000E+00
    -44.805  0.0000E+00  0.6668E-11  0.7500E-02  0.1209E-11
    -44.624  0.0000E+00  0.2650E-05  0.7500E-02  0.4805E-06
    -44.443  0.0000E+00  0.2231E-02  0.7500E-02  0.4050E-03
    -44.261  0.0000E+00  0.1154E-01  0.7500E-02  0.2498E-02
    -44.080  0.0000E+00  0.1165E-01  0.7500E-02  0.4610E-02
    -43.899  0.0000E+00  0.9753E-02  0.7500E-02  0.6378E-02
    -43.717  0.0000E+00  0.6138E-02  0.7500E-02  0.7491E-02
    -43.536  0.0000E+00  0.4874E-04  0.7500E-02  0.7500E-02
    -43.355  0.0000E+00  0.1006E-08  0.7500E-02  0.7500E-02
    -43.173  0.0000E+00  0.3674E-16  0.7500E-02  0.7500E-02
    -42.992  0.0000E+00  0.0000E+00  0.7500E-02  0.7500E-02
    -42.811  0.0000E+00  0.0000E+00  0.7500E-02  0.7500E-02
    -42.630  0.0000E+00  0.0000E+00  0.7500E-02  0.7500E-02
    -42.448  0.0000E+00  0.0000E+00  0.7500E-02  0.7500E-02
    -42.267  0.0000E+00  0.0000E+00  0.7500E-02  0.7500E-02
    -42.086  0.0000E+00  0.0000E+00  0.7500E-02  0.7500E-02
    -41.904  0.0000E+00  0.0000E+00  0.7500E-02  0.7500E-02
    -41.723  0.0000E+00  0.0000E+00  0.7500E-02  0.7500E-02
    -41.542  0.0000E+00  0.0000E+00  0.7500E-02  0.7500E-02
    -41.360  0.0000E+00  0.0000E+00  0.7500E-02  0.7500E-02
    -41.179  0.0000E+00  0.0000E+00  0.7500E-02  0.7500E-02
    -40.998  0.0000E+00  0.0000E+00  0.7500E-02  0.7500E-02
    -40.816  0.0000E+00  0.0000E+00  0.7500E-02  0.7500E-02
    -40.635  0.0000E+00  0.0000E+00  0.7500E-02  0.7500E-02
    -40.454  0.0000E+00  0.0000E+00  0.7500E-02  0.7500E-02
    -40.272  0.0000E+00  0.0000E+00  0.7500E-02  0.7500E-02
    -40.091  0.0000E+00  0.0000E+00  0.7500E-02  0.7500E-02
    -39.910  0.0000E+00  0.0000E+00  0.7500E-02  0.7500E-02
    -39.728  0.0000E+00  0.0000E+00  0.7500E-02  0.7500E-02
    -39.547  0.0000E+00  0.0000E+00  0.7500E-02  0.7500E-02
    -39.366  0.0000E+00  0.0000E+00  0.7500E-02  0.7500E-02
    -39.185  0.0000E+00  0.0000E+00  0.7500E-02  0.7500E-02
    -39.003  0.0000E+00  0.0000E+00  0.7500E-02  0.7500E-02
    -38.822  0.0000E+00  0.0000E+00  0.7500E-02  0.7500E-02
    -38.641  0.0000E+00  0.0000E+00  0.7500E-02  0.7500E-02
    -38.459  0.0000E+00  0.0000E+00  0.7500E-02  0.7500E-02
    -38.278  0.0000E+00  0.0000E+00  0.7500E-02  0.7500E-02
    -38.097  0.0000E+00  0.0000E+00  0.7500E-02  0.7500E-02
    -37.915  0.0000E+00  0.0000E+00  0.7500E-02  0.7500E-02
    -37.734  0.0000E+00  0.0000E+00  0.7500E-02  0.7500E-02
    -37.553  0.0000E+00  0.0000E+00  0.7500E-02  0.7500E-02
    -37.371  0.0000E+00  0.0000E+00  0.7500E-02  0.7500E-02
    -37.190  0.0000E+00  0.0000E+00  0.7500E-02  0.7500E-02
    -37.009  0.0000E+00  0.0000E+00  0.7500E-02  0.7500E-02
    -36.827  0.0000E+00  0.0000E+00  0.7500E-02  0.7500E-02
    -36.646  0.0000E+00  0.0000E+00  0.7500E-02  0.7500E-02
    -36.465  0.0000E+00  0.0000E+00  0.7500E-02  0.7500E-02
    -36.284  0.0000E+00  0.0000E+00  0.7500E-02  0.7500E-02
    -36.102  0.0000E+00  0.0000E+00  0.7500E-02  0.7500E-02
    -35.921  0.0000E+00  0.0000E+00  0.7500E-02  0.7500E-02
    -35.740  0.0000E+00  0.0000E+00  0.7500E-02  0.7500E-02
    -35.558  0.0000E+00  0.0000E+00  0.7500E-02  0.7500E-02
    -35.377  0.0000E+00  0.0000E+00  0.7500E-02  0.7500E-02
    -35.196  0.0000E+00  0.0000E+00  0.7500E-02  0.7500E-02
    -35.014  0.0000E+00  0.0000E+00  0.7500E-02  0.7500E-02
    -34.833  0.0000E+00  0.0000E+00  0.7500E-02  0.7500E-02
    -34.652  0.0000E+00  0.0000E+00  0.7500E-02  0.7500E-02
    -34.470  0.0000E+00  0.0000E+00  0.7500E-02  0.7500E-02
    -34.289  0.0000E+00  0.0000E+00  0.7500E-02  0.7500E-02
    -34.108  0.0000E+00  0.0000E+00  0.7500E-02  0.7500E-02
    -33.926  0.0000E+00  0.0000E+00  0.7500E-02  0.7500E-02
    -33.745  0.0000E+00  0.0000E+00  0.7500E-02  0.7500E-02
    -33.564  0.0000E+00  0.0000E+00  0.7500E-02  0.7500E-02
    -33.383  0.0000E+00  0.0000E+00  0.7500E-02  0.7500E-02
    -33.201  0.0000E+00  0.0000E+00  0.7500E-02  0.7500E-02
    -33.020  0.0000E+00  0.0000E+00  0.7500E-02  0.7500E-02
    -32.839  0.0000E+00  0.0000E+00  0.7500E-02  0.7500E-02
    -32.657  0.0000E+00  0.0000E+00  0.7500E-02  0.7500E-02
    -32.476  0.0000E+00  0.0000E+00  0.7500E-02  0.7500E-02
    -32.295  0.0000E+00  0.0000E+00  0.7500E-02  0.7500E-02
    -32.113  0.0000E+00  0.0000E+00  0.7500E-02  0.7500E-02
    -31.932  0.0000E+00  0.0000E+00  0.7500E-02  0.7500E-02
    -31.751  0.0000E+00  0.0000E+00  0.7500E-02  0.7500E-02
    -31.569  0.0000E+00  0.0000E+00  0.7500E-02  0.7500E-02
    -31.388  0.0000E+00  0.0000E+00  0.7500E-02  0.7500E-02
    -31.207  0.0000E+00  0.0000E+00  0.7500E-02  0.7500E-02
    -31.025  0.0000E+00  0.0000E+00  0.7500E-02  0.7500E-02
    -30.844  0.0000E+00  0.0000E+00  0.7500E-02  0.7500E-02
    -30.663  0.0000E+00  0.0000E+00  0.7500E-02  0.7500E-02
    -30.481  0.0000E+00  0.0000E+00  0.7500E-02  0.7500E-02
    -30.300  0.0000E+00  0.0000E+00  0.7500E-02  0.7500E-02
    -30.119  0.0000E+00  0.0000E+00  0.7500E-02  0.7500E-02
    -29.938  0.0000E+00  0.0000E+00  0.7500E-02  0.7500E-02
    -29.756  0.0000E+00  0.0000E+00  0.7500E-02  0.7500E-02
    -29.575  0.0000E+00  0.0000E+00  0.7500E-02  0.7500E-02
    -29.394  0.0000E+00  0.0000E+00  0.7500E-02  0.7500E-02
    -29.212  0.0000E+00  0.0000E+00  0.7500E-02  0.7500E-02
    -29.031  0.0000E+00  0.0000E+00  0.7500E-02  0.7500E-02
    -28.850  0.0000E+00  0.0000E+00  0.7500E-02  0.7500E-02
    -28.668  0.0000E+00  0.0000E+00  0.7500E-02  0.7500E-02
    -28.487  0.0000E+00  0.0000E+00  0.7500E-02  0.7500E-02
    -28.306  0.0000E+00  0.0000E+00  0.7500E-02  0.7500E-02
    -28.124  0.0000E+00  0.0000E+00  0.7500E-02  0.7500E-02
    -27.943  0.0000E+00  0.0000E+00  0.7500E-02  0.7500E-02
    -27.762  0.0000E+00  0.0000E+00  0.7500E-02  0.7500E-02
    -27.580  0.0000E+00  0.0000E+00  0.7500E-02  0.7500E-02
    -27.399  0.0000E+00  0.0000E+00  0.7500E-02  0.7500E-02
    -27.218  0.0000E+00  0.0000E+00  0.7500E-02  0.7500E-02
    -27.037  0.0000E+00  0.0000E+00  0.7500E-02  0.7500E-02
    -26.855  0.0000E+00  0.0000E+00  0.7500E-02  0.7500E-02
    -26.674  0.0000E+00  0.0000E+00  0.7500E-02  0.7500E-02
    -26.493  0.0000E+00  0.0000E+00  0.7500E-02  0.7500E-02
    -26.311  0.0000E+00  0.0000E+00  0.7500E-02  0.7500E-02
    -26.130  0.0000E+00  0.0000E+00  0.7500E-02  0.7500E-02
    -25.949  0.0000E+00  0.0000E+00  0.7500E-02  0.7500E-02
    -25.767  0.0000E+00  0.0000E+00  0.7500E-02  0.7500E-02
    -25.586  0.0000E+00  0.0000E+00  0.7500E-02  0.7500E-02
    -25.405  0.0000E+00  0.0000E+00  0.7500E-02  0.7500E-02
    -25.223  0.0000E+00  0.0000E+00  0.7500E-02  0.7500E-02
    -25.042  0.0000E+00  0.0000E+00  0.7500E-02  0.7500E-02
    -24.861  0.0000E+00  0.0000E+00  0.7500E-02  0.7500E-02
    -24.679  0.0000E+00  0.0000E+00  0.7500E-02  0.7500E-02
    -24.498  0.0000E+00  0.0000E+00  0.7500E-02  0.7500E-02
    -24.317  0.0000E+00  0.0000E+00  0.7500E-02  0.7500E-02
    -24.136  0.5748E-13  0.1112E-11  0.7500E-02  0.7500E-02
    -23.954  0.1357E-06  0.8829E-06  0.7500E-02  0.7500E-02
    -23.773  0.6088E-03  0.1416E-02  0.7610E-02  0.7757E-02
    -23.592  0.1049E-01  0.1103E-01  0.9513E-02  0.9757E-02
    -23.410  0.2684E-02  0.1338E-02  0.9999E-02  0.1000E-01
    -23.229  0.4254E-05  0.7743E-06  0.1000E-01  0.1000E-01
    -23.048  0.1463E-10  0.9003E-12  0.1000E-01  0.1000E-01
    -22.866  0.0000E+00  0.0000E+00  0.1000E-01  0.1000E-01
    -22.685  0.0000E+00  0.0000E+00  0.1000E-01  0.1000E-01
    -22.504  0.0000E+00  0.0000E+00  0.1000E-01  0.1000E-01
    -22.322  0.0000E+00  0.0000E+00  0.1000E-01  0.1000E-01
    -22.141  0.2105E-17  0.3827E-17  0.1000E-01  0.1000E-01
    -21.960  0.9234E-10  0.1417E-09  0.1000E-01  0.1000E-01
    -21.778  0.7422E-05  0.9483E-05  0.1000E-01  0.1000E-01
    -21.597  0.2186E-02  0.2417E-02  0.1040E-01  0.1044E-01
    -21.416  0.1341E-01  0.1357E-01  0.1283E-01  0.1290E-01
    -21.235  0.9004E-02  0.8799E-02  0.1446E-01  0.1450E-01
    -21.053  0.1320E-01  0.1357E-01  0.1686E-01  0.1696E-01
    -20.872  0.1614E-01  0.1638E-01  0.1978E-01  0.1993E-01
    -20.691  0.8539E-02  0.7913E-02  0.2133E-01  0.2136E-01
    -20.509  0.1209E-01  0.1274E-01  0.2352E-01  0.2367E-01
    -20.328  0.1910E-01  0.1888E-01  0.2698E-01  0.2709E-01
    -20.147  0.1263E-01  0.1255E-01  0.2927E-01  0.2937E-01
    -19.965  0.7805E-02  0.7815E-02  0.3069E-01  0.3079E-01
    -19.784  0.1146E-01  0.1180E-01  0.3277E-01  0.3293E-01
    -19.603  0.1895E-01  0.1895E-01  0.3620E-01  0.3636E-01
    -19.421  0.1980E-01  0.1945E-01  0.3979E-01  0.3989E-01
    -19.240  0.1026E-01  0.1025E-01  0.4165E-01  0.4175E-01
    -19.059  0.1053E-01  0.1074E-01  0.4356E-01  0.4370E-01
    -18.877  0.8491E-02  0.8384E-02  0.4510E-01  0.4522E-01
    -18.696  0.1266E-01  0.1303E-01  0.4740E-01  0.4758E-01
    -18.515  0.2088E-01  0.2095E-01  0.5118E-01  0.5138E-01
    -18.333  0.2183E-01  0.2175E-01  0.5514E-01  0.5532E-01
    -18.152  0.1304E-01  0.1294E-01  0.5751E-01  0.5767E-01
    -17.971  0.1104E-01  0.1087E-01  0.5951E-01  0.5964E-01
    -17.790  0.7508E-02  0.7145E-02  0.6087E-01  0.6093E-01
    -17.608  0.1190E-01  0.1222E-01  0.6303E-01  0.6315E-01
    -17.427  0.1287E-01  0.1346E-01  0.6536E-01  0.6559E-01
    -17.246  0.2428E-01  0.2447E-01  0.6976E-01  0.7003E-01
    -17.064  0.2359E-01  0.2281E-01  0.7404E-01  0.7416E-01
    -16.883  0.1138E-01  0.1161E-01  0.7610E-01  0.7627E-01
    -16.702  0.1749E-01  0.1764E-01  0.7927E-01  0.7947E-01
    -16.520  0.1330E-01  0.1302E-01  0.8168E-01  0.8183E-01
    -16.339  0.8703E-02  0.8513E-02  0.8326E-01  0.8337E-01
    -16.158  0.8880E-02  0.9210E-02  0.8487E-01  0.8504E-01
    -15.976  0.2207E-01  0.2269E-01  0.8887E-01  0.8916E-01
    -15.795  0.1664E-01  0.1586E-01  0.9189E-01  0.9203E-01
    -15.614  0.7611E-02  0.7888E-02  0.9327E-01  0.9346E-01
    -15.432  0.7882E-02  0.7564E-02  0.9470E-01  0.9483E-01
    -15.251  0.7336E-02  0.7498E-02  0.9603E-01  0.9619E-01
    -15.070  0.1450E-01  0.1409E-01  0.9866E-01  0.9875E-01
    -14.889  0.1550E-01  0.1622E-01  0.1015E+00  0.1017E+00
    -14.707  0.2001E-01  0.1969E-01  0.1051E+00  0.1053E+00
    -14.526  0.1485E-01  0.1493E-01  0.1078E+00  0.1080E+00
    -14.345  0.1430E-01  0.1401E-01  0.1104E+00  0.1105E+00
    -14.163  0.1476E-01  0.1494E-01  0.1131E+00  0.1132E+00
    -13.982  0.1766E-01  0.1803E-01  0.1163E+00  0.1165E+00
    -13.801  0.1975E-01  0.1942E-01  0.1198E+00  0.1200E+00
    -13.619  0.9279E-02  0.9010E-02  0.1215E+00  0.1216E+00
    -13.438  0.2032E-01  0.2113E-01  0.1252E+00  0.1255E+00
    -13.257  0.1335E-01  0.1274E-01  0.1276E+00  0.1278E+00
    -13.075  0.8375E-02  0.7995E-02  0.1291E+00  0.1292E+00
    -12.894  0.1003E-01  0.1028E-01  0.1310E+00  0.1311E+00
    -12.713  0.2116E-01  0.2181E-01  0.1348E+00  0.1350E+00
    -12.531  0.1653E-01  0.1590E-01  0.1378E+00  0.1379E+00
    -12.350  0.7447E-02  0.7059E-02  0.1391E+00  0.1392E+00
    -12.169  0.8858E-02  0.9206E-02  0.1408E+00  0.1409E+00
    -11.988  0.1386E-01  0.1366E-01  0.1433E+00  0.1434E+00
    -11.806  0.2268E-01  0.2351E-01  0.1474E+00  0.1476E+00
    -11.625  0.3198E-01  0.3200E-01  0.1532E+00  0.1534E+00
    -11.444  0.1878E-01  0.1781E-01  0.1566E+00  0.1566E+00
    -11.262  0.4964E-02  0.5043E-02  0.1575E+00  0.1576E+00
    -11.081  0.1223E-01  0.1237E-01  0.1597E+00  0.1598E+00
    -10.900  0.1495E-01  0.1526E-01  0.1624E+00  0.1626E+00
    -10.718  0.2104E-01  0.2109E-01  0.1662E+00  0.1664E+00
    -10.537  0.1790E-01  0.1778E-01  0.1695E+00  0.1696E+00
    -10.356  0.1913E-01  0.1879E-01  0.1729E+00  0.1730E+00
    -10.174  0.1864E-01  0.1900E-01  0.1763E+00  0.1765E+00
     -9.993  0.2691E-01  0.2945E-01  0.1812E+00  0.1818E+00
     -9.812  0.3068E-01  0.2836E-01  0.1868E+00  0.1870E+00
     -9.630  0.2675E-01  0.2700E-01  0.1916E+00  0.1918E+00
     -9.449  0.2713E-01  0.2715E-01  0.1965E+00  0.1968E+00
     -9.268  0.2547E-01  0.2527E-01  0.2011E+00  0.2014E+00
     -9.087  0.3225E-01  0.3268E-01  0.2070E+00  0.2073E+00
     -8.905  0.3701E-01  0.3676E-01  0.2137E+00  0.2139E+00
     -8.724  0.4449E-01  0.4587E-01  0.2218E+00  0.2223E+00
     -8.543  0.4191E-01  0.4065E-01  0.2294E+00  0.2296E+00
     -8.361  0.4397E-01  0.4461E-01  0.2373E+00  0.2377E+00
     -8.180  0.4334E-01  0.4286E-01  0.2452E+00  0.2455E+00
     -7.999  0.3590E-01  0.3556E-01  0.2517E+00  0.2519E+00
     -7.817  0.2421E-01  0.2425E-01  0.2561E+00  0.2563E+00
     -7.636  0.1645E-01  0.1571E-01  0.2591E+00  0.2592E+00
     -7.455  0.3157E-01  0.3342E-01  0.2648E+00  0.2652E+00
     -7.273  0.4255E-01  0.4194E-01  0.2725E+00  0.2728E+00
     -7.092  0.4221E-01  0.4100E-01  0.2802E+00  0.2803E+00
     -6.911  0.2869E-01  0.2883E-01  0.2854E+00  0.2855E+00
     -6.729  0.1384E-01  0.1391E-01  0.2879E+00  0.2880E+00
     -6.548  0.1313E-01  0.1258E-01  0.2903E+00  0.2903E+00
     -6.367  0.2425E-01  0.2326E-01  0.2947E+00  0.2945E+00
     -6.185  0.3881E-01  0.4065E-01  0.3017E+00  0.3019E+00
     -6.004  0.3444E-01  0.3500E-01  0.3079E+00  0.3082E+00
     -5.823  0.2906E-01  0.2716E-01  0.3132E+00  0.3132E+00
     -5.642  0.2141E-01  0.2111E-01  0.3171E+00  0.3170E+00
     -5.460  0.1707E-01  0.1741E-01  0.3202E+00  0.3202E+00
     -5.279  0.2121E-01  0.1750E-01  0.3240E+00  0.3233E+00
     -5.098  0.1985E-01  0.1570E-01  0.3276E+00  0.3262E+00
     -4.916  0.1958E-01  0.2702E-01  0.3312E+00  0.3311E+00
     -4.735  0.3716E-01  0.3597E-01  0.3379E+00  0.3376E+00
     -4.554  0.3139E-01  0.3281E-01  0.3436E+00  0.3435E+00
     -4.372  0.1699E-01  0.9029E-02  0.3467E+00  0.3452E+00
     -4.191  0.1148E-01  0.7439E-02  0.3488E+00  0.3465E+00
     -4.010  0.1383E-01  0.1936E-01  0.3513E+00  0.3500E+00
     -3.828  0.1432E-01  0.2043E-01  0.3539E+00  0.3537E+00
     -3.647  0.1144E-01  0.1065E-01  0.3560E+00  0.3557E+00
     -3.466  0.1551E-01  0.1427E-01  0.3588E+00  0.3583E+00
     -3.284  0.1400E-01  0.7483E-02  0.3613E+00  0.3596E+00
     -3.103  0.1649E-01  0.8376E-02  0.3643E+00  0.3611E+00
     -2.922  0.1022E-01  0.3891E-02  0.3662E+00  0.3618E+00
     -2.741  0.5649E-03  0.1850E-03  0.3663E+00  0.3619E+00
     -2.559  0.1616E-02  0.1456E-03  0.3665E+00  0.3619E+00
     -2.378  0.2651E-02  0.6606E-02  0.3670E+00  0.3631E+00
     -2.197  0.3619E-02  0.7882E-02  0.3677E+00  0.3645E+00
     -2.015  0.6793E-02  0.3101E-02  0.3689E+00  0.3651E+00
     -1.834  0.8746E-02  0.2993E-02  0.3705E+00  0.3656E+00
     -1.653  0.9565E-02  0.2917E-02  0.3722E+00  0.3662E+00
     -1.471  0.1258E-01  0.6128E-03  0.3745E+00  0.3663E+00
     -1.290  0.6969E-02  0.5277E-02  0.3758E+00  0.3672E+00
     -1.109  0.6140E-02  0.9675E-02  0.3769E+00  0.3690E+00
     -0.927  0.6189E-02  0.2586E-01  0.3780E+00  0.3737E+00
     -0.746  0.1895E-01  0.3008E-01  0.3814E+00  0.3791E+00
     -0.565  0.2010E-01  0.2458E-01  0.3851E+00  0.3836E+00
     -0.383  0.1155E-01  0.1492E-01  0.3872E+00  0.3863E+00
     -0.202  0.1952E-01  0.1980E-01  0.3907E+00  0.3899E+00
     -0.021  0.1385E-01  0.1587E-01  0.3932E+00  0.3928E+00
      0.160  0.1337E-01  0.9377E-02  0.3957E+00  0.3945E+00
      0.342  0.2192E-01  0.2901E-01  0.3996E+00  0.3997E+00
      0.523  0.1916E-01  0.2039E-01  0.4031E+00  0.4034E+00
      0.704  0.1280E-01  0.9823E-02  0.4054E+00  0.4052E+00
      0.886  0.1934E-01  0.1062E-01  0.4089E+00  0.4071E+00
      1.067  0.1129E-01  0.1939E-01  0.4110E+00  0.4106E+00
      1.248  0.1110E-01  0.9928E-02  0.4130E+00  0.4124E+00
      1.430  0.2239E-01  0.2276E-01  0.4171E+00  0.4166E+00
      1.611  0.1972E-01  0.1781E-01  0.4206E+00  0.4198E+00
      1.792  0.2168E-01  0.2310E-01  0.4246E+00  0.4240E+00
      1.974  0.3766E-01  0.3215E-01  0.4314E+00  0.4298E+00
      2.155  0.2975E-01  0.3093E-01  0.4368E+00  0.4354E+00
      2.336  0.2200E-01  0.2383E-01  0.4408E+00  0.4397E+00
      2.518  0.2159E-01  0.2190E-01  0.4447E+00  0.4437E+00
      2.699  0.4112E-01  0.4135E-01  0.4521E+00  0.4512E+00
      2.880  0.2187E-01  0.2648E-01  0.4561E+00  0.4560E+00
      3.061  0.1462E-01  0.1617E-01  0.4588E+00  0.4589E+00
      3.243  0.3885E-02  0.5672E-02  0.4595E+00  0.4600E+00
      3.424  0.2752E-02  0.1813E-03  0.4600E+00  0.4600E+00
      3.605  0.1770E-03  0.2523E-07  0.4600E+00  0.4600E+00
      3.787  0.4684E-07  0.7000E-14  0.4600E+00  0.4600E+00
      3.968  0.2377E-13  0.0000E+00  0.4600E+00  0.4600E+00
      4.149  0.0000E+00  0.0000E+00  0.4600E+00  0.4600E+00
      4.331  0.0000E+00  0.0000E+00  0.4600E+00  0.4600E+00
      4.512  0.0000E+00  0.0000E+00  0.4600E+00  0.4600E+00
      4.693  0.0000E+00  0.0000E+00  0.4600E+00  0.4600E+00
      4.875  0.0000E+00  0.0000E+00  0.4600E+00  0.4600E+00
      5.056  0.0000E+00  0.0000E+00  0.4600E+00  0.4600E+00
      5.237  0.0000E+00  0.0000E+00  0.4600E+00  0.4600E+00
      5.419  0.0000E+00  0.0000E+00  0.4600E+00  0.4600E+00
      5.600  0.0000E+00  0.0000E+00  0.4600E+00  0.4600E+00
      5.781  0.0000E+00  0.0000E+00  0.4600E+00  0.4600E+00
