 running on   48 total cores
 distrk:  each k-point on   48 cores,    1 groups
 distr:  one band on   12 cores,    4 groups
 using from now: INCAR     
 vasp.5.4.4.18Apr17-6-g9f103f2a35 (build Jan 14 2022 15:04:31) complex          
  
 POSCAR found type information on POSCAR  C  N  C  Cr
 POSCAR found :  4 types and      71 ions
 scaLAPACK will be used
 LDA part: xc-table for Pade appr. of Perdew
 POSCAR found type information on POSCAR  C  N  C  Cr
 POSCAR found :  4 types and      71 ions
 POSCAR, INCAR and KPOINTS ok, starting setup
 FFT: planning ...
 WAVECAR not read
 entering main loop
       N       E                     dE             d eps       ncg     rms          rms(c)
DAV:   1     0.247710157918E+04    0.24771E+04   -0.10781E+05  3360   0.107E+03
DAV:   2    -0.227912617074E+03   -0.27050E+04   -0.25839E+04  4216   0.279E+02
DAV:   3    -0.686851461106E+03   -0.45894E+03   -0.45614E+03  3552   0.122E+02
DAV:   4    -0.703776486112E+03   -0.16925E+02   -0.16771E+02  3576   0.287E+01
DAV:   5    -0.704319501926E+03   -0.54302E+00   -0.54119E+00  4040   0.434E+00    0.468E+01
RMM:   6    -0.730228202785E+03   -0.25909E+02   -0.51218E+02  4120   0.390E+01    0.821E+01
RMM:   7    -0.661649052286E+03    0.68579E+02   -0.51629E+01  3008   0.137E+01    0.296E+01
RMM:   8    -0.661462060522E+03    0.18699E+00   -0.20679E+01  3093   0.726E+00    0.275E+01
RMM:   9    -0.647743935235E+03    0.13718E+02   -0.21153E+01  2979   0.859E+00    0.822E+00
RMM:  10    -0.647672753513E+03    0.71182E-01   -0.14887E+00  3102   0.240E+00    0.890E+00
RMM:  11    -0.647713532544E+03   -0.40779E-01   -0.30940E-01  3017   0.983E-01    0.623E+00
RMM:  12    -0.647508904717E+03    0.20463E+00   -0.39930E-01  2978   0.828E-01    0.468E+00
RMM:  13    -0.647563644162E+03   -0.54739E-01   -0.13208E-01  2952   0.604E-01    0.320E+00
RMM:  14    -0.647565267982E+03   -0.16238E-02   -0.70940E-02  3023   0.400E-01    0.179E+00
RMM:  15    -0.647659472791E+03   -0.94205E-01   -0.10208E-01  3012   0.401E-01    0.738E-01
RMM:  16    -0.647741440456E+03   -0.81968E-01   -0.30757E-02  2983   0.208E-01    0.642E-01
RMM:  17    -0.647784516077E+03   -0.43076E-01   -0.61135E-02  2976   0.233E-01    0.290E-01
RMM:  18    -0.647781588582E+03    0.29275E-02   -0.90792E-03  3018   0.122E-01    0.196E-01
RMM:  19    -0.647788684492E+03   -0.70959E-02   -0.36361E-03  2951   0.822E-02    0.138E-01
RMM:  20    -0.647784414392E+03    0.42701E-02   -0.24023E-03  2944   0.609E-02    0.206E-01
RMM:  21    -0.647789212568E+03   -0.47982E-02   -0.44474E-04  2394   0.265E-02    0.151E-01
RMM:  22    -0.647804483165E+03   -0.15271E-01   -0.16023E-03  2550   0.421E-02    0.922E-02
RMM:  23    -0.647809143989E+03   -0.46608E-02   -0.58026E-04  2302   0.244E-02    0.566E-02
RMM:  24    -0.647810776625E+03   -0.16326E-02   -0.13269E-04  2234   0.127E-02    0.393E-02
RMM:  25    -0.647812207715E+03   -0.14311E-02   -0.12837E-04  2192   0.131E-02    0.147E-02
RMM:  26    -0.647812636802E+03   -0.42909E-03   -0.70032E-05  2148   0.935E-03    0.580E-03
RMM:  27    -0.647812992811E+03   -0.35601E-03   -0.24004E-05  1502   0.512E-03    0.464E-03
RMM:  28    -0.647813302410E+03   -0.30960E-03   -0.17392E-05  1290   0.402E-03    0.389E-03
RMM:  29    -0.647813358106E+03   -0.55696E-04   -0.67357E-06  1219   0.289E-03    0.308E-03
RMM:  30    -0.647813371117E+03   -0.13011E-04   -0.20515E-06  1081   0.214E-03    0.243E-03
RMM:  31    -0.647813382817E+03   -0.11700E-04   -0.80863E-07   914   0.171E-03    0.164E-03
RMM:  32    -0.647813389731E+03   -0.69142E-05   -0.23914E-07   621   0.145E-03
   1 F= -.65421593E+03 E0= -.65420644E+03  d E =-.654216E+03  mag=     1.2740
 curvature:   0.00 expect dE= 0.000E+00 dE for cont linesearch  0.000E+00
 trial: gam= 0.00000 g(F)=  0.143E-02 g(S)=  0.000E+00 ort = 0.000E+00 (trialstep = 0.100E+01)
 search vector abs. value=  0.143E-02
 reached required accuracy - stopping structural energy minimisation
