       N       E                     dE             d eps       ncg     rms          rms(c)
DAV:   1     0.253255372086E+04    0.25326E+04   -0.11177E+05  4360   0.106E+03
DAV:   2    -0.238754967539E+03   -0.27713E+04   -0.26470E+04  5504   0.280E+02
DAV:   3    -0.702376451381E+03   -0.46362E+03   -0.45990E+03  4608   0.120E+02
DAV:   4    -0.719146732549E+03   -0.16770E+02   -0.16629E+02  4656   0.282E+01
DAV:   5    -0.719687790209E+03   -0.54106E+00   -0.53934E+00  5240   0.428E+00    0.477E+01
DAV:   6    -0.721420721915E+03   -0.17329E+01   -0.87428E+01  4920   0.278E+01    0.110E+02
DAV:   7    -0.685954396170E+03    0.35466E+02   -0.43277E+01  5192   0.351E+01    0.440E+01
DAV:   8    -0.679087830628E+03    0.68666E+01   -0.47174E+01  5448   0.397E+01    0.311E+01
DAV:   9    -0.662510184919E+03    0.16578E+02   -0.31743E+01  4584   0.157E+01    0.146E+01
DAV:  10    -0.662295945033E+03    0.21424E+00   -0.13806E+01  4872   0.111E+01    0.127E+01
DAV:  11    -0.662064045358E+03    0.23190E+00   -0.39849E+00  4944   0.467E+00    0.104E+01
DAV:  12    -0.661985154177E+03    0.78891E-01   -0.91037E-01  5000   0.187E+00    0.746E+00
DAV:  13    -0.662407259583E+03   -0.42211E+00   -0.45927E-01  4688   0.195E+00    0.725E+00
DAV:  14    -0.662202244197E+03    0.20502E+00   -0.82040E-01  4856   0.159E+00    0.417E+00
DAV:  15    -0.662212651803E+03   -0.10408E-01   -0.85481E-02  4544   0.817E-01    0.350E+00
DAV:  16    -0.662232283319E+03   -0.19632E-01   -0.51406E-02  4512   0.528E-01    0.341E+00
DAV:  17    -0.662225334773E+03    0.69485E-02   -0.19110E-02  4848   0.359E-01    0.278E+00
DAV:  18    -0.662207215794E+03    0.18119E-01   -0.10081E-02  4856   0.294E-01    0.224E+00
DAV:  19    -0.662195562943E+03    0.11653E-01   -0.91125E-03  5248   0.302E-01    0.165E+00
DAV:  20    -0.662193928415E+03    0.16345E-02   -0.50448E-03  4760   0.171E-01    0.121E+00
DAV:  21    -0.662192711349E+03    0.12171E-02   -0.10682E-03  4208   0.933E-02    0.888E-01
DAV:  22    -0.662191798644E+03    0.91271E-03   -0.58428E-04  3512   0.643E-02    0.678E-01
DAV:  23    -0.662191369546E+03    0.42910E-03   -0.32903E-04  3272   0.534E-02    0.465E-01
DAV:  24    -0.662191202797E+03    0.16675E-03   -0.90091E-05  2880   0.278E-02    0.363E-01
DAV:  25    -0.662191090386E+03    0.11241E-03   -0.42941E-05  2664   0.200E-02    0.284E-01
DAV:  26    -0.662191025907E+03    0.64479E-04   -0.34729E-05  2488   0.154E-02
   1 F= -.66861597E+03 E0= -.66861597E+03  d E =0.000000E+00  mag=    -1.0228
