 vasp.5.4.4.18Apr17-6-g9f103f2a35 (build Jan 14 2022 15:04:31) complex          
  
 executed on             LinuxIFC date 2023.01.27  22:54:35
 running on   48 total cores
 distrk:  each k-point on   48 cores,    1 groups
 distr:  one band on NCORES_PER_BAND=  12 cores,    4 groups


--------------------------------------------------------------------------------------------------------


 INCAR:
 POTCAR:    PAW_PBE C 08Apr2002                   
 POTCAR:    PAW_PBE N 08Apr2002                   
 POTCAR:    PAW_PBE C 08Apr2002                   
 POTCAR:    PAW_PBE Cr_pv 02Aug2007               
 POTCAR:    PAW_PBE C 08Apr2002                   
 POTCAR:    PAW_PBE O 08Apr2002                   
 POTCAR:    PAW_PBE C 08Apr2002                   
   SHA256 =  253f7b50bb8d59471dbedb8285d89021f4a42ed1a2c5d38a03a736e69125dd95 C/
   COPYR  = (c) Copyright 08Apr2002 Georg Kresse                                
   COPYR  = This file is part of the software VASP. Any use, copying, and all ot
   COPYR  = If you do not have a valid VASP license, you may not use, copy or di
   VRHFIN =C: s2p2                                                              
   LEXCH  = PE                                                                  
   EATOM  =   147.1560 eV,   10.8157 Ry                                         
                                                                                
   TITEL  = PAW_PBE C 08Apr2002                                                 
   LULTRA =        F    use ultrasoft PP ?                                      
   IUNSCR =        1    unscreen: 0-lin 1-nonlin 2-no                           
   RPACOR =    1.200    partial core radius                                     
   POMASS =   12.011; ZVAL   =    4.000    mass and valenz                      
   RCORE  =    1.500    outmost cutoff radius                                   
   RWIGS  =    1.630; RWIGS  =    0.863    wigner-seitz radius (au A)           
   ENMAX  =  400.000; ENMIN  =  300.000 eV                                      
   ICORE  =        2    local potential                                         
   LCOR   =        T    correct aug charges                                     
   LPAW   =        T    paw PP                                                  
   EAUG   =  644.873                                                            
   DEXC   =    0.000                                                            
   RMAX   =    1.529    core radius for proj-oper                               
   RAUG   =    1.300    factor for augmentation sphere                          
   RDEP   =    1.501    radius for radial grids                                 
   RDEPT  =    1.300    core radius for aug-charge                              
                                                                                
   Atomic configuration                                                         
    4 entries                                                                   
     n  l   j            E        occ.                                          
     1  0  0.50      -273.3789   2.0000                                         
     2  0  0.50       -13.7508   2.0000                                         
     2  1  0.50        -5.2854   2.0000                                         
     3  2  1.50        -5.4423   0.0000                                         
   Description                                                                  
     l       E           TYP  RCUT    TYP  RCUT                                 
     0    -13.7508458     23  1.200                                             
     0     -8.2022199     23  1.200                                             
     1     -5.2854383     23  1.500                                             
     1     34.0145650     23  1.500                                             
     2     -5.4423304      7  1.500                                             
  local pseudopotential read in
  partial core-charges read in
  partial kinetic energy density read in
  atomic valenz-charges read in
  non local Contribution for L=           0  read in
    real space projection operators read in
  non local Contribution for L=           0  read in
    real space projection operators read in
  non local Contribution for L=           1  read in
    real space projection operators read in
  non local Contribution for L=           1  read in
    real space projection operators read in
    PAW grid and wavefunctions read in
 
   number of l-projection  operators is LMAX  =           4
   number of lm-projection operators is LMMAX =           8
 
 POTCAR:    PAW_PBE N 08Apr2002                   
   SHA256 =  e053789ff3a61a86a1b75d8a110fcc91f86041011e7b0817c7c99e4e8a6349d7 N/
   COPYR  = (c) Copyright 08Apr2002 Georg Kresse                                
   COPYR  = This file is part of the software VASP. Any use, copying, and all ot
   COPYR  = If you do not have a valid VASP license, you may not use, copy or di
   VRHFIN =N: s2p3                                                              
   LEXCH  = PE                                                                  
   EATOM  =   264.5486 eV,   19.4438 Ry                                         
                                                                                
   TITEL  = PAW_PBE N 08Apr2002                                                 
   LULTRA =        F    use ultrasoft PP ?                                      
   IUNSCR =        1    unscreen: 0-lin 1-nonlin 2-no                           
   RPACOR =    1.200    partial core radius                                     
   POMASS =   14.001; ZVAL   =    5.000    mass and valenz                      
   RCORE  =    1.500    outmost cutoff radius                                   
   RWIGS  =    1.400; RWIGS  =    0.741    wigner-seitz radius (au A)           
   ENMAX  =  400.000; ENMIN  =  300.000 eV                                      
   ICORE  =        2    local potential                                         
   LCOR   =        T    correct aug charges                                     
   LPAW   =        T    paw PP                                                  
   EAUG   =  627.112                                                            
   DEXC   =    0.000                                                            
   RMAX   =    1.529    core radius for proj-oper                               
   RAUG   =    1.300    factor for augmentation sphere                          
   RDEP   =    1.514    radius for radial grids                                 
   RDEPT  =    1.338    core radius for aug-charge                              
                                                                                
   Atomic configuration                                                         
    4 entries                                                                   
     n  l   j            E        occ.                                          
     1  0  0.50      -384.7179   2.0000                                         
     2  0  0.50       -18.5828   2.0000                                         
     2  1  0.50        -7.0898   3.0000                                         
     3  2  1.50        -6.8029   0.0000                                         
   Description                                                                  
     l       E           TYP  RCUT    TYP  RCUT                                 
     0    -18.5828119     23  1.200                                             
     0    -13.5018863     23  1.200                                             
     1     -7.0897853     23  1.500                                             
     1      9.5240782     23  1.500                                             
     2     -6.8029130      7  1.500                                             
  local pseudopotential read in
  partial core-charges read in
  partial kinetic energy density read in
  atomic valenz-charges read in
  non local Contribution for L=           0  read in
    real space projection operators read in
  non local Contribution for L=           0  read in
    real space projection operators read in
  non local Contribution for L=           1  read in
    real space projection operators read in
  non local Contribution for L=           1  read in
    real space projection operators read in
    PAW grid and wavefunctions read in
 
   number of l-projection  operators is LMAX  =           4
   number of lm-projection operators is LMMAX =           8
 
 POTCAR:    PAW_PBE C 08Apr2002                   
   SHA256 =  253f7b50bb8d59471dbedb8285d89021f4a42ed1a2c5d38a03a736e69125dd95 C/
   COPYR  = (c) Copyright 08Apr2002 Georg Kresse                                
   COPYR  = This file is part of the software VASP. Any use, copying, and all ot
   COPYR  = If you do not have a valid VASP license, you may not use, copy or di
   VRHFIN =C: s2p2                                                              
   LEXCH  = PE                                                                  
   EATOM  =   147.1560 eV,   10.8157 Ry                                         
                                                                                
   TITEL  = PAW_PBE C 08Apr2002                                                 
   LULTRA =        F    use ultrasoft PP ?                                      
   IUNSCR =        1    unscreen: 0-lin 1-nonlin 2-no                           
   RPACOR =    1.200    partial core radius                                     
   POMASS =   12.011; ZVAL   =    4.000    mass and valenz                      
   RCORE  =    1.500    outmost cutoff radius                                   
   RWIGS  =    1.630; RWIGS  =    0.863    wigner-seitz radius (au A)           
   ENMAX  =  400.000; ENMIN  =  300.000 eV                                      
   ICORE  =        2    local potential                                         
   LCOR   =        T    correct aug charges                                     
   LPAW   =        T    paw PP                                                  
   EAUG   =  644.873                                                            
   DEXC   =    0.000                                                            
   RMAX   =    1.529    core radius for proj-oper                               
   RAUG   =    1.300    factor for augmentation sphere                          
   RDEP   =    1.501    radius for radial grids                                 
   RDEPT  =    1.300    core radius for aug-charge                              
                                                                                
   Atomic configuration                                                         
    4 entries                                                                   
     n  l   j            E        occ.                                          
     1  0  0.50      -273.3789   2.0000                                         
     2  0  0.50       -13.7508   2.0000                                         
     2  1  0.50        -5.2854   2.0000                                         
     3  2  1.50        -5.4423   0.0000                                         
   Description                                                                  
     l       E           TYP  RCUT    TYP  RCUT                                 
     0    -13.7508458     23  1.200                                             
     0     -8.2022199     23  1.200                                             
     1     -5.2854383     23  1.500                                             
     1     34.0145650     23  1.500                                             
     2     -5.4423304      7  1.500                                             
  local pseudopotential read in
  partial core-charges read in
  partial kinetic energy density read in
  atomic valenz-charges read in
  non local Contribution for L=           0  read in
    real space projection operators read in
  non local Contribution for L=           0  read in
    real space projection operators read in
  non local Contribution for L=           1  read in
    real space projection operators read in
  non local Contribution for L=           1  read in
    real space projection operators read in
    PAW grid and wavefunctions read in
 
   number of l-projection  operators is LMAX  =           4
   number of lm-projection operators is LMMAX =           8
 
 POTCAR:    PAW_PBE Cr_pv 02Aug2007               
   SHA256 =  c9a7df34d3cdbacf1090e328ef39c0b420964e11c23f63548d1ac9dd218cdba0 Cr
   COPYR  = (c) Copyright 02Aug2007 Georg Kresse                                
   COPYR  = This file is part of the software VASP. Any use, copying, and all ot
   COPYR  = If you do not have a valid VASP license, you may not use, copy or di
   VRHFIN =Cr : p6d5s1                                                          
   LEXCH  = PE                                                                  
   EATOM  =  1647.9177 eV,  121.1185 Ry                                         
                                                                                
   TITEL  = PAW_PBE Cr_pv 02Aug2007                                             
   LULTRA =        F    use ultrasoft PP ?                                      
   IUNSCR =        1    unscreen: 0-lin 1-nonlin 2-no                           
   RPACOR =    2.080    partial core radius                                     
   POMASS =   51.996; ZVAL   =   12.000    mass and valenz                      
   RCORE  =    2.300    outmost cutoff radius                                   
   RWIGS  =    2.500; RWIGS  =    1.323    wigner-seitz radius (au A)           
   ENMAX  =  265.681; ENMIN  =  199.261 eV                                      
   ICORE  =        3    local potential                                         
   LCOR   =        T    correct aug charges                                     
   LPAW   =        T    paw PP                                                  
   EAUG   =  519.424                                                            
   DEXC   =    0.000                                                            
   RMAX   =    2.356    core radius for proj-oper                               
   RAUG   =    1.300    factor for augmentation sphere                          
   RDEP   =    2.447    radius for radial grids                                 
   RDEPT  =    1.882    core radius for aug-charge                              
                                                                                
   Atomic configuration                                                         
    8 entries                                                                   
     n  l   j            E        occ.                                          
     1  0  0.50     -5880.4963   2.0000                                         
     2  0  0.50      -667.0865   2.0000                                         
     2  1  1.50      -560.6250   6.0000                                         
     3  0  0.50       -73.9860   2.0000                                         
     3  1  1.50       -45.4378   6.0000                                         
     3  2  2.50        -2.9137   5.0000                                         
     4  0  0.50        -4.0071   1.0000                                         
     4  3  2.50        -1.3606   0.0000                                         
   Description                                                                  
     l       E           TYP  RCUT    TYP  RCUT                                 
     1    -45.4377911     23  2.000                                             
     1      1.3605826     23  2.000                                             
     2     -2.9136672     23  2.300                                             
     2     -4.2742498     23  2.300                                             
     0     -4.0071320     23  2.300                                             
     0      9.4498803     23  2.300                                             
     3      2.7211652     23  2.300                                             
  local pseudopotential read in
  partial core-charges read in
  partial kinetic energy density read in
  atomic valenz-charges read in
  non local Contribution for L=           1  read in
    real space projection operators read in
  non local Contribution for L=           1  read in
    real space projection operators read in
  non local Contribution for L=           2  read in
    real space projection operators read in
  non local Contribution for L=           2  read in
    real space projection operators read in
  non local Contribution for L=           0  read in
    real space projection operators read in
  non local Contribution for L=           0  read in
    real space projection operators read in
    PAW grid and wavefunctions read in
 
   number of l-projection  operators is LMAX  =           6
   number of lm-projection operators is LMMAX =          18
 
 POTCAR:    PAW_PBE C 08Apr2002                   
   SHA256 =  253f7b50bb8d59471dbedb8285d89021f4a42ed1a2c5d38a03a736e69125dd95 C/
   COPYR  = (c) Copyright 08Apr2002 Georg Kresse                                
   COPYR  = This file is part of the software VASP. Any use, copying, and all ot
   COPYR  = If you do not have a valid VASP license, you may not use, copy or di
   VRHFIN =C: s2p2                                                              
   LEXCH  = PE                                                                  
   EATOM  =   147.1560 eV,   10.8157 Ry                                         
                                                                                
   TITEL  = PAW_PBE C 08Apr2002                                                 
   LULTRA =        F    use ultrasoft PP ?                                      
   IUNSCR =        1    unscreen: 0-lin 1-nonlin 2-no                           
   RPACOR =    1.200    partial core radius                                     
   POMASS =   12.011; ZVAL   =    4.000    mass and valenz                      
   RCORE  =    1.500    outmost cutoff radius                                   
   RWIGS  =    1.630; RWIGS  =    0.863    wigner-seitz radius (au A)           
   ENMAX  =  400.000; ENMIN  =  300.000 eV                                      
   ICORE  =        2    local potential                                         
   LCOR   =        T    correct aug charges                                     
   LPAW   =        T    paw PP                                                  
   EAUG   =  644.873                                                            
   DEXC   =    0.000                                                            
   RMAX   =    1.529    core radius for proj-oper                               
   RAUG   =    1.300    factor for augmentation sphere                          
   RDEP   =    1.501    radius for radial grids                                 
   RDEPT  =    1.300    core radius for aug-charge                              
                                                                                
   Atomic configuration                                                         
    4 entries                                                                   
     n  l   j            E        occ.                                          
     1  0  0.50      -273.3789   2.0000                                         
     2  0  0.50       -13.7508   2.0000                                         
     2  1  0.50        -5.2854   2.0000                                         
     3  2  1.50        -5.4423   0.0000                                         
   Description                                                                  
     l       E           TYP  RCUT    TYP  RCUT                                 
     0    -13.7508458     23  1.200                                             
     0     -8.2022199     23  1.200                                             
     1     -5.2854383     23  1.500                                             
     1     34.0145650     23  1.500                                             
     2     -5.4423304      7  1.500                                             
  local pseudopotential read in
  partial core-charges read in
  partial kinetic energy density read in
  atomic valenz-charges read in
  non local Contribution for L=           0  read in
    real space projection operators read in
  non local Contribution for L=           0  read in
    real space projection operators read in
  non local Contribution for L=           1  read in
    real space projection operators read in
  non local Contribution for L=           1  read in
    real space projection operators read in
    PAW grid and wavefunctions read in
 
   number of l-projection  operators is LMAX  =           4
   number of lm-projection operators is LMMAX =           8
 
 POTCAR:    PAW_PBE O 08Apr2002                   
   SHA256 =  818f92134a0a090dccd8ba1447fa70422a3b330e708bb4f08108d8ae51209ddf O/
   COPYR  = (c) Copyright 08Apr2002 Georg Kresse                                
   COPYR  = This file is part of the software VASP. Any use, copying, and all ot
   COPYR  = If you do not have a valid VASP license, you may not use, copy or di
   VRHFIN =O: s2p4                                                              
   LEXCH  = PE                                                                  
   EATOM  =   432.3788 eV,   31.7789 Ry                                         
                                                                                
   TITEL  = PAW_PBE O 08Apr2002                                                 
   LULTRA =        F    use ultrasoft PP ?                                      
   IUNSCR =        1    unscreen: 0-lin 1-nonlin 2-no                           
   RPACOR =    1.200    partial core radius                                     
   POMASS =   16.000; ZVAL   =    6.000    mass and valenz                      
   RCORE  =    1.520    outmost cutoff radius                                   
   RWIGS  =    1.550; RWIGS  =    0.820    wigner-seitz radius (au A)           
   ENMAX  =  400.000; ENMIN  =  300.000 eV                                      
   ICORE  =        2    local potential                                         
   LCOR   =        T    correct aug charges                                     
   LPAW   =        T    paw PP                                                  
   EAUG   =  605.392                                                            
   DEXC   =    0.000                                                            
   RMAX   =    1.553    core radius for proj-oper                               
   RAUG   =    1.300    factor for augmentation sphere                          
   RDEP   =    1.550    radius for radial grids                                 
   RDEPT  =    1.329    core radius for aug-charge                              
                                                                                
   Atomic configuration                                                         
    4 entries                                                                   
     n  l   j            E        occ.                                          
     1  0  0.50      -514.6923   2.0000                                         
     2  0  0.50       -23.9615   2.0000                                         
     2  1  0.50        -9.0305   4.0000                                         
     3  2  1.50        -9.5241   0.0000                                         
   Description                                                                  
     l       E           TYP  RCUT    TYP  RCUT                                 
     0    -23.9615318     23  1.200                                             
     0     -9.5240782     23  1.200                                             
     1     -9.0304911     23  1.520                                             
     1      8.1634956     23  1.520                                             
     2     -9.5240782      7  1.500                                             
  local pseudopotential read in
  partial core-charges read in
  partial kinetic energy density read in
  kinetic energy density of atom read in
  atomic valenz-charges read in
  non local Contribution for L=           0  read in
    real space projection operators read in
  non local Contribution for L=           0  read in
    real space projection operators read in
  non local Contribution for L=           1  read in
    real space projection operators read in
  non local Contribution for L=           1  read in
    real space projection operators read in
    PAW grid and wavefunctions read in
 
   number of l-projection  operators is LMAX  =           4
   number of lm-projection operators is LMMAX =           8
 

 ----------------------------------------------------------------------------- 
|                                                                             |
|  ADVICE TO THIS USER RUNNING 'VASP/VAMP'   (HEAR YOUR MASTER'S VOICE ...):  |
|                                                                             |
|      You have a (more or less) 'large supercell' and for larger cells       |
|      it might be more efficient to use real space projection opertators     |
|      So try LREAL= Auto  in the INCAR   file.                               |
|      Mind:          For very  accurate calculation you might also keep the  |
|      reciprocal projection scheme          (i.e. LREAL=.FALSE.)             |
|                                                                             |
 ----------------------------------------------------------------------------- 

  PAW_PBE C 08Apr2002                   :
 energy of atom  1       EATOM= -147.1560
 kinetic energy error for atom=    0.0132 (will be added to EATOM!!)
  PAW_PBE N 08Apr2002                   :
 energy of atom  2       EATOM= -264.5486
 kinetic energy error for atom=    0.0298 (will be added to EATOM!!)
  PAW_PBE C 08Apr2002                   :
 energy of atom  3       EATOM= -147.1560
 kinetic energy error for atom=    0.0132 (will be added to EATOM!!)
  PAW_PBE Cr_pv 02Aug2007               :
 energy of atom  4       EATOM=-1647.9177
 kinetic energy error for atom=    0.0134 (will be added to EATOM!!)
  PAW_PBE C 08Apr2002                   :
 energy of atom  5       EATOM= -147.1560
 kinetic energy error for atom=    0.0132 (will be added to EATOM!!)
  PAW_PBE O 08Apr2002                   :
 energy of atom  6       EATOM= -432.3788
 kinetic energy error for atom=    0.0458 (will be added to EATOM!!)
 
 
 POSCAR: POSCAR-clean                            
  positions in cartesian coordinates
  No initial velocities read in
 exchange correlation table for  LEXCH =        8
   RHO(1)=    0.500       N(1)  =     2000
   RHO(2)=  100.500       N(2)  =     4000

 VTST: version 3.2, (02/03/18)

 CHAIN: initializing optimizer
 
 OPT: Using VASP Dynamics algorithm
 CHAIN: Read ICHAIN            0
 
 POSCAR: POSCAR-clean                            
  positions in cartesian coordinates
  No initial velocities read in
 


--------------------------------------------------------------------------------------------------------


 ion  position               nearest neighbor table
   1  1.000  0.999  0.484-  60 1.42   2 1.43  70 1.43
   2  0.056  0.111  0.484-  13 1.42   1 1.43  15 1.43
   3  0.168  0.002  0.484-   4 1.42  62 1.42  60 1.43
   4  0.223  0.113  0.484-   3 1.42  15 1.42  17 1.44
   5  0.334  0.002  0.484-   6 1.42  62 1.43  64 1.43
   6  0.390  0.113  0.484-   5 1.42  19 1.43  17 1.43
   7  0.500  1.000  0.484-  64 1.42   8 1.42  66 1.43
   8  0.556  0.112  0.484-  21 1.42   7 1.42  19 1.43
   9  0.666  0.998  0.484-  10 1.42  66 1.43  68 1.43
  10  0.722  0.109  0.483-   9 1.42  23 1.42  21 1.43
  11  0.832  0.997  0.484-  12 1.42  70 1.43  68 1.43
  12  0.888  0.109  0.484-  11 1.42  23 1.43  13 1.43
  13  0.999  0.165  0.484-  14 1.42   2 1.42  12 1.43
  14  0.054  0.277  0.484-  13 1.42  27 1.42  25 1.43
  15  0.167  0.168  0.484-  16 1.42   4 1.42   2 1.43
  16  0.223  0.279  0.486-  15 1.42  27 1.43  29 1.44
  17  0.335  0.170  0.485-  18 1.42   6 1.43   4 1.44
  18  0.391  0.282  0.488-  17 1.42  29 1.43  31 1.44
  19  0.501  0.169  0.484-   6 1.43  20 1.43   8 1.43
  20  0.557  0.280  0.486-  33 1.42  19 1.43  31 1.45
  21  0.667  0.166  0.483-  22 1.42   8 1.42  10 1.43
  22  0.723  0.277  0.484-  21 1.42  35 1.42  33 1.43
  23  0.833  0.165  0.484-  24 1.42  10 1.42  12 1.43
  24  0.888  0.277  0.484-  25 1.42  23 1.42  35 1.42
  25  0.999  0.332  0.484-  26 1.42  24 1.42  14 1.43
  26  0.054  0.444  0.485-  39 1.42  37 1.42  25 1.42
  27  0.165  0.333  0.486-  28 1.42  14 1.42  16 1.43
  28  0.219  0.444  0.488-  41 1.41  27 1.42  39 1.42
  29  0.335  0.337  0.489-  30 1.41  18 1.43  16 1.44
  30  0.388  0.448  0.495-  41 1.41  29 1.41  71 1.98
  31  0.503  0.339  0.490-  32 1.42  18 1.44  20 1.45
  32  0.562  0.451  0.496-  43 1.41  31 1.42  71 2.00
  33  0.668  0.333  0.486-  34 1.42  20 1.42  22 1.43
  34  0.725  0.444  0.487-  43 1.40  33 1.42  45 1.42
  35  0.834  0.333  0.484-  22 1.42  24 1.42  36 1.43
  36  0.890  0.445  0.484-  37 1.41  45 1.42  35 1.43
  37  1.000  0.500  0.484-  36 1.41  38 1.42  26 1.42
  38  0.055  0.611  0.484-  37 1.42  49 1.42  47 1.42
  39  0.165  0.500  0.486-  26 1.42  40 1.42  28 1.42
  40  0.220  0.611  0.486-  49 1.42  39 1.42  51 1.42
  41  0.329  0.499  0.491-  30 1.41  28 1.41  42 1.43
  42  0.385  0.612  0.491-  53 1.41  51 1.41  41 1.43
  43  0.672  0.500  0.491-  34 1.40  32 1.41  44 1.43
  44  0.728  0.613  0.492-  57 1.39  55 1.40  43 1.43
  45  0.835  0.501  0.485-  46 1.42  34 1.42  36 1.42
  46  0.891  0.612  0.485-  57 1.40  47 1.41  45 1.42
  47  0.001  0.668  0.484-  46 1.41  48 1.42  38 1.42
  48  0.057  0.779  0.484-  47 1.42  61 1.42  59 1.42
  49  0.166  0.667  0.485-  40 1.42  50 1.42  38 1.42
  50  0.222  0.779  0.484-  49 1.42  61 1.42  63 1.42
  51  0.331  0.667  0.488-  42 1.41  52 1.42  40 1.42
  52  0.388  0.778  0.486-  51 1.42  63 1.43  65 1.43
  53  0.495  0.663  0.495-  42 1.41  54 1.41  71 1.98
  54  0.553  0.773  0.489-  53 1.41  67 1.44  65 1.45
  55  0.669  0.662  0.497-  44 1.40  56 1.42  71 2.02
  56  0.720  0.773  0.490-  55 1.42  67 1.43  69 1.44
  57  0.837  0.667  0.487-  44 1.39  46 1.40  58 1.40
  58  0.890  0.777  0.485-  57 1.40  69 1.42  59 1.42
  59  0.001  0.833  0.484-  48 1.42  58 1.42  60 1.42
  60  0.056  0.945  0.484-   1 1.42  59 1.42   3 1.43
  61  0.167  0.835  0.484-  48 1.42  62 1.42  50 1.42
  62  0.223  0.946  0.484-  61 1.42   3 1.42   5 1.43
  63  0.333  0.834  0.484-  64 1.42  50 1.42  52 1.43
  64  0.389  0.946  0.484-  63 1.42   7 1.42   5 1.43
  65  0.499  0.832  0.486-  66 1.42  52 1.43  54 1.45
  66  0.555  0.943  0.484-  65 1.42   9 1.43   7 1.43
  67  0.665  0.829  0.488-  68 1.42  56 1.43  54 1.44
  68  0.721  0.941  0.485-  67 1.42  11 1.43   9 1.43
  69  0.832  0.830  0.486-  58 1.42  70 1.43  56 1.44
  70  0.888  0.942  0.484-  11 1.43   1 1.43  69 1.43
  71  0.525  0.555  0.541-  30 1.98  53 1.98  32 2.00  55 2.02
  72  0.525  0.555  0.939-  73 1.16
  73  0.475  0.499  0.996-  72 1.16
 

IMPORTANT INFORMATION: All symmetrisations will be switched off!
NOSYMM: (Re-)initialisation of all symmetry stuff for point group C_1.

 
 
 KPOINTS: K-Points                                

Automatic generation of k-mesh.
Space group operators:
 irot       det(A)        alpha          n_x          n_y          n_z        tau_x        tau_y        tau_z
    1     1.000000     0.000001     1.000000     0.000000     0.000000     0.000000     0.000000     0.000000
 
 Subroutine IBZKPT returns following result:
 ===========================================
 
 Found      5 irreducible k-points:
 
 Following reciprocal coordinates:
            Coordinates               Weight
  0.000000  0.000000  0.000000      1.000000
  0.333333  0.000000  0.000000      2.000000
  0.000000  0.333333  0.000000      2.000000
  0.333333  0.333333  0.000000      2.000000
 -0.333333  0.333333  0.000000      2.000000
 
 Following cartesian coordinates:
            Coordinates               Weight
  0.000000  0.000000  0.000000      1.000000
  0.022421  0.013071  0.000000      2.000000
 -0.000006  0.026142  0.000000      2.000000
  0.022415  0.039213  0.000000      2.000000
 -0.022427  0.013071  0.000000      2.000000
 
 TETIRR: Found     24 inequivalent tetrahedra from       54


--------------------------------------------------------------------------------------------------------




 Dimension of arrays:
   k-points           NKPTS =      5   k-points in BZ     NKDIM =      5   number of bands    NBANDS=    192
   number of dos      NEDOS =   4000   number of ions     NIONS =     73
   non local maximal  LDIM  =      6   non local SUM 2l+1 LMDIM =     18
   total plane-waves  NPLWV = 512000
   max r-space proj   IRMAX =      1   max aug-charges    IRDMAX=   6465
   dimension x,y,z NGX =    80 NGY =   80 NGZ =   80
   dimension x,y,z NGXF=   160 NGYF=  160 NGZF=  160
   support grid    NGXF=   160 NGYF=  160 NGZF=  160
   ions per type =              56   1  13   1   1   1
   NGX,Y,Z   is equivalent  to a cutoff of   8.95,  9.01,  8.87 a.u.
   NGXF,Y,Z  is equivalent  to a cutoff of  17.89, 18.02, 17.73 a.u.

 SYSTEM =  unknown system                          
 POSCAR =  POSCAR-clean                            

 Startparameter for this run:
   NWRITE =      2    write-flag & timer
   PREC   = normal    normal or accurate (medium, high low for compatibility)
   ISTART =      0    job   : 0-new  1-cont  2-samecut
   ICHARG =      2    charge: 1-file 2-atom 10-const
   ISPIN  =      2    spin polarized calculation?
   LNONCOLLINEAR =      F non collinear calculations
   LSORBIT =      F    spin-orbit coupling
   INIWAV =      1    electr: 0-lowe 1-rand  2-diag
   LASPH  =      F    aspherical Exc in radial PAW
   METAGGA=      F    non-selfconsistent MetaGGA calc.

 Electronic Relaxation 1
   ENCUT  =  440.0 eV  32.34 Ry    5.69 a.u.  25.42 25.24 25.66*2*pi/ulx,y,z
   ENINI  =  440.0     initial cutoff
   ENAUG  =  644.9 eV  augmentation charge cutoff
   NELM   =    100;   NELMIN=  2; NELMDL= -5     # of ELM steps 
   EDIFF  = 0.1E-03   stopping-criterion for ELM
   LREAL  =      F    real-space projection
   NLSPLINE    = F    spline interpolate recip. space projectors
   LCOMPAT=      F    compatible to vasp.4.4
   GGA_COMPAT  = T    GGA compatible to vasp.4.4-vasp.4.6
   LMAXPAW     = -100 max onsite density
   LMAXMIX     =    2 max onsite mixed and CHGCAR
   VOSKOWN=      0    Vosko Wilk Nusair interpolation
   ROPT   =    0.00000   0.00000   0.00000   0.00000
   ROPT   =    0.00000   0.00000
 Ionic relaxation
   EDIFFG = -.1E-01   stopping-criterion for IOM
   NSW    =      0    number of steps for IOM
   NBLOCK =      1;   KBLOCK =      1    inner block; outer block 
   IBRION =     -1    ionic relax: 0-MD 1-quasi-New 2-CG
   NFREE  =      0    steps in history (QN), initial steepest desc. (CG)
   ISIF   =      2    stress and relaxation
   IWAVPR =     10    prediction:  0-non 1-charg 2-wave 3-comb
   ISYM   =      0    0-nonsym 1-usesym 2-fastsym
   LCORR  =      T    Harris-Foulkes like correction to forces

   POTIM  = 0.5000    time-step for ionic-motion
   TEIN   =    0.0    initial temperature
   TEBEG  =    0.0;   TEEND  =   0.0 temperature during run
   SMASS  =  -3.00    Nose mass-parameter (am)
   estimated Nose-frequenzy (Omega)   =  0.10E-29 period in steps =****** mass=  -0.505E-26a.u.
   SCALEE = 1.0000    scale energy and forces
   NPACO  =    256;   APACO  = 16.0  distance and # of slots for P.C.
   PSTRESS=    0.0 pullay stress

  Mass of Ions in am
   POMASS =  12.01 14.00 12.01 52.00 12.01 16.00
  Ionic Valenz
   ZVAL   =   4.00  5.00  4.00 12.00  4.00  6.00
  Atomic Wigner-Seitz radii
   RWIGS  =  -1.00 -1.00 -1.00 -1.00 -1.00 -1.00
  virtual crystal weights 
   VCA    =   1.00  1.00  1.00  1.00  1.00  1.00
   NELECT =     303.0000    total number of electrons
   NUPDOWN=      -1.0000    fix difference up-down

 DOS related values:
   EMIN   = -14.00;   EMAX   =  6.00  energy-range for DOS
   EFERMI =   0.00
   ISMEAR =    -5;   SIGMA  =   0.20  broadening in eV -4-tet -1-fermi 0-gaus

 Electronic relaxation 2 (details)
   IALGO  =     38    algorithm
   LDIAG  =      T    sub-space diagonalisation (order eigenvalues)
   LSUBROT=      F    optimize rotation matrix (better conditioning)
   TURBO    =      0    0=normal 1=particle mesh
   IRESTART =      0    0=no restart 2=restart with 2 vectors
   NREBOOT  =      0    no. of reboots
   NMIN     =      0    reboot dimension
   EREF     =   0.00    reference energy to select bands
   IMIX   =      4    mixing-type and parameters
     AMIX     =   0.25;   BMIX     =  0.00
     AMIX_MAG =   1.00;   BMIX_MAG =  0.00
     AMIN     =   0.10
     WC   =   100.;   INIMIX=   1;  MIXPRE=   1;  MAXMIX= -45

 Intra band minimization:
   WEIMIN = 0.0000     energy-eigenvalue tresh-hold
   EBREAK =  0.13E-06  absolut break condition
   DEPER  =   0.30     relativ break condition  

   TIME   =   0.40     timestep for ELM

  volume/ion in A,a.u.               =      38.95       262.82
  Fermi-wavevector in a.u.,A,eV,Ry     =   0.776175  1.466758  8.196799  0.602448
  Thomas-Fermi vector in A             =   1.878597
 
 Write flags
   LWAVE        =      F    write WAVECAR
   LDOWNSAMPLE  =      F    k-point downsampling of WAVECAR
   LCHARG       =      F    write CHGCAR
   LVTOT        =      F    write LOCPOT, total local potential
   LVHAR        =      F    write LOCPOT, Hartree potential only
   LELF         =      F    write electronic localiz. function (ELF)
   LORBIT       =     11    0 simple, 1 ext, 2 COOP (PROOUT), +10 PAW based schemes


 Dipole corrections
   LMONO  =      F    monopole corrections only (constant potential shift)
   LDIPOL =      F    correct potential (dipole corrections)
   IDIPOL =      0    1-x, 2-y, 3-z, 4-all directions 
   EPSILON=  1.0000000 bulk dielectric constant

 Exchange correlation treatment:
   GGA     =    --    GGA type
   LEXCH   =     8    internal setting for exchange type
   VOSKOWN=      0    Vosko Wilk Nusair interpolation
   LHFCALC =     F    Hartree Fock is set to
   LHFONE  =     F    Hartree Fock one center treatment
   AEXX    =    0.0000 exact exchange contribution

 Linear response parameters
   LEPSILON=     F    determine dielectric tensor
   LRPA    =     F    only Hartree local field effects (RPA)
   LNABLA  =     F    use nabla operator in PAW spheres
   LVEL    =     F    velocity operator in full k-point grid
   LINTERFAST=   F  fast interpolation
   KINTER  =     0    interpolate to denser k-point grid
   CSHIFT  =0.1000    complex shift for real part using Kramers Kronig
   OMEGAMAX=  -1.0    maximum frequency
   DEG_THRESHOLD= 0.2000000E-02 threshold for treating states as degnerate
   RTIME   =   -0.100 relaxation time in fs
  (WPLASMAI=    0.000 imaginary part of plasma frequency in eV, 0.658/RTIME)
   DFIELD  = 0.0000000 0.0000000 0.0000000 field for delta impulse in time
 
 Orbital magnetization related:
   ORBITALMAG=     F  switch on orbital magnetization
   LCHIMAG   =     F  perturbation theory with respect to B field
   DQ        =  0.001000  dq finite difference perturbation B field
   LLRAUG    =     F  two centre corrections for induced B field



--------------------------------------------------------------------------------------------------------


 Static calculation
 charge density and potential will be updated during run
 spin polarized calculation
 Variant of blocked Davidson
 Davidson routine will perform the subspace rotation
 perform sub-space diagonalisation
    after iterative eigenvector-optimisation
 modified Broyden-mixing scheme, WC =      100.0
 initial mixing is a Kerker type mixing with AMIX =  0.2500 and BMIX =      0.0001
 Hartree-type preconditioning will be used
 using additional bands           40
 reciprocal scheme for non local part
 use partial core corrections
 calculate Harris-corrections to forces 
   (improved forces if not selfconsistent)
 use gradient corrections 
 use of overlap-Matrix (Vanderbilt PP)
 Fermi weights with tetrahedron method with Bloechl corrections


--------------------------------------------------------------------------------------------------------


  energy-cutoff  :      440.00
  volume of cell :     2843.07
      direct lattice vectors                 reciprocal lattice vectors
    14.864909407  0.003627638  0.000000000     0.067262956  0.039213486  0.000000000
    -7.432454703 12.748901734  0.000000000    -0.000019139  0.078426971  0.000000000
     0.000000000  0.000000000 15.000000000     0.000000000  0.000000000  0.066666667

  length of vectors
    14.864909849 14.757231392 15.000000000     0.077858864  0.078426973  0.066666667


 
 k-points in units of 2pi/SCALE and weight: K-Points                                
   0.00000000  0.00000000  0.00000000       0.111
   0.02242099  0.01307116  0.00000000       0.222
  -0.00000638  0.02614232  0.00000000       0.222
   0.02241461  0.03921349  0.00000000       0.222
  -0.02242737  0.01307116  0.00000000       0.222
 
 k-points in reciprocal lattice and weights: K-Points                                
   0.00000000  0.00000000  0.00000000       0.111
   0.33333333  0.00000000  0.00000000       0.222
   0.00000000  0.33333333  0.00000000       0.222
   0.33333333  0.33333333  0.00000000       0.222
  -0.33333333  0.33333333  0.00000000       0.222
 
 position of ions in fractional coordinates (direct lattice) 
   0.99974027  0.99931466  0.48355386
   0.05562284  0.11109751  0.48369032
   0.16762948  0.00158517  0.48351509
   0.22348214  0.11313342  0.48422832
   0.33415972  0.00196334  0.48362442
   0.39002076  0.11343213  0.48433322
   0.50004718  0.99993596  0.48369653
   0.55587782  0.11166888  0.48361535
   0.66606080  0.99776562  0.48423895
   0.72176614  0.10927515  0.48349216
   0.83233339  0.99743568  0.48431287
   0.88792046  0.10904270  0.48365111
   0.99917733  0.16544493  0.48370022
   0.05449691  0.27675230  0.48440567
   0.16718414  0.16777016  0.48437838
   0.22287196  0.27936745  0.48599408
   0.33530991  0.17021211  0.48528823
   0.39124342  0.28181615  0.48826204
   0.50104244  0.16850392  0.48436932
   0.55705079  0.28033901  0.48595265
   0.66676118  0.16568822  0.48349239
   0.72264006  0.27693662  0.48400005
   0.83265789  0.16496115  0.48352001
   0.88838414  0.27664903  0.48363247
   0.99914446  0.33241022  0.48415550
   0.05446289  0.44392154  0.48460705
   0.16539661  0.33282057  0.48608658
   0.21926655  0.44398698  0.48796515
   0.33526438  0.33749465  0.48910438
   0.38753675  0.44807271  0.49524147
   0.50347439  0.33927083  0.48954039
   0.56247003  0.45068044  0.49620351
   0.66787648  0.33313883  0.48550376
   0.72511395  0.44416438  0.48680867
   0.83351262  0.33274373  0.48386602
   0.88979994  0.44451037  0.48423064
   0.99995576  0.50000798  0.48420243
   0.05521258  0.61133135  0.48426430
   0.16462442  0.49993054  0.48630908
   0.22017172  0.61130608  0.48626490
   0.32912512  0.49936872  0.49129354
   0.38521222  0.61175714  0.49116509
   0.67201503  0.50016463  0.49105361
   0.72844201  0.61262978  0.49162155
   0.83544133  0.50079350  0.48536637
   0.89084822  0.61184282  0.48538267
   0.00080796  0.66767867  0.48435451
   0.05685702  0.77887308  0.48401029
   0.16588074  0.66734453  0.48465035
   0.22230457  0.77875047  0.48416037
   0.33074038  0.66714293  0.48779127
   0.38808522  0.77819067  0.48601191
   0.49486250  0.66293054  0.49499774
   0.55328187  0.77333740  0.48921541
   0.66915285  0.66193532  0.49719323
   0.72018522  0.77268197  0.48966254
   0.83661220  0.66694592  0.48670831
   0.88994006  0.77706691  0.48535086
   0.00062557  0.83333284  0.48411765
   0.05599330  0.94495654  0.48355013
   0.16734938  0.83465878  0.48366686
   0.22314081  0.94622858  0.48350871
   0.33322356  0.83432640  0.48437825
   0.38916695  0.94560262  0.48370669
   0.49904438  0.83156918  0.48604403
   0.55498198  0.94312868  0.48440807
   0.66517933  0.82929882  0.48837173
   0.72086592  0.94091775  0.48528812
   0.83234792  0.83010834  0.48556308
   0.88843666  0.94227933  0.48416004
   0.52530521  0.55549461  0.54075211
   0.52530521  0.55549461  0.93941877
   0.47525000  0.49857504  0.99577458
 
 position of ions in cartesian coordinates  (Angst):
   7.43368758 12.74379115  7.25330791
   0.00110124  1.41657297  7.25535482
   2.48001528  0.02081730  7.25272628
   2.48118280  1.44313759  7.26342475
   4.95266160  0.02624260  7.25436629
   4.95454404  1.44754994  7.26499827
   0.00117738 12.74989925  7.25544795
   7.43309951  1.42567208  7.25423029
   2.48508576 12.72283205  7.26358425
   9.91680565  1.39575649  7.25238234
   4.95916486 12.71922888  7.26469312
  12.38840221  1.39339574  7.25476667
  13.62301850  2.11286579  7.25550329
  -1.24685729  3.52848563  7.26608505
   1.23823298  2.13949174  7.26567571
   1.23658553  3.56243665  7.28991119
   3.71925768  2.17123379  7.27932343
   3.72121217  3.59426572  7.32393061
   6.19555271  2.15005746  7.26553973
   6.19690256  3.57603530  7.28928971
   8.67987431  2.11476155  7.25238589
   8.68366009  3.53325923  7.26000080
  11.15131786  2.10609405  7.25280011
  11.14956848  3.53019397  7.25448712
  12.38156804  4.24148971  7.26233246
  -2.48984077  5.65970967  7.26910574
  -0.01506824  4.24369673  7.29129871
  -0.04053576  5.66114185  7.31947731
   2.47526102  4.30390231  7.33656573
   2.43041857  5.71384075  7.42862208
   4.96248610  4.32715693  7.34310587
   5.01140400  5.74772114  7.44305262
   7.45188418  4.24957699  7.28255646
   7.47752154  5.66523842  7.30213012
   9.91698691  4.24514078  7.25799032
   9.92299227  5.67024688  7.26345964
  11.14796502  6.37818014  7.26303647
  -3.72296249  7.79400356  7.26396448
  -1.26858393  6.37416247  7.29463624
  -1.27067207  7.79427980  7.29397353
   1.18087974  6.36759665  7.36940314
   1.17928747  7.80062909  7.36747636
   6.27199151  6.37898754  7.36580419
   6.27488135  7.81299941  7.37432332
   8.69663465  6.38759784  7.28049554
   8.69488410  7.80355562  7.28074001
  -4.95048130  8.51217271  7.26531765
  -4.94376442  9.92998256  7.26015431
  -2.49420578  8.50851158  7.26975531
  -2.48349026  9.92901962  7.26240550
  -0.04208389  8.50653945  7.31686909
  -0.01501530  9.92248419  7.29017863
   2.42888505  8.45343154  7.42496616
   2.47668960  9.86120964  7.33823109
   5.02709219  8.44137577  7.45789842
   4.96256438  9.85345905  7.34493815
   7.47911924  8.50586286  7.30062459
   7.45336381  9.90997802  7.28026292
  -6.18440958 10.62408082  7.26176473
  -6.19101136 12.04736117  7.25325190
  -3.71593020 10.64158990  7.25500289
  -3.71583316 12.06418465  7.25263064
  -1.24775516 10.63795412  7.26567370
  -1.24321709 12.05680659  7.25560037
   1.23764918 10.60340415  7.29066048
   1.23999570 12.02586816  7.26612108
   3.72410451 10.57506223  7.32557598
   3.72227804 11.99828300  7.27932175
   6.20303383 10.58598907  7.28344622
   6.20308201 12.01624953  7.26240060
   3.67992578  7.08385187  8.11128158
   3.67992578  7.08385187 14.09128158
   3.35891184  6.35800817 14.93661876
 


--------------------------------------------------------------------------------------------------------


 k-point  1 :   0.0000 0.0000 0.0000  plane waves:   59569
 k-point  2 :   0.3333 0.0000 0.0000  plane waves:   59562
 k-point  3 :   0.0000 0.3333 0.0000  plane waves:   59608
 k-point  4 :   0.3333 0.3333 0.0000  plane waves:   59632
 k-point  5 :  -0.3333 0.3333 0.0000  plane waves:   59554

 maximum and minimum number of plane-waves per node :      4993     4938

 maximum number of plane-waves:     59632
 maximum index in each direction: 
   IXMAX=   25   IYMAX=   25   IZMAX=   25
   IXMIN=  -25   IYMIN=  -25   IZMIN=  -25


 parallel 3D FFT for wavefunctions:
    minimum data exchange during FFTs selected (reduces bandwidth)
 parallel 3D FFT for charge:
    minimum data exchange during FFTs selected (reduces bandwidth)


 total amount of memory used by VASP MPI-rank0   115989. kBytes
=======================================================================

   base      :      30000. kBytes
   nonl-proj :      27264. kBytes
   fftplans  :       4700. kBytes
   grid      :      15193. kBytes
   one-center:        217. kBytes
   wavefun   :      38615. kBytes
 
     INWAV:  cpu time    0.0000: real time    0.0000
 Broyden mixing: mesh for mixing (old mesh)
   NGX = 51   NGY = 51   NGZ = 51
  (NGX  =160   NGY  =160   NGZ  =160)
  gives a total of 132651 points

 initial charge density was supplied:
 charge density of overlapping atoms calculated
 number of electron     303.0000000 magnetization       2.0000000
 keeping initial charge density in first step


--------------------------------------------------------------------------------------------------------


 Maximum index for augmentation-charges          180 (set IRDMAX)


--------------------------------------------------------------------------------------------------------


 First call to EWALD:  gamma=   0.125
 Maximum number of real-space cells 3x 3x 3
 Maximum number of reciprocal cells 3x 3x 3

    FEWALD:  cpu time    0.0032: real time    0.0033


--------------------------------------- Iteration      1(   1)  ---------------------------------------


    POTLOK:  cpu time    0.2188: real time    0.2797
    SETDIJ:  cpu time    0.0090: real time    0.0092
     EDDAV:  cpu time   11.5584: real time   11.6804
 BZINTS: Fermi energy:  7.965410;303.000000 electrons
         Band energy:***********;  BLOECHL correction: -0.012168
       DOS:  cpu time    0.1089: real time    0.1091
    --------------------------------------------
      LOOP:  cpu time   11.8952: real time   12.0784

 eigenvalue-minimisations  :  4360
 total energy-change (2. order) : 0.2532554E+04  (-0.1117658E+05)
 number of electron     303.0000000 magnetization       2.0000000
 augmentation part      303.0000000 magnetization       2.0000000

 Free energy of the ion-electron system (eV)
  ---------------------------------------------------
  alpha Z        PSCENC =       167.25716631
  Ewald energy   TEWEN  =     28899.91417635
  -Hartree energ DENC   =    -38578.05332339
  -exchange      EXHF   =         0.00000000
  -V(xc)+E(xc)   XCENC  =      1022.19797560
  PAW double counting   =      9455.23336183    -9546.47664214
  entropy T*S    EENTRO =         0.00000000
  eigenvalues    EBANDS =     -1532.27214716
  atomic energy  EATOM  =     12644.75315347
  Solvation  Ediel_sol  =         0.00000000
  ---------------------------------------------------
  free energy    TOTEN  =      2532.55372086 eV

  energy without entropy =     2532.55372086  energy(sigma->0) =     2532.55372086


--------------------------------------------------------------------------------------------------------




--------------------------------------- Iteration      1(   2)  ---------------------------------------


     EDDAV:  cpu time   15.0256: real time   15.4153
 BZINTS: Fermi energy: -1.346928;303.000000 electrons
         Band energy:***********;  BLOECHL correction: -0.053309
       DOS:  cpu time    0.0112: real time    0.0112
    --------------------------------------------
      LOOP:  cpu time   15.0368: real time   15.4265

 eigenvalue-minimisations  :  5504
 total energy-change (2. order) :-0.2771309E+04  (-0.2646968E+04)
 number of electron     303.0000000 magnetization       2.0000000
 augmentation part      303.0000000 magnetization       2.0000000

 Free energy of the ion-electron system (eV)
  ---------------------------------------------------
  alpha Z        PSCENC =       167.25716631
  Ewald energy   TEWEN  =     28899.91417635
  -Hartree energ DENC   =    -38578.05332339
  -exchange      EXHF   =         0.00000000
  -V(xc)+E(xc)   XCENC  =      1022.19797560
  PAW double counting   =      9455.23336183    -9546.47664214
  entropy T*S    EENTRO =         0.00000000
  eigenvalues    EBANDS =     -4303.58083556
  atomic energy  EATOM  =     12644.75315347
  Solvation  Ediel_sol  =         0.00000000
  ---------------------------------------------------
  free energy    TOTEN  =      -238.75496754 eV

  energy without entropy =     -238.75496754  energy(sigma->0) =     -238.75496754


--------------------------------------------------------------------------------------------------------




--------------------------------------- Iteration      1(   3)  ---------------------------------------


     EDDAV:  cpu time   13.0252: real time   13.2646
 BZINTS: Fermi energy: -4.520559;303.000000 electrons
         Band energy:***********;  BLOECHL correction: -0.044737
       DOS:  cpu time    0.0107: real time    0.0108
    --------------------------------------------
      LOOP:  cpu time   13.0359: real time   13.2754

 eigenvalue-minimisations  :  4608
 total energy-change (2. order) :-0.4636215E+03  (-0.4598973E+03)
 number of electron     303.0000000 magnetization       2.0000000
 augmentation part      303.0000000 magnetization       2.0000000

 Free energy of the ion-electron system (eV)
  ---------------------------------------------------
  alpha Z        PSCENC =       167.25716631
  Ewald energy   TEWEN  =     28899.91417635
  -Hartree energ DENC   =    -38578.05332339
  -exchange      EXHF   =         0.00000000
  -V(xc)+E(xc)   XCENC  =      1022.19797560
  PAW double counting   =      9455.23336183    -9546.47664214
  entropy T*S    EENTRO =         0.00000000
  eigenvalues    EBANDS =     -4767.20231940
  atomic energy  EATOM  =     12644.75315347
  Solvation  Ediel_sol  =         0.00000000
  ---------------------------------------------------
  free energy    TOTEN  =      -702.37645138 eV

  energy without entropy =     -702.37645138  energy(sigma->0) =     -702.37645138


--------------------------------------------------------------------------------------------------------




--------------------------------------- Iteration      1(   4)  ---------------------------------------


     EDDAV:  cpu time   13.2926: real time   13.4965
 BZINTS: Fermi energy: -4.680831;303.000000 electrons
         Band energy:***********;  BLOECHL correction: -0.031512
       DOS:  cpu time    0.0114: real time    0.0115
    --------------------------------------------
      LOOP:  cpu time   13.3040: real time   13.5080

 eigenvalue-minimisations  :  4656
 total energy-change (2. order) :-0.1677028E+02  (-0.1662931E+02)
 number of electron     303.0000000 magnetization       2.0000000
 augmentation part      303.0000000 magnetization       2.0000000

 Free energy of the ion-electron system (eV)
  ---------------------------------------------------
  alpha Z        PSCENC =       167.25716631
  Ewald energy   TEWEN  =     28899.91417635
  -Hartree energ DENC   =    -38578.05332339
  -exchange      EXHF   =         0.00000000
  -V(xc)+E(xc)   XCENC  =      1022.19797560
  PAW double counting   =      9455.23336183    -9546.47664214
  entropy T*S    EENTRO =         0.00000000
  eigenvalues    EBANDS =     -4783.97260057
  atomic energy  EATOM  =     12644.75315347
  Solvation  Ediel_sol  =         0.00000000
  ---------------------------------------------------
  free energy    TOTEN  =      -719.14673255 eV

  energy without entropy =     -719.14673255  energy(sigma->0) =     -719.14673255


--------------------------------------------------------------------------------------------------------




--------------------------------------- Iteration      1(   5)  ---------------------------------------


     EDDAV:  cpu time   14.3226: real time   14.5190
 BZINTS: Fermi energy: -4.689413;303.000000 electrons
         Band energy:***********;  BLOECHL correction: -0.031182
       DOS:  cpu time    0.0104: real time    0.0105
    CHARGE:  cpu time    0.1657: real time    0.1695
    MIXING:  cpu time    0.0048: real time    0.0049
    --------------------------------------------
      LOOP:  cpu time   14.5036: real time   14.7040

 eigenvalue-minimisations  :  5240
 total energy-change (2. order) :-0.5410577E+00  (-0.5393444E+00)
 number of electron     302.9999963 magnetization       0.0251186
 augmentation part       12.3769410 magnetization       0.0681536

 Broyden mixing:
  rms(total) = 0.47668E+01    rms(broyden)= 0.47663E+01
  rms(prec ) = 0.55240E+01
  weight for this iteration     100.00

 Free energy of the ion-electron system (eV)
  ---------------------------------------------------
  alpha Z        PSCENC =       167.25716631
  Ewald energy   TEWEN  =     28899.91417635
  -Hartree energ DENC   =    -38578.05332339
  -exchange      EXHF   =         0.00000000
  -V(xc)+E(xc)   XCENC  =      1022.19797560
  PAW double counting   =      9455.23336183    -9546.47664214
  entropy T*S    EENTRO =         0.00000000
  eigenvalues    EBANDS =     -4784.51365823
  atomic energy  EATOM  =     12644.75315347
  Solvation  Ediel_sol  =         0.00000000
  ---------------------------------------------------
  free energy    TOTEN  =      -719.68779021 eV

  energy without entropy =     -719.68779021  energy(sigma->0) =     -719.68779021


--------------------------------------------------------------------------------------------------------




--------------------------------------- Iteration      1(   6)  ---------------------------------------


    POTLOK:  cpu time    0.1518: real time    0.1541
    SETDIJ:  cpu time    0.0090: real time    0.0090
     EDDAV:  cpu time   13.0484: real time   13.1664
 BZINTS: Fermi energy: -5.542172;303.000000 electrons
         Band energy:***********;  BLOECHL correction: -0.045666
       DOS:  cpu time    0.0117: real time    0.0118
    CHARGE:  cpu time    0.1659: real time    0.1727
    MIXING:  cpu time    0.0036: real time    0.0065
    --------------------------------------------
      LOOP:  cpu time   13.3904: real time   13.5205

 eigenvalue-minimisations  :  4920
 total energy-change (2. order) :-0.1732932E+01  (-0.8742777E+01)
 number of electron     303.0000000 magnetization       0.0359030
 augmentation part       17.9645051 magnetization      -0.0772417

 Broyden mixing:
  rms(total) = 0.10960E+02    rms(broyden)= 0.10960E+02
  rms(prec ) = 0.11751E+02
  weight for this iteration     100.00

 eigenvalues of (default mixing * dielectric matrix)
  average eigenvalue GAMMA=   0.0923
  0.0923

 Free energy of the ion-electron system (eV)
  ---------------------------------------------------
  alpha Z        PSCENC =       167.25716631
  Ewald energy   TEWEN  =     28899.91417635
  -Hartree energ DENC   =    -38952.11224377
  -exchange      EXHF   =         0.00000000
  -V(xc)+E(xc)   XCENC  =      1034.98673533
  PAW double counting   =     13243.49385828   -13334.71338999
  entropy T*S    EENTRO =         0.00000000
  eigenvalues    EBANDS =     -4425.00017788
  atomic energy  EATOM  =     12644.75315347
  Solvation  Ediel_sol  =         0.00000000
  ---------------------------------------------------
  free energy    TOTEN  =      -721.42072191 eV

  energy without entropy =     -721.42072191  energy(sigma->0) =     -721.42072191


--------------------------------------------------------------------------------------------------------




--------------------------------------- Iteration      1(   7)  ---------------------------------------


    POTLOK:  cpu time    0.1392: real time    0.1460
    SETDIJ:  cpu time    0.0104: real time    0.0104
     EDDAV:  cpu time   13.5810: real time   13.6806
 BZINTS: Fermi energy: -5.065997;303.000000 electrons
         Band energy:***********;  BLOECHL correction: -0.026191
       DOS:  cpu time    0.0115: real time    0.0116
    CHARGE:  cpu time    0.1640: real time    0.1673
    MIXING:  cpu time    0.0039: real time    0.0049
    --------------------------------------------
      LOOP:  cpu time   13.9100: real time   14.0209

 eigenvalue-minimisations  :  5192
 total energy-change (2. order) : 0.3546633E+02  (-0.4327725E+01)
 number of electron     302.9999998 magnetization       0.0179625
 augmentation part       16.6053352 magnetization       0.0297861

 Broyden mixing:
  rms(total) = 0.43994E+01    rms(broyden)= 0.43993E+01
  rms(prec ) = 0.52528E+01
  weight for this iteration     100.00

 eigenvalues of (default mixing * dielectric matrix)
  average eigenvalue GAMMA=   0.3184
  0.4072  0.2297

 Free energy of the ion-electron system (eV)
  ---------------------------------------------------
  alpha Z        PSCENC =       167.25716631
  Ewald energy   TEWEN  =     28899.91417635
  -Hartree energ DENC   =    -39040.88022219
  -exchange      EXHF   =         0.00000000
  -V(xc)+E(xc)   XCENC  =      1037.83107278
  PAW double counting   =     14368.83047925   -14462.85535315
  entropy T*S    EENTRO =         0.00000000
  eigenvalues    EBANDS =     -4300.80486898
  atomic energy  EATOM  =     12644.75315347
  Solvation  Ediel_sol  =         0.00000000
  ---------------------------------------------------
  free energy    TOTEN  =      -685.95439617 eV

  energy without entropy =     -685.95439617  energy(sigma->0) =     -685.95439617


--------------------------------------------------------------------------------------------------------




--------------------------------------- Iteration      1(   8)  ---------------------------------------


    POTLOK:  cpu time    0.1395: real time    0.1420
    SETDIJ:  cpu time    0.0089: real time    0.0089
     EDDAV:  cpu time   14.2318: real time   14.3203
 BZINTS: Fermi energy: -2.865151;303.000000 electrons
         Band energy:***********;  BLOECHL correction: -0.031081
       DOS:  cpu time    0.0114: real time    0.0114
    CHARGE:  cpu time    0.1624: real time    0.1646
    MIXING:  cpu time    0.0038: real time    0.0044
    --------------------------------------------
      LOOP:  cpu time   14.5578: real time   14.6516

 eigenvalue-minimisations  :  5448
 total energy-change (2. order) : 0.6866566E+01  (-0.4717359E+01)
 number of electron     302.9999965 magnetization       0.0717431
 augmentation part       12.1452685 magnetization       0.0266106

 Broyden mixing:
  rms(total) = 0.31088E+01    rms(broyden)= 0.31081E+01
  rms(prec ) = 0.37105E+01
  weight for this iteration     100.00

 eigenvalues of (default mixing * dielectric matrix)
  average eigenvalue GAMMA=   0.8723
  2.1036  0.2566  0.2566

 Free energy of the ion-electron system (eV)
  ---------------------------------------------------
  alpha Z        PSCENC =       167.25716631
  Ewald energy   TEWEN  =     28899.91417635
  -Hartree energ DENC   =    -39203.56488895
  -exchange      EXHF   =         0.00000000
  -V(xc)+E(xc)   XCENC  =      1042.96307833
  PAW double counting   =     15717.74353602   -15815.31436347
  entropy T*S    EENTRO =         0.00000000
  eigenvalues    EBANDS =     -4132.83968868
  atomic energy  EATOM  =     12644.75315347
  Solvation  Ediel_sol  =         0.00000000
  ---------------------------------------------------
  free energy    TOTEN  =      -679.08783063 eV

  energy without entropy =     -679.08783063  energy(sigma->0) =     -679.08783063


--------------------------------------------------------------------------------------------------------




--------------------------------------- Iteration      1(   9)  ---------------------------------------


    POTLOK:  cpu time    0.1405: real time    0.1428
    SETDIJ:  cpu time    0.0089: real time    0.0089
     EDDAV:  cpu time   12.3023: real time   12.3889
 BZINTS: Fermi energy: -2.889188;303.000000 electrons
         Band energy:***********;  BLOECHL correction: -0.073589
       DOS:  cpu time    0.0118: real time    0.0119
    CHARGE:  cpu time    0.1975: real time    0.1988
    MIXING:  cpu time    0.0040: real time    0.0040
    --------------------------------------------
      LOOP:  cpu time   12.6650: real time   12.7553

 eigenvalue-minimisations  :  4584
 total energy-change (2. order) : 0.1657765E+02  (-0.3174346E+01)
 number of electron     303.0000000 magnetization      -0.0354609
 augmentation part       14.2355371 magnetization      -0.0235513

 Broyden mixing:
  rms(total) = 0.14577E+01    rms(broyden)= 0.14558E+01
  rms(prec ) = 0.17221E+01
  weight for this iteration     100.00

 eigenvalues of (default mixing * dielectric matrix)
  average eigenvalue GAMMA=   0.9992
  2.5689  0.9249  0.2515  0.2515

 Free energy of the ion-electron system (eV)
  ---------------------------------------------------
  alpha Z        PSCENC =       167.25716631
  Ewald energy   TEWEN  =     28899.91417635
  -Hartree energ DENC   =    -39712.30538657
  -exchange      EXHF   =         0.00000000
  -V(xc)+E(xc)   XCENC  =      1061.17358097
  PAW double counting   =     24114.91636463   -24216.93348252
  entropy T*S    EENTRO =         0.00000000
  eigenvalues    EBANDS =     -3621.28575756
  atomic energy  EATOM  =     12644.75315347
  Solvation  Ediel_sol  =         0.00000000
  ---------------------------------------------------
  free energy    TOTEN  =      -662.51018492 eV

  energy without entropy =     -662.51018492  energy(sigma->0) =     -662.51018492


--------------------------------------------------------------------------------------------------------




--------------------------------------- Iteration      1(  10)  ---------------------------------------


    POTLOK:  cpu time    0.1400: real time    0.1419
    SETDIJ:  cpu time    0.0100: real time    0.0101
     EDDAV:  cpu time   12.7809: real time   12.8958
 BZINTS: Fermi energy: -1.361062;303.000000 electrons
         Band energy:***********;  BLOECHL correction: -0.071195
       DOS:  cpu time    0.0116: real time    0.0116
    CHARGE:  cpu time    0.1788: real time    0.1796
    MIXING:  cpu time    0.0037: real time    0.0037
    --------------------------------------------
      LOOP:  cpu time   13.1250: real time   13.2428

 eigenvalue-minimisations  :  4872
 total energy-change (2. order) : 0.2142399E+00  (-0.1380584E+01)
 number of electron     302.9999989 magnetization      -0.2017784
 augmentation part       12.6340843 magnetization      -0.1079152

 Broyden mixing:
  rms(total) = 0.12710E+01    rms(broyden)= 0.12696E+01
  rms(prec ) = 0.14739E+01
  weight for this iteration     100.00

 eigenvalues of (default mixing * dielectric matrix)
  average eigenvalue GAMMA=   1.1253
  3.2978  1.1327  0.6975  0.2493  0.2493

 Free energy of the ion-electron system (eV)
  ---------------------------------------------------
  alpha Z        PSCENC =       167.25716631
  Ewald energy   TEWEN  =     28899.91417635
  -Hartree energ DENC   =    -39798.48149273
  -exchange      EXHF   =         0.00000000
  -V(xc)+E(xc)   XCENC  =      1064.33758186
  PAW double counting   =     26777.54873581   -26880.22837582
  entropy T*S    EENTRO =         0.00000000
  eigenvalues    EBANDS =     -3537.39689028
  atomic energy  EATOM  =     12644.75315347
  Solvation  Ediel_sol  =         0.00000000
  ---------------------------------------------------
  free energy    TOTEN  =      -662.29594503 eV

  energy without entropy =     -662.29594503  energy(sigma->0) =     -662.29594503


--------------------------------------------------------------------------------------------------------




--------------------------------------- Iteration      1(  11)  ---------------------------------------


    POTLOK:  cpu time    0.1509: real time    0.1536
    SETDIJ:  cpu time    0.0103: real time    0.0104
     EDDAV:  cpu time   13.2101: real time   13.4015
 BZINTS: Fermi energy: -2.083063;303.000000 electrons
         Band energy:***********;  BLOECHL correction: -0.011209
       DOS:  cpu time    0.0119: real time    0.0119
    CHARGE:  cpu time    0.1962: real time    0.1972
    MIXING:  cpu time    0.0042: real time    0.0042
    --------------------------------------------
      LOOP:  cpu time   13.5835: real time   13.7788

 eigenvalue-minimisations  :  4944
 total energy-change (2. order) : 0.2318997E+00  (-0.3984888E+00)
 number of electron     303.0000000 magnetization      -0.5667165
 augmentation part       13.8715114 magnetization      -0.2724514

 Broyden mixing:
  rms(total) = 0.10359E+01    rms(broyden)= 0.10348E+01
  rms(prec ) = 0.11759E+01
  weight for this iteration     100.00

 eigenvalues of (default mixing * dielectric matrix)
  average eigenvalue GAMMA=   0.9990
  3.3307  0.9554  0.9554  0.2500  0.2500  0.2526

 Free energy of the ion-electron system (eV)
  ---------------------------------------------------
  alpha Z        PSCENC =       167.25716631
  Ewald energy   TEWEN  =     28899.91417635
  -Hartree energ DENC   =    -39824.66298968
  -exchange      EXHF   =         0.00000000
  -V(xc)+E(xc)   XCENC  =      1065.66291694
  PAW double counting   =     29654.14400374   -29756.41487675
  entropy T*S    EENTRO =         0.00000000
  eigenvalues    EBANDS =     -3512.71759574
  atomic energy  EATOM  =     12644.75315347
  Solvation  Ediel_sol  =         0.00000000
  ---------------------------------------------------
  free energy    TOTEN  =      -662.06404536 eV

  energy without entropy =     -662.06404536  energy(sigma->0) =     -662.06404536


--------------------------------------------------------------------------------------------------------




--------------------------------------- Iteration      1(  12)  ---------------------------------------


    POTLOK:  cpu time    0.1410: real time    0.1432
    SETDIJ:  cpu time    0.0114: real time    0.0117
     EDDAV:  cpu time   13.4564: real time   13.5573
 BZINTS: Fermi energy: -1.991996;303.000000 electrons
         Band energy:***********;  BLOECHL correction:  0.000000
       DOS:  cpu time    0.0070: real time    0.0071
    CHARGE:  cpu time    0.1656: real time    0.1671
    MIXING:  cpu time    0.0039: real time    0.0039
    --------------------------------------------
      LOOP:  cpu time   13.7853: real time   13.8903

 eigenvalue-minimisations  :  5000
 total energy-change (2. order) : 0.7889118E-01  (-0.9103662E-01)
 number of electron     302.9999996 magnetization      -1.1975341
 augmentation part       13.5620636 magnetization      -0.8497118

 Broyden mixing:
  rms(total) = 0.74633E+00    rms(broyden)= 0.74606E+00
  rms(prec ) = 0.78350E+00
  weight for this iteration     100.00

 eigenvalues of (default mixing * dielectric matrix)
  average eigenvalue GAMMA=   1.1496
  3.4488  1.3397  1.3397  0.2494  0.2494  0.7102  0.7102

 Free energy of the ion-electron system (eV)
  ---------------------------------------------------
  alpha Z        PSCENC =       167.25716631
  Ewald energy   TEWEN  =     28899.91417635
  -Hartree energ DENC   =    -39796.36078257
  -exchange      EXHF   =         0.00000000
  -V(xc)+E(xc)   XCENC  =      1064.86739100
  PAW double counting   =     30423.44467864   -30525.28031744
  entropy T*S    EENTRO =         0.00000000
  eigenvalues    EBANDS =     -3540.58061994
  atomic energy  EATOM  =     12644.75315347
  Solvation  Ediel_sol  =         0.00000000
  ---------------------------------------------------
  free energy    TOTEN  =      -661.98515418 eV

  energy without entropy =     -661.98515418  energy(sigma->0) =     -661.98515418


--------------------------------------------------------------------------------------------------------




--------------------------------------- Iteration      1(  13)  ---------------------------------------


    POTLOK:  cpu time    0.1394: real time    0.1415
    SETDIJ:  cpu time    0.0087: real time    0.0088
     EDDAV:  cpu time   12.4096: real time   12.4977
 BZINTS: Fermi energy: -2.047338;303.000000 electrons
         Band energy:***********;  BLOECHL correction: -0.001968
       DOS:  cpu time    0.0117: real time    0.0118
    CHARGE:  cpu time    0.1652: real time    0.1667
    MIXING:  cpu time    0.0037: real time    0.0037
    --------------------------------------------
      LOOP:  cpu time   12.7384: real time   12.8301

 eigenvalue-minimisations  :  4688
 total energy-change (2. order) :-0.4221054E+00  (-0.4592657E-01)
 number of electron     302.9999997 magnetization      -1.2075143
 augmentation part       13.8229646 magnetization      -1.1288247

 Broyden mixing:
  rms(total) = 0.72496E+00    rms(broyden)= 0.72492E+00
  rms(prec ) = 0.85559E+00
  weight for this iteration     100.00

 eigenvalues of (default mixing * dielectric matrix)
  average eigenvalue GAMMA=   1.1882
  3.4252  1.6616  1.6616  0.8468  0.8468  0.2494  0.2494  0.5648

 Free energy of the ion-electron system (eV)
  ---------------------------------------------------
  alpha Z        PSCENC =       167.25716631
  Ewald energy   TEWEN  =     28899.91417635
  -Hartree energ DENC   =    -39780.60766717
  -exchange      EXHF   =         0.00000000
  -V(xc)+E(xc)   XCENC  =      1064.71758636
  PAW double counting   =     31529.21016083   -31630.53740006
  entropy T*S    EENTRO =         0.00000000
  eigenvalues    EBANDS =     -3557.11443567
  atomic energy  EATOM  =     12644.75315347
  Solvation  Ediel_sol  =         0.00000000
  ---------------------------------------------------
  free energy    TOTEN  =      -662.40725958 eV

  energy without entropy =     -662.40725958  energy(sigma->0) =     -662.40725958


--------------------------------------------------------------------------------------------------------




--------------------------------------- Iteration      1(  14)  ---------------------------------------


    POTLOK:  cpu time    0.1471: real time    0.1496
    SETDIJ:  cpu time    0.0097: real time    0.0101
     EDDAV:  cpu time   12.9230: real time   13.0754
 BZINTS: Fermi energy: -2.092898;303.000000 electrons
         Band energy:***********;  BLOECHL correction: -0.006386
       DOS:  cpu time    0.0091: real time    0.0094
    CHARGE:  cpu time    0.1632: real time    0.1683
    MIXING:  cpu time    0.0042: real time    0.0042
    --------------------------------------------
      LOOP:  cpu time   13.2564: real time   13.4170

 eigenvalue-minimisations  :  4856
 total energy-change (2. order) : 0.2050154E+00  (-0.8204030E-01)
 number of electron     302.9999991 magnetization      -1.0153557
 augmentation part       13.5742170 magnetization      -1.0817292

 Broyden mixing:
  rms(total) = 0.41714E+00    rms(broyden)= 0.41700E+00
  rms(prec ) = 0.45812E+00
  weight for this iteration     100.00

 eigenvalues of (default mixing * dielectric matrix)
  average eigenvalue GAMMA=   1.2029
  3.5861  1.9958  1.3076  1.3076  1.0193  0.2494  0.2494  0.5553  0.5553

 Free energy of the ion-electron system (eV)
  ---------------------------------------------------
  alpha Z        PSCENC =       167.25716631
  Ewald energy   TEWEN  =     28899.91417635
  -Hartree energ DENC   =    -39747.09573951
  -exchange      EXHF   =         0.00000000
  -V(xc)+E(xc)   XCENC  =      1063.83434258
  PAW double counting   =     32066.73731491   -32167.65816041
  entropy T*S    EENTRO =         0.00000000
  eigenvalues    EBANDS =     -3589.94449789
  atomic energy  EATOM  =     12644.75315347
  Solvation  Ediel_sol  =         0.00000000
  ---------------------------------------------------
  free energy    TOTEN  =      -662.20224420 eV

  energy without entropy =     -662.20224420  energy(sigma->0) =     -662.20224420


--------------------------------------------------------------------------------------------------------




--------------------------------------- Iteration      1(  15)  ---------------------------------------


    POTLOK:  cpu time    0.1388: real time    0.1411
    SETDIJ:  cpu time    0.0109: real time    0.0110
     EDDAV:  cpu time   12.2398: real time   12.3475
 BZINTS: Fermi energy: -2.070290;303.000000 electrons
         Band energy:***********;  BLOECHL correction: -0.005675
       DOS:  cpu time    0.0107: real time    0.0108
    CHARGE:  cpu time    0.1648: real time    0.1653
    MIXING:  cpu time    0.0044: real time    0.0044
    --------------------------------------------
      LOOP:  cpu time   12.5695: real time   12.6801

 eigenvalue-minimisations  :  4544
 total energy-change (2. order) :-0.1040761E-01  (-0.8548080E-02)
 number of electron     302.9999990 magnetization      -0.9134649
 augmentation part       13.5174273 magnetization      -0.9930214

 Broyden mixing:
  rms(total) = 0.34983E+00    rms(broyden)= 0.34979E+00
  rms(prec ) = 0.37217E+00
  weight for this iteration     100.00

 eigenvalues of (default mixing * dielectric matrix)
  average eigenvalue GAMMA=   1.2621
  3.6255  2.1944  2.1944  0.2494  0.2494  1.0042  1.0042  0.7547  0.7547  0.5900

 Free energy of the ion-electron system (eV)
  ---------------------------------------------------
  alpha Z        PSCENC =       167.25716631
  Ewald energy   TEWEN  =     28899.91417635
  -Hartree energ DENC   =    -39750.66876700
  -exchange      EXHF   =         0.00000000
  -V(xc)+E(xc)   XCENC  =      1063.89202670
  PAW double counting   =     32123.70643518   -32224.67460768
  entropy T*S    EENTRO =         0.00000000
  eigenvalues    EBANDS =     -3586.39223513
  atomic energy  EATOM  =     12644.75315347
  Solvation  Ediel_sol  =         0.00000000
  ---------------------------------------------------
  free energy    TOTEN  =      -662.21265180 eV

  energy without entropy =     -662.21265180  energy(sigma->0) =     -662.21265180


--------------------------------------------------------------------------------------------------------




--------------------------------------- Iteration      1(  16)  ---------------------------------------


    POTLOK:  cpu time    0.1974: real time    0.2001
    SETDIJ:  cpu time    0.0100: real time    0.0101
     EDDAV:  cpu time   12.1829: real time   12.4007
 BZINTS: Fermi energy: -2.056844;303.000000 electrons
         Band energy:***********;  BLOECHL correction: -0.005425
       DOS:  cpu time    0.0107: real time    0.0107
    CHARGE:  cpu time    0.2239: real time    0.2332
    MIXING:  cpu time    0.0045: real time    0.0053
    --------------------------------------------
      LOOP:  cpu time   12.6293: real time   12.8602

 eigenvalue-minimisations  :  4512
 total energy-change (2. order) :-0.1963152E-01  (-0.5140612E-02)
 number of electron     302.9999991 magnetization      -0.9978831
 augmentation part       13.5496005 magnetization      -1.1260725

 Broyden mixing:
  rms(total) = 0.34100E+00    rms(broyden)= 0.34099E+00
  rms(prec ) = 0.37590E+00
  weight for this iteration     100.00

 eigenvalues of (default mixing * dielectric matrix)
  average eigenvalue GAMMA=   1.3034
  3.5940  2.6083  2.6083  0.2494  0.2494  1.0018  1.0018  0.8973  0.8973  0.6148
  0.6148

 Free energy of the ion-electron system (eV)
  ---------------------------------------------------
  alpha Z        PSCENC =       167.25716631
  Ewald energy   TEWEN  =     28899.91417635
  -Hartree energ DENC   =    -39755.95589389
  -exchange      EXHF   =         0.00000000
  -V(xc)+E(xc)   XCENC  =      1064.09747872
  PAW double counting   =     32084.30459085   -32185.34703997
  entropy T*S    EENTRO =         0.00000000
  eigenvalues    EBANDS =     -3581.25591517
  atomic energy  EATOM  =     12644.75315347
  Solvation  Ediel_sol  =         0.00000000
  ---------------------------------------------------
  free energy    TOTEN  =      -662.23228332 eV

  energy without entropy =     -662.23228332  energy(sigma->0) =     -662.23228332


[...]
   0.785E+01 -.195E+01 0.463E+01   -.765E+01 0.192E+01 -.457E+01   -.203E+00 0.265E-01 -.514E-01   -.141E-01 0.177E-02 -.659E-02
   0.300E+02 0.109E+02 0.151E+02   -.292E+02 -.113E+02 -.159E+02   -.736E+00 0.509E+00 0.796E+00   -.784E-01 -.283E-01 -.381E-01
   0.299E+02 -.114E+02 0.158E+02   -.292E+02 0.118E+02 -.165E+02   -.708E+00 -.503E+00 0.737E+00   -.776E-01 0.303E-01 -.380E-01
   -.190E+02 0.172E+02 0.144E+02   0.175E+02 -.190E+02 -.148E+02   0.150E+01 0.181E+01 0.441E+00   0.763E-01 -.262E-01 -.355E-01
   -.190E+01 0.494E+01 0.963E+01   -.466E+01 -.759E+01 -.945E+01   0.660E+01 0.255E+01 -.121E+00   0.775E-01 0.276E-01 -.358E-01
   -.147E+02 0.107E+02 0.760E+01   0.149E+02 -.120E+02 -.760E+01   -.175E+00 0.135E+01 -.736E-02   0.120E-01 0.311E-02 -.617E-02
   -.315E+02 0.118E+02 0.788E+01   0.368E+02 -.149E+02 -.793E+01   -.527E+01 0.311E+01 0.486E-01   0.130E-01 0.295E-02 -.589E-02
   -.151E+02 -.293E+01 0.676E+01   0.163E+02 0.338E+01 -.678E+01   -.125E+01 -.452E+00 0.200E-01   0.228E-03 0.342E-02 -.357E-02
   -.935E+01 -.888E+01 0.603E+01   0.100E+02 0.935E+01 -.603E+01   -.662E+00 -.436E+00 -.341E-02   0.157E-02 -.159E-03 -.311E-02
   0.291E+01 -.370E+01 0.627E+01   -.262E+01 0.374E+01 -.630E+01   -.279E+00 -.458E-01 0.313E-01   -.643E-02 0.260E-02 -.389E-02
   0.270E+00 -.532E+01 0.606E+01   -.398E-01 0.537E+01 -.604E+01   -.220E+00 -.360E-01 -.187E-01   -.725E-02 0.169E-02 -.326E-02
   0.151E+02 -.835E+01 0.594E+01   -.148E+02 0.823E+01 -.598E+01   -.248E+00 0.110E+00 0.791E-01   -.239E-01 0.764E-02 -.117E-01
   0.613E+01 -.128E+02 0.720E+01   -.589E+01 0.128E+02 -.718E+01   -.243E+00 0.194E-01 -.239E-01   -.140E-01 0.823E-02 -.767E-02
   -.333E+01 -.395E+02 0.315E+02   0.972E+01 0.358E+02 -.307E+02   -.612E+01 0.346E+01 -.763E+00   -.119E+00 0.133E+00 -.864E-01
   0.170E+01 -.240E+02 0.141E+02   -.145E+01 0.231E+02 -.143E+02   -.212E+00 0.950E+00 0.200E+00   -.201E-01 0.452E-01 -.252E-01
   0.162E+02 -.338E+02 0.132E+02   -.244E+02 0.296E+02 -.118E+02   0.795E+01 0.397E+01 -.133E+01   0.124E+00 0.126E+00 -.804E-01
   0.699E+01 -.240E+02 0.121E+02   -.809E+01 0.232E+02 -.122E+02   0.108E+01 0.941E+00 0.126E+00   0.239E-01 0.501E-01 -.248E-01
   -.182E+02 -.110E+02 0.142E+02   0.177E+02 0.106E+02 -.147E+02   0.411E+00 0.319E+00 0.582E+00   0.335E-01 0.113E-01 -.133E-01
   -.544E+01 -.387E+02 0.988E+01   0.510E+01 0.449E+02 -.990E+01   0.381E+00 -.625E+01 0.198E-01   0.155E-01 0.819E-02 -.738E-02
   -.723E+01 -.143E+02 0.734E+01   0.819E+01 0.153E+02 -.736E+01   -.971E+00 -.949E+00 0.126E-01   0.563E-02 -.332E-02 -.385E-02
   -.479E+01 -.715E+01 0.757E+01   0.486E+01 0.785E+01 -.757E+01   -.389E-01 -.681E+00 0.563E-02   0.336E-02 -.435E-02 -.317E-02
   -.321E+01 -.487E+01 0.650E+01   0.361E+01 0.514E+01 -.653E+01   -.376E+00 -.255E+00 0.318E-01   -.439E-02 -.146E-02 -.263E-02
   -.183E+01 -.284E+01 0.650E+01   0.192E+01 0.302E+01 -.649E+01   -.821E-01 -.204E+00 -.116E-01   -.164E-02 -.329E-02 -.272E-02
   0.274E+01 -.471E+01 0.704E+01   -.255E+01 0.473E+01 -.706E+01   -.162E+00 -.468E-01 0.232E-01   -.869E-02 0.185E-02 -.398E-02
   0.176E+01 -.488E+01 0.737E+01   -.173E+01 0.496E+01 -.738E+01   -.252E-01 -.417E-01 0.997E-02   -.435E-02 0.179E-04 -.327E-02
   0.444E+00 -.103E+02 0.105E+02   -.318E-02 0.998E+01 -.106E+02   -.427E+00 0.240E+00 0.111E+00   -.957E-02 0.158E-01 -.971E-02
   0.285E+01 -.789E+01 0.853E+01   -.280E+01 0.778E+01 -.856E+01   -.461E-01 0.126E+00 0.353E-01   -.167E-02 0.843E-02 -.519E-02
   0.223E+01 -.130E+02 0.756E+01   -.258E+01 0.125E+02 -.719E+01   0.316E+00 0.519E+00 -.339E+00   0.398E-02 0.389E-01 -.185E-01
   0.171E+01 -.948E+01 0.805E+01   -.179E+01 0.916E+01 -.809E+01   0.860E-01 0.361E+00 0.433E-01   0.100E-02 0.983E-02 -.700E-02
   0.524E+01 -.197E+02 0.133E+02   -.694E+01 0.203E+02 -.134E+02   0.163E+01 -.595E+00 0.158E+00   0.139E-01 0.129E-01 -.941E-02
   0.306E+00 -.873E+01 0.952E+01   -.429E+00 0.922E+01 -.953E+01   0.133E+00 -.472E+00 0.987E-02   0.301E-02 0.351E-02 -.509E-02
   -.108E+01 -.101E+01 -.610E+03   0.300E+01 0.861E+00 0.592E+03   -.201E+01 0.155E+00 0.188E+02   -.307E-02 -.230E-02 -.149E+00
   -.634E+02 -.144E+03 0.107E+03   0.706E+02 0.160E+03 -.126E+03   -.774E+01 -.175E+02 0.204E+02   0.210E-03 -.352E-03 0.140E-01
   0.561E+02 0.126E+03 -.140E+03   -.718E+02 -.162E+03 0.181E+03   0.162E+02 0.366E+02 -.426E+02   -.902E-03 -.308E-02 0.135E-01
 -----------------------------------------------------------------------------------------------
   -.722E+01 -.195E+02 0.486E+01   0.711E-13 0.227E-12 -.369E-12   0.722E+01 0.195E+02 -.378E+01   -.592E-02 -.476E-02 -.104E+01
 
 
 POSITION                                       TOTAL-FORCE (eV/Angst)
 -----------------------------------------------------------------------------------
      7.43369     12.74379      7.25331        -0.016988      0.012511     -0.003213
      0.00110      1.41657      7.25535         0.025755     -0.018998      0.001079
      2.48002      0.02082      7.25273        -0.036747     -0.051128      0.001746
      2.48118      1.44314      7.26342         0.014054      0.036214     -0.004661
      4.95266      0.02624      7.25437         0.013919     -0.021080     -0.003116
      4.95454      1.44755      7.26500         0.018910      0.033595     -0.006002
      0.00118     12.74990      7.25545        -0.001293      0.006896      0.006357
      7.43310      1.42567      7.25423         0.001083     -0.023618      0.002794
      2.48509     12.72283      7.26358         0.001793     -0.029550     -0.005047
      9.91681      1.39576      7.25238        -0.014250      0.027670      0.000210
      4.95916     12.71923      7.26469        -0.010695     -0.055204     -0.010367
     12.38840      1.39340      7.25477         0.010660      0.020515     -0.004682
     13.62302      2.11287      7.25550        -0.030444     -0.031267      0.002284
     -1.24686      3.52849      7.26609         0.007377      0.030030     -0.005966
      1.23823      2.13949      7.26568        -0.001296     -0.009239     -0.000340
      1.23659      3.56244      7.28991         0.049642      0.036794      0.006449
      3.71926      2.17123      7.27932        -0.031972     -0.030990     -0.002022
      3.72121      3.59427      7.32393         0.020541      0.014083      0.003498
      6.19555      2.15006      7.26554        -0.008263     -0.032848     -0.006970
      6.19690      3.57604      7.28929        -0.011545      0.051952     -0.000717
      8.67987      2.11476      7.25239         0.022984     -0.008808      0.004439
      8.68366      3.53326      7.26000        -0.007269      0.043217     -0.006145
     11.15132      2.10609      7.25280        -0.000040      0.004307     -0.002409
     11.14957      3.53019      7.25449        -0.014395     -0.002516     -0.002019
     12.38157      4.24149      7.26233         0.012791     -0.009568     -0.000903
     -2.48984      5.65971      7.26911         0.024563     -0.010712     -0.002352
     -0.01507      4.24370      7.29130        -0.048267      0.011215     -0.005419
     -0.04054      5.66114      7.31948         0.032836     -0.019199      0.029376
      2.47526      4.30390      7.33657        -0.019749     -0.050045     -0.001942
      2.43042      5.71384      7.42862         0.156404      0.106069     -0.099918
      4.96249      4.32716      7.34311        -0.020444     -0.075200      0.010453
      5.01140      5.74772      7.44305        -0.149312      0.124041     -0.035708
      7.45188      4.24958      7.28256         0.018088     -0.035157     -0.011930
      7.47752      5.66524      7.30213        -0.033236     -0.007893      0.010993
      9.91699      4.24514      7.25799         0.002828     -0.001470     -0.002078
      9.92299      5.67025      7.26346        -0.001780      0.011466     -0.007187
     11.14797      6.37818      7.26304        -0.019229      0.003577     -0.003458
     -3.72296      7.79400      7.26396         0.005804     -0.020047     -0.005011
     -1.26858      6.37416      7.29464        -0.003409     -0.015694      0.001869
     -1.27067      7.79428      7.29397        -0.019710      0.005305      0.002623
      1.18088      6.36760      7.36940        -0.046116      0.089721      0.011693
      1.17929      7.80063      7.36748        -0.054722     -0.095878      0.012528
      6.27199      6.37899      7.36580         0.078147      0.052673      0.019426
      6.27488      7.81300      7.37432         0.111203     -0.083184      0.011176
      8.69663      6.38760      7.28050         0.001907      0.004927     -0.012117
      8.69488      7.80356      7.28074         0.053728     -0.027447     -0.008398
     -4.95048      8.51217      7.26532        -0.005419      0.006452     -0.006110
     -4.94376      9.92998      7.26015         0.006115      0.028969     -0.004090
     -2.49421      8.50851      7.26976         0.005582     -0.006544     -0.002992
     -2.48349      9.92902      7.26241         0.002101      0.020484      0.000350
     -0.04208      8.50654      7.31687         0.017044      0.001690      0.030597
     -0.01502      9.92248      7.29018        -0.024088      0.033059     -0.007332
      2.42889      8.45343      7.42497         0.175085     -0.118318     -0.079599
      2.47669      9.86121      7.33823         0.027361      0.053704     -0.011802
      5.02709      8.44138      7.45790        -0.212808     -0.129538     -0.016457
      4.96256      9.85346      7.34494        -0.000169      0.096957      0.013514
      7.47912      8.50586      7.30062        -0.071961      0.004306      0.023849
      7.45336      9.90998      7.28026         0.057036     -0.005170     -0.004730
     -6.18441     10.62408      7.26176        -0.008778     -0.037237     -0.008574
     -6.19101     12.04736      7.25325         0.029699      0.014073     -0.000667
     -3.71593     10.64159      7.25500         0.018974      0.021609      0.002357
     -3.71583     12.06418      7.25263         0.009858     -0.023180     -0.000117
     -1.24776     10.63795      7.26567         0.019240     -0.027264     -0.005042
     -1.24322     12.05681      7.25560         0.000581      0.034636      0.000105
      1.23765     10.60340      7.29066         0.006600     -0.021053     -0.008558
      1.24000     12.02587      7.26612         0.010360      0.021073     -0.001989
      3.72410     10.57506      7.32558        -0.029314      0.004232      0.008113
      3.72228     11.99828      7.27932         0.001993      0.048611     -0.004009
      6.20303     10.58599      7.28345        -0.062873     -0.009052      0.012764
      6.20308     12.01625      7.26240         0.008185      0.026546     -0.012520
      3.67993      7.08385      8.11128        -0.063522      0.003072      0.210895
      3.67993      7.08385     14.09128        -0.489950     -1.110374      1.272623
      3.35891      6.35801     14.93662         0.489224      1.108218     -1.279474
 -----------------------------------------------------------------------------------
    total drift:                               -0.002059     -0.002042      0.035745


--------------------------------------------------------------------------------------------------------



  FREE ENERGIE OF THE ION-ELECTRON SYSTEM (eV)
  ---------------------------------------------------
  free  energy   TOTEN  =      -668.61597407 eV

  energy  without entropy=     -668.61597407  energy(sigma->0) =     -668.61597407
 


--------------------------------------------------------------------------------------------------------


    POTLOK:  cpu time    0.1495: real time    0.1503


--------------------------------------------------------------------------------------------------------


 stress matrix after NEB project (eV)
     -3.01090     -0.67770      0.33508
     -0.67770     -2.38289      0.90542
      0.33508      0.90542     -4.25820
  FORCES: max atom, RMS     1.761971    0.300527
  FORCE total and by dimension    2.567703    1.279474
  Stress total and by dimension    5.971482    4.258196
     LOOP+:  cpu time  341.3116: real time  345.3066
    4ORBIT:  cpu time    0.0000: real time    0.0000
 


 total charge     
 
# of ion       s       p       d       tot
------------------------------------------
    1        0.864   1.784   0.000   2.648
    2        0.863   1.781   0.000   2.645
    3        0.863   1.781   0.000   2.645
    4        0.863   1.781   0.000   2.644
    5        0.864   1.783   0.000   2.648
    6        0.864   1.782   0.000   2.646
    7        0.863   1.780   0.000   2.643
    8        0.864   1.777   0.000   2.641
    9        0.863   1.782   0.000   2.645
   10        0.864   1.783   0.000   2.647
   11        0.863   1.781   0.000   2.643
   12        0.864   1.781   0.000   2.645
   13        0.865   1.787   0.000   2.653
   14        0.865   1.790   0.000   2.655
   15        0.864   1.780   0.000   2.644
   16        0.863   1.772   0.000   2.635
   17        0.862   1.771   0.000   2.634
   18        0.862   1.769   0.000   2.632
   19        0.863   1.778   0.000   2.641
   20        0.863   1.767   0.000   2.631
   21        0.865   1.787   0.000   2.652
   22        0.866   1.789   0.000   2.655
   23        0.864   1.786   0.000   2.650
   24        0.865   1.787   0.000   2.652
   25        0.865   1.789   0.000   2.654
   26        0.868   1.797   0.000   2.665
   27        0.867   1.788   0.000   2.655
   28        0.870   1.803   0.000   2.673
   29        0.863   1.762   0.000   2.625
   30        0.875   1.693   0.000   2.568
   31        0.860   1.748   0.000   2.608
   32        0.871   1.678   0.000   2.548
   33        0.866   1.793   0.000   2.659
   34        0.873   1.809   0.000   2.682
   35        0.864   1.788   0.000   2.652
   36        0.866   1.795   0.000   2.661
   37        0.868   1.799   0.000   2.667
   38        0.866   1.795   0.000   2.660
   39        0.868   1.798   0.000   2.666
   40        0.867   1.798   0.000   2.666
   41        0.876   1.785   0.000   2.660
   42        0.875   1.787   0.000   2.662
   43        0.875   1.796   0.000   2.671
   44        0.870   1.753   0.000   2.623
   45        0.866   1.805   0.000   2.671
   46        0.856   1.769   0.000   2.625
   47        0.866   1.804   0.000   2.671
   48        0.866   1.797   0.000   2.663
   49        0.867   1.795   0.000   2.663
   50        0.865   1.790   0.000   2.655
   51        0.871   1.803   0.000   2.674
   52        0.867   1.789   0.000   2.656
   53        0.876   1.694   0.000   2.570
   54        0.863   1.760   0.000   2.623
   55        0.873   1.695   0.000   2.568
   56        0.863   1.756   0.000   2.619
   57        1.217   2.714   0.000   3.931
   58        0.855   1.756   0.000   2.611
   59        0.863   1.796   0.000   2.659
   60        0.863   1.784   0.000   2.647
   61        0.865   1.792   0.000   2.658
   62        0.865   1.787   0.000   2.652
   63        0.866   1.790   0.000   2.655
   64        0.865   1.785   0.000   2.651
   65        0.863   1.771   0.000   2.634
   66        0.864   1.776   0.000   2.640
   67        0.862   1.775   0.000   2.637
   68        0.863   1.771   0.000   2.634
   69        0.861   1.775   0.000   2.636
   70        0.861   1.777   0.000   2.638
   71        0.391   6.295   4.280  10.965
   72        1.035   1.404   0.000   2.439
   73        1.637   3.514   0.000   5.151
--------------------------------------------------
tot         63.998 136.618   4.280 204.896
 


 magnetization (x)
 
# of ion       s       p       d       tot
------------------------------------------
    1       -0.000  -0.000   0.000  -0.000
    2        0.000   0.002   0.000   0.002
    3       -0.000   0.002   0.000   0.002
    4        0.000   0.009   0.000   0.009
    5       -0.000   0.000   0.000   0.000
    6        0.001   0.009   0.000   0.009
    7       -0.000   0.000   0.000   0.000
    8        0.000   0.002   0.000   0.003
    9        0.000   0.008   0.000   0.008
   10       -0.000   0.001   0.000   0.001
   11        0.000   0.009   0.000   0.009
   12       -0.000   0.002   0.000   0.002
   13        0.000   0.002   0.000   0.002
   14        0.000   0.004   0.000   0.005
   15        0.000   0.002   0.000   0.002
   16        0.001   0.007   0.000   0.008
   17       -0.001  -0.006   0.000  -0.007
   18        0.002   0.026   0.000   0.028
   19        0.000   0.003   0.000   0.003
   20        0.001   0.005   0.000   0.005
   21       -0.000   0.001   0.000   0.001
   22        0.000   0.007   0.000   0.007
   23        0.000   0.006   0.000   0.006
   24       -0.000  -0.001   0.000  -0.002
   25        0.000   0.008   0.000   0.008
   26        0.000   0.003   0.000   0.003
   27       -0.000  -0.001   0.000  -0.002
   28        0.000   0.002   0.000   0.002
   29       -0.001  -0.006   0.000  -0.007
   30        0.015   0.089   0.000   0.104
   31       -0.001  -0.006   0.000  -0.007
   32        0.014   0.080   0.000   0.094
   33       -0.000   0.000   0.000   0.000
   34        0.000   0.004   0.000   0.005
   35        0.000   0.009   0.000   0.009
   36        0.000   0.003   0.000   0.003
   37       -0.000   0.000   0.000   0.000
   38       -0.000  -0.000   0.000  -0.000
   39        0.000   0.008   0.000   0.009
   40        0.000   0.008   0.000   0.008
   41       -0.000   0.010   0.000   0.009
   42       -0.000   0.014   0.000   0.013
   43       -0.001   0.008   0.000   0.007
   44       -0.001   0.003   0.000   0.003
   45        0.000   0.004   0.000   0.005
   46        0.001   0.013   0.000   0.014
   47       -0.000   0.002   0.000   0.002
   48        0.001   0.015   0.000   0.015
   49       -0.000   0.001   0.000   0.001
   50        0.001   0.011   0.000   0.011
   51        0.000   0.001   0.000   0.002
   52       -0.000  -0.000   0.000  -0.000
   53        0.015   0.084   0.000   0.098
   54       -0.001  -0.007   0.000  -0.008
   55        0.014   0.079   0.000   0.093
   56       -0.001  -0.003   0.000  -0.004
   57        0.000   0.005   0.000   0.005
   58        0.000   0.005   0.000   0.005
   59        0.000   0.003   0.000   0.003
   60        0.000   0.003   0.000   0.003
   61       -0.000  -0.003   0.000  -0.003
   62        0.000   0.009   0.000   0.010
   63        0.000   0.005   0.000   0.005
   64        0.000   0.003   0.000   0.003
   65        0.001   0.005   0.000   0.006
   66        0.000   0.005   0.000   0.005
   67        0.001   0.024   0.000   0.025
   68       -0.001  -0.004   0.000  -0.004
   69        0.001   0.006   0.000   0.007
   70        0.000   0.003   0.000   0.003
   71       -0.033   0.010  -1.943  -1.966
   72        0.000  -0.000   0.000   0.000
   73        0.000   0.000   0.000   0.000
--------------------------------------------------
tot          0.032   0.611  -1.943  -1.300
 
 BZINTS: Fermi energy: -2.057030;303.000000 electrons
         Band energy:***********;  BLOECHL correction: -0.005067

 total amount of memory used by VASP MPI-rank0   115989. kBytes
=======================================================================

   base      :      30000. kBytes
   nonl-proj :      27264. kBytes
   fftplans  :       4700. kBytes
   grid      :      15193. kBytes
   one-center:        217. kBytes
   wavefun   :      38615. kBytes
 
  
  
 General timing and accounting informations for this job:
 ========================================================
  
                  Total CPU time used (sec):      359.511
                            User time (sec):      349.149
                          System time (sec):       10.362
                         Elapsed time (sec):      372.686
  
                   Maximum memory used (kb):      474384.
                   Average memory used (kb):           0.
  
                          Minor page faults:      1769036
                          Major page faults:            0
                 Voluntary context switches:         8725
