 vasp.5.4.4.18Apr17-6-g9f103f2a35 (build Jan 14 2022 15:04:31) complex          
  
 executed on             LinuxIFC date 2023.01.27  22:54:36
 running on   48 total cores
 distrk:  each k-point on   48 cores,    1 groups
 distr:  one band on NCORES_PER_BAND=  12 cores,    4 groups


--------------------------------------------------------------------------------------------------------


 INCAR:
 POTCAR:    PAW_PBE C 08Apr2002                   
 POTCAR:    PAW_PBE N 08Apr2002                   
 POTCAR:    PAW_PBE C 08Apr2002                   
 POTCAR:    PAW_PBE Cr_pv 02Aug2007               
 POTCAR:    PAW_PBE C 08Apr2002                   
 POTCAR:    PAW_PBE O 08Apr2002                   
 POTCAR:    PAW_PBE C 08Apr2002                   
   SHA256 =  253f7b50bb8d59471dbedb8285d89021f4a42ed1a2c5d38a03a736e69125dd95 C/
   COPYR  = (c) Copyright 08Apr2002 Georg Kresse                                
   COPYR  = This file is part of the software VASP. Any use, copying, and all ot
   COPYR  = If you do not have a valid VASP license, you may not use, copy or di
   VRHFIN =C: s2p2                                                              
   LEXCH  = PE                                                                  
   EATOM  =   147.1560 eV,   10.8157 Ry                                         
                                                                                
   TITEL  = PAW_PBE C 08Apr2002                                                 
   LULTRA =        F    use ultrasoft PP ?                                      
   IUNSCR =        1    unscreen: 0-lin 1-nonlin 2-no                           
   RPACOR =    1.200    partial core radius                                     
   POMASS =   12.011; ZVAL   =    4.000    mass and valenz                      
   RCORE  =    1.500    outmost cutoff radius                                   
   RWIGS  =    1.630; RWIGS  =    0.863    wigner-seitz radius (au A)           
   ENMAX  =  400.000; ENMIN  =  300.000 eV                                      
   ICORE  =        2    local potential                                         
   LCOR   =        T    correct aug charges                                     
   LPAW   =        T    paw PP                                                  
   EAUG   =  644.873                                                            
   DEXC   =    0.000                                                            
   RMAX   =    1.529    core radius for proj-oper                               
   RAUG   =    1.300    factor for augmentation sphere                          
   RDEP   =    1.501    radius for radial grids                                 
   RDEPT  =    1.300    core radius for aug-charge                              
                                                                                
   Atomic configuration                                                         
    4 entries                                                                   
     n  l   j            E        occ.                                          
     1  0  0.50      -273.3789   2.0000                                         
     2  0  0.50       -13.7508   2.0000                                         
     2  1  0.50        -5.2854   2.0000                                         
     3  2  1.50        -5.4423   0.0000                                         
   Description                                                                  
     l       E           TYP  RCUT    TYP  RCUT                                 
     0    -13.7508458     23  1.200                                             
     0     -8.2022199     23  1.200                                             
     1     -5.2854383     23  1.500                                             
     1     34.0145650     23  1.500                                             
     2     -5.4423304      7  1.500                                             
  local pseudopotential read in
  partial core-charges read in
  partial kinetic energy density read in
  atomic valenz-charges read in
  non local Contribution for L=           0  read in
    real space projection operators read in
  non local Contribution for L=           0  read in
    real space projection operators read in
  non local Contribution for L=           1  read in
    real space projection operators read in
  non local Contribution for L=           1  read in
    real space projection operators read in
    PAW grid and wavefunctions read in
 
   number of l-projection  operators is LMAX  =           4
   number of lm-projection operators is LMMAX =           8
 
 POTCAR:    PAW_PBE N 08Apr2002                   
   SHA256 =  e053789ff3a61a86a1b75d8a110fcc91f86041011e7b0817c7c99e4e8a6349d7 N/
   COPYR  = (c) Copyright 08Apr2002 Georg Kresse                                
   COPYR  = This file is part of the software VASP. Any use, copying, and all ot
   COPYR  = If you do not have a valid VASP license, you may not use, copy or di
   VRHFIN =N: s2p3                                                              
   LEXCH  = PE                                                                  
   EATOM  =   264.5486 eV,   19.4438 Ry                                         
                                                                                
   TITEL  = PAW_PBE N 08Apr2002                                                 
   LULTRA =        F    use ultrasoft PP ?                                      
   IUNSCR =        1    unscreen: 0-lin 1-nonlin 2-no                           
   RPACOR =    1.200    partial core radius                                     
   POMASS =   14.001; ZVAL   =    5.000    mass and valenz                      
   RCORE  =    1.500    outmost cutoff radius                                   
   RWIGS  =    1.400; RWIGS  =    0.741    wigner-seitz radius (au A)           
   ENMAX  =  400.000; ENMIN  =  300.000 eV                                      
   ICORE  =        2    local potential                                         
   LCOR   =        T    correct aug charges                                     
   LPAW   =        T    paw PP                                                  
   EAUG   =  627.112                                                            
   DEXC   =    0.000                                                            
   RMAX   =    1.529    core radius for proj-oper                               
   RAUG   =    1.300    factor for augmentation sphere                          
   RDEP   =    1.514    radius for radial grids                                 
   RDEPT  =    1.338    core radius for aug-charge                              
                                                                                
   Atomic configuration                                                         
    4 entries                                                                   
     n  l   j            E        occ.                                          
     1  0  0.50      -384.7179   2.0000                                         
     2  0  0.50       -18.5828   2.0000                                         
     2  1  0.50        -7.0898   3.0000                                         
     3  2  1.50        -6.8029   0.0000                                         
   Description                                                                  
     l       E           TYP  RCUT    TYP  RCUT                                 
     0    -18.5828119     23  1.200                                             
     0    -13.5018863     23  1.200                                             
     1     -7.0897853     23  1.500                                             
     1      9.5240782     23  1.500                                             
     2     -6.8029130      7  1.500                                             
  local pseudopotential read in
  partial core-charges read in
  partial kinetic energy density read in
  atomic valenz-charges read in
  non local Contribution for L=           0  read in
    real space projection operators read in
  non local Contribution for L=           0  read in
    real space projection operators read in
  non local Contribution for L=           1  read in
    real space projection operators read in
  non local Contribution for L=           1  read in
    real space projection operators read in
    PAW grid and wavefunctions read in
 
   number of l-projection  operators is LMAX  =           4
   number of lm-projection operators is LMMAX =           8
 
 POTCAR:    PAW_PBE C 08Apr2002                   
   SHA256 =  253f7b50bb8d59471dbedb8285d89021f4a42ed1a2c5d38a03a736e69125dd95 C/
   COPYR  = (c) Copyright 08Apr2002 Georg Kresse                                
   COPYR  = This file is part of the software VASP. Any use, copying, and all ot
   COPYR  = If you do not have a valid VASP license, you may not use, copy or di
   VRHFIN =C: s2p2                                                              
   LEXCH  = PE                                                                  
   EATOM  =   147.1560 eV,   10.8157 Ry                                         
                                                                                
   TITEL  = PAW_PBE C 08Apr2002                                                 
   LULTRA =        F    use ultrasoft PP ?                                      
   IUNSCR =        1    unscreen: 0-lin 1-nonlin 2-no                           
   RPACOR =    1.200    partial core radius                                     
   POMASS =   12.011; ZVAL   =    4.000    mass and valenz                      
   RCORE  =    1.500    outmost cutoff radius                                   
   RWIGS  =    1.630; RWIGS  =    0.863    wigner-seitz radius (au A)           
   ENMAX  =  400.000; ENMIN  =  300.000 eV                                      
   ICORE  =        2    local potential                                         
   LCOR   =        T    correct aug charges                                     
   LPAW   =        T    paw PP                                                  
   EAUG   =  644.873                                                            
   DEXC   =    0.000                                                            
   RMAX   =    1.529    core radius for proj-oper                               
   RAUG   =    1.300    factor for augmentation sphere                          
   RDEP   =    1.501    radius for radial grids                                 
   RDEPT  =    1.300    core radius for aug-charge                              
                                                                                
   Atomic configuration                                                         
    4 entries                                                                   
     n  l   j            E        occ.                                          
     1  0  0.50      -273.3789   2.0000                                         
     2  0  0.50       -13.7508   2.0000                                         
     2  1  0.50        -5.2854   2.0000                                         
     3  2  1.50        -5.4423   0.0000                                         
   Description                                                                  
     l       E           TYP  RCUT    TYP  RCUT                                 
     0    -13.7508458     23  1.200                                             
     0     -8.2022199     23  1.200                                             
     1     -5.2854383     23  1.500                                             
     1     34.0145650     23  1.500                                             
     2     -5.4423304      7  1.500                                             
  local pseudopotential read in
  partial core-charges read in
  partial kinetic energy density read in
  atomic valenz-charges read in
  non local Contribution for L=           0  read in
    real space projection operators read in
  non local Contribution for L=           0  read in
    real space projection operators read in
  non local Contribution for L=           1  read in
    real space projection operators read in
  non local Contribution for L=           1  read in
    real space projection operators read in
    PAW grid and wavefunctions read in
 
   number of l-projection  operators is LMAX  =           4
   number of lm-projection operators is LMMAX =           8
 
 POTCAR:    PAW_PBE Cr_pv 02Aug2007               
   SHA256 =  c9a7df34d3cdbacf1090e328ef39c0b420964e11c23f63548d1ac9dd218cdba0 Cr
   COPYR  = (c) Copyright 02Aug2007 Georg Kresse                                
   COPYR  = This file is part of the software VASP. Any use, copying, and all ot
   COPYR  = If you do not have a valid VASP license, you may not use, copy or di
   VRHFIN =Cr : p6d5s1                                                          
   LEXCH  = PE                                                                  
   EATOM  =  1647.9177 eV,  121.1185 Ry                                         
                                                                                
   TITEL  = PAW_PBE Cr_pv 02Aug2007                                             
   LULTRA =        F    use ultrasoft PP ?                                      
   IUNSCR =        1    unscreen: 0-lin 1-nonlin 2-no                           
   RPACOR =    2.080    partial core radius                                     
   POMASS =   51.996; ZVAL   =   12.000    mass and valenz                      
   RCORE  =    2.300    outmost cutoff radius                                   
   RWIGS  =    2.500; RWIGS  =    1.323    wigner-seitz radius (au A)           
   ENMAX  =  265.681; ENMIN  =  199.261 eV                                      
   ICORE  =        3    local potential                                         
   LCOR   =        T    correct aug charges                                     
   LPAW   =        T    paw PP                                                  
   EAUG   =  519.424                                                            
   DEXC   =    0.000                                                            
   RMAX   =    2.356    core radius for proj-oper                               
   RAUG   =    1.300    factor for augmentation sphere                          
   RDEP   =    2.447    radius for radial grids                                 
   RDEPT  =    1.882    core radius for aug-charge                              
                                                                                
   Atomic configuration                                                         
    8 entries                                                                   
     n  l   j            E        occ.                                          
     1  0  0.50     -5880.4963   2.0000                                         
     2  0  0.50      -667.0865   2.0000                                         
     2  1  1.50      -560.6250   6.0000                                         
     3  0  0.50       -73.9860   2.0000                                         
     3  1  1.50       -45.4378   6.0000                                         
     3  2  2.50        -2.9137   5.0000                                         
     4  0  0.50        -4.0071   1.0000                                         
     4  3  2.50        -1.3606   0.0000                                         
   Description                                                                  
     l       E           TYP  RCUT    TYP  RCUT                                 
     1    -45.4377911     23  2.000                                             
     1      1.3605826     23  2.000                                             
     2     -2.9136672     23  2.300                                             
     2     -4.2742498     23  2.300                                             
     0     -4.0071320     23  2.300                                             
     0      9.4498803     23  2.300                                             
     3      2.7211652     23  2.300                                             
  local pseudopotential read in
  partial core-charges read in
  partial kinetic energy density read in
  atomic valenz-charges read in
  non local Contribution for L=           1  read in
    real space projection operators read in
  non local Contribution for L=           1  read in
    real space projection operators read in
  non local Contribution for L=           2  read in
    real space projection operators read in
  non local Contribution for L=           2  read in
    real space projection operators read in
  non local Contribution for L=           0  read in
    real space projection operators read in
  non local Contribution for L=           0  read in
    real space projection operators read in
    PAW grid and wavefunctions read in
 
   number of l-projection  operators is LMAX  =           6
   number of lm-projection operators is LMMAX =          18
 
 POTCAR:    PAW_PBE C 08Apr2002                   
   SHA256 =  253f7b50bb8d59471dbedb8285d89021f4a42ed1a2c5d38a03a736e69125dd95 C/
   COPYR  = (c) Copyright 08Apr2002 Georg Kresse                                
   COPYR  = This file is part of the software VASP. Any use, copying, and all ot
   COPYR  = If you do not have a valid VASP license, you may not use, copy or di
   VRHFIN =C: s2p2                                                              
   LEXCH  = PE                                                                  
   EATOM  =   147.1560 eV,   10.8157 Ry                                         
                                                                                
   TITEL  = PAW_PBE C 08Apr2002                                                 
   LULTRA =        F    use ultrasoft PP ?                                      
   IUNSCR =        1    unscreen: 0-lin 1-nonlin 2-no                           
   RPACOR =    1.200    partial core radius                                     
   POMASS =   12.011; ZVAL   =    4.000    mass and valenz                      
   RCORE  =    1.500    outmost cutoff radius                                   
   RWIGS  =    1.630; RWIGS  =    0.863    wigner-seitz radius (au A)           
   ENMAX  =  400.000; ENMIN  =  300.000 eV                                      
   ICORE  =        2    local potential                                         
   LCOR   =        T    correct aug charges                                     
   LPAW   =        T    paw PP                                                  
   EAUG   =  644.873                                                            
   DEXC   =    0.000                                                            
   RMAX   =    1.529    core radius for proj-oper                               
   RAUG   =    1.300    factor for augmentation sphere                          
   RDEP   =    1.501    radius for radial grids                                 
   RDEPT  =    1.300    core radius for aug-charge                              
                                                                                
   Atomic configuration                                                         
    4 entries                                                                   
     n  l   j            E        occ.                                          
     1  0  0.50      -273.3789   2.0000                                         
     2  0  0.50       -13.7508   2.0000                                         
     2  1  0.50        -5.2854   2.0000                                         
     3  2  1.50        -5.4423   0.0000                                         
   Description                                                                  
     l       E           TYP  RCUT    TYP  RCUT                                 
     0    -13.7508458     23  1.200                                             
     0     -8.2022199     23  1.200                                             
     1     -5.2854383     23  1.500                                             
     1     34.0145650     23  1.500                                             
     2     -5.4423304      7  1.500                                             
  local pseudopotential read in
  partial core-charges read in
  partial kinetic energy density read in
  atomic valenz-charges read in
  non local Contribution for L=           0  read in
    real space projection operators read in
  non local Contribution for L=           0  read in
    real space projection operators read in
  non local Contribution for L=           1  read in
    real space projection operators read in
  non local Contribution for L=           1  read in
    real space projection operators read in
    PAW grid and wavefunctions read in
 
   number of l-projection  operators is LMAX  =           4
   number of lm-projection operators is LMMAX =           8
 
 POTCAR:    PAW_PBE O 08Apr2002                   
   SHA256 =  818f92134a0a090dccd8ba1447fa70422a3b330e708bb4f08108d8ae51209ddf O/
   COPYR  = (c) Copyright 08Apr2002 Georg Kresse                                
   COPYR  = This file is part of the software VASP. Any use, copying, and all ot
   COPYR  = If you do not have a valid VASP license, you may not use, copy or di
   VRHFIN =O: s2p4                                                              
   LEXCH  = PE                                                                  
   EATOM  =   432.3788 eV,   31.7789 Ry                                         
                                                                                
   TITEL  = PAW_PBE O 08Apr2002                                                 
   LULTRA =        F    use ultrasoft PP ?                                      
   IUNSCR =        1    unscreen: 0-lin 1-nonlin 2-no                           
   RPACOR =    1.200    partial core radius                                     
   POMASS =   16.000; ZVAL   =    6.000    mass and valenz                      
   RCORE  =    1.520    outmost cutoff radius                                   
   RWIGS  =    1.550; RWIGS  =    0.820    wigner-seitz radius (au A)           
   ENMAX  =  400.000; ENMIN  =  300.000 eV                                      
   ICORE  =        2    local potential                                         
   LCOR   =        T    correct aug charges                                     
   LPAW   =        T    paw PP                                                  
   EAUG   =  605.392                                                            
   DEXC   =    0.000                                                            
   RMAX   =    1.553    core radius for proj-oper                               
   RAUG   =    1.300    factor for augmentation sphere                          
   RDEP   =    1.550    radius for radial grids                                 
   RDEPT  =    1.329    core radius for aug-charge                              
                                                                                
   Atomic configuration                                                         
    4 entries                                                                   
     n  l   j            E        occ.                                          
     1  0  0.50      -514.6923   2.0000                                         
     2  0  0.50       -23.9615   2.0000                                         
     2  1  0.50        -9.0305   4.0000                                         
     3  2  1.50        -9.5241   0.0000                                         
   Description                                                                  
     l       E           TYP  RCUT    TYP  RCUT                                 
     0    -23.9615318     23  1.200                                             
     0     -9.5240782     23  1.200                                             
     1     -9.0304911     23  1.520                                             
     1      8.1634956     23  1.520                                             
     2     -9.5240782      7  1.500                                             
  local pseudopotential read in
  partial core-charges read in
  partial kinetic energy density read in
  kinetic energy density of atom read in
  atomic valenz-charges read in
  non local Contribution for L=           0  read in
    real space projection operators read in
  non local Contribution for L=           0  read in
    real space projection operators read in
  non local Contribution for L=           1  read in
    real space projection operators read in
  non local Contribution for L=           1  read in
    real space projection operators read in
    PAW grid and wavefunctions read in
 
   number of l-projection  operators is LMAX  =           4
   number of lm-projection operators is LMMAX =           8
 

 ----------------------------------------------------------------------------- 
|                                                                             |
|  ADVICE TO THIS USER RUNNING 'VASP/VAMP'   (HEAR YOUR MASTER'S VOICE ...):  |
|                                                                             |
|      You have a (more or less) 'large supercell' and for larger cells       |
|      it might be more efficient to use real space projection opertators     |
|      So try LREAL= Auto  in the INCAR   file.                               |
|      Mind:          For very  accurate calculation you might also keep the  |
|      reciprocal projection scheme          (i.e. LREAL=.FALSE.)             |
|                                                                             |
 ----------------------------------------------------------------------------- 

  PAW_PBE C 08Apr2002                   :
 energy of atom  1       EATOM= -147.1560
 kinetic energy error for atom=    0.0132 (will be added to EATOM!!)
  PAW_PBE N 08Apr2002                   :
 energy of atom  2       EATOM= -264.5486
 kinetic energy error for atom=    0.0298 (will be added to EATOM!!)
  PAW_PBE C 08Apr2002                   :
 energy of atom  3       EATOM= -147.1560
 kinetic energy error for atom=    0.0132 (will be added to EATOM!!)
  PAW_PBE Cr_pv 02Aug2007               :
 energy of atom  4       EATOM=-1647.9177
 kinetic energy error for atom=    0.0134 (will be added to EATOM!!)
  PAW_PBE C 08Apr2002                   :
 energy of atom  5       EATOM= -147.1560
 kinetic energy error for atom=    0.0132 (will be added to EATOM!!)
  PAW_PBE O 08Apr2002                   :
 energy of atom  6       EATOM= -432.3788
 kinetic energy error for atom=    0.0458 (will be added to EATOM!!)
 
 
 POSCAR: POSCAR-clean                            
  positions in cartesian coordinates
  No initial velocities read in
 exchange correlation table for  LEXCH =        8
   RHO(1)=    0.500       N(1)  =     2000
   RHO(2)=  100.500       N(2)  =     4000

 VTST: version 3.2, (02/03/18)

 CHAIN: initializing optimizer
 
 OPT: Using VASP Dynamics algorithm
 CHAIN: Read ICHAIN            0
 
 POSCAR: POSCAR-clean                            
  positions in cartesian coordinates
  No initial velocities read in
 


--------------------------------------------------------------------------------------------------------


 ion  position               nearest neighbor table
   1  0.000  0.001  0.484-   2 1.42  60 1.42  70 1.43
   2  0.056  0.112  0.484-   1 1.42  13 1.42  15 1.44
   3  0.168  0.003  0.483-   4 1.42  62 1.43  60 1.43
   4  0.224  0.114  0.484-   3 1.42  15 1.42  17 1.43
   5  0.334  0.002  0.484-   6 1.42  62 1.42  64 1.43
   6  0.390  0.114  0.484-  19 1.42   5 1.42  17 1.44
   7  0.500  0.999  0.484-   8 1.42  64 1.42  66 1.44
   8  0.556  0.111  0.484-   7 1.42  21 1.42  19 1.43
   9  0.665  0.997  0.484-  10 1.42  66 1.42  68 1.43
  10  0.721  0.109  0.483-   9 1.42  21 1.43  23 1.43
  11  0.832  0.998  0.484-  70 1.42  12 1.42  68 1.44
  12  0.888  0.109  0.484-  11 1.42  23 1.42  13 1.43
  13  0.999  0.166  0.484-  14 1.42   2 1.42  12 1.43
  14  0.055  0.278  0.484-  25 1.42  13 1.42  27 1.43
  15  0.168  0.169  0.484-  16 1.42   4 1.42   2 1.44
  16  0.224  0.281  0.486-  27 1.42  15 1.42  29 1.44
  17  0.335  0.171  0.486-  18 1.42   4 1.43   6 1.44
  18  0.391  0.283  0.489-  17 1.42  31 1.43  29 1.45
  19  0.501  0.168  0.484-  20 1.42   6 1.42   8 1.43
  20  0.557  0.279  0.486-  19 1.42  33 1.42  31 1.44
  21  0.666  0.165  0.483-  22 1.42   8 1.42  10 1.43
  22  0.722  0.277  0.484-  21 1.42  35 1.42  33 1.42
  23  0.832  0.165  0.483-  24 1.42  12 1.42  10 1.43
  24  0.888  0.276  0.484-  23 1.42  35 1.42  25 1.43
  25  0.999  0.332  0.484-  26 1.42  14 1.42  24 1.43
  26  0.055  0.444  0.484-  25 1.42  39 1.42  37 1.42
  27  0.166  0.334  0.486-  28 1.41  16 1.42  14 1.43
  28  0.220  0.445  0.486-  41 1.38  27 1.41  39 1.42
  29  0.336  0.341  0.491-  30 1.43  16 1.44  18 1.45
  30  0.389  0.452  0.500-  41 1.40  29 1.43  71 2.02
  31  0.502  0.337  0.488-  32 1.41  18 1.43  20 1.44
  32  0.560  0.448  0.493-  31 1.41  43 1.41  71 1.95
  33  0.667  0.333  0.486-  34 1.42  20 1.42  22 1.42
  34  0.725  0.444  0.488-  43 1.41  33 1.42  45 1.42
  35  0.833  0.332  0.484-  24 1.42  36 1.42  22 1.42
  36  0.889  0.444  0.484-  45 1.42  37 1.42  35 1.42
  37  0.000  0.500  0.484-  38 1.42  26 1.42  36 1.42
  38  0.056  0.611  0.484-  47 1.42  49 1.42  37 1.42
  39  0.165  0.500  0.485-  28 1.42  40 1.42  26 1.42
  40  0.220  0.611  0.485-  49 1.41  51 1.42  39 1.42
  41  0.328  0.500  0.491-  28 1.38  30 1.40  42 1.41
  42  0.384  0.610  0.491-  53 1.40  41 1.41  51 1.41
  43  0.670  0.499  0.491-  32 1.41  34 1.41  44 1.43
  44  0.726  0.612  0.491-  55 1.41  57 1.41  43 1.43
  45  0.835  0.500  0.486-  36 1.42  46 1.42  34 1.42
  46  0.891  0.611  0.486-  47 1.42  57 1.42  45 1.42
  47  0.001  0.667  0.484-  46 1.42  38 1.42  48 1.42
  48  0.057  0.779  0.484-  59 1.42  47 1.42  61 1.42
  49  0.166  0.667  0.485-  40 1.41  38 1.42  50 1.42
  50  0.222  0.779  0.484-  49 1.42  63 1.42  61 1.42
  51  0.330  0.666  0.486-  42 1.41  40 1.42  52 1.42
  52  0.388  0.777  0.486-  51 1.42  65 1.42  63 1.43
  53  0.493  0.658  0.498-  42 1.40  54 1.44  71 2.01
  54  0.552  0.771  0.491-  53 1.44  67 1.44  65 1.44
  55  0.668  0.664  0.493-  56 1.41  44 1.41  71 1.96
  56  0.721  0.774  0.488-  55 1.41  67 1.43  69 1.44
  57  0.836  0.668  0.488-  44 1.41  58 1.42  46 1.42
  58  0.890  0.779  0.486-  57 1.42  69 1.42  59 1.43
  59  0.002  0.835  0.484-  60 1.42  48 1.42  58 1.43
  60  0.057  0.946  0.483-  59 1.42   1 1.42   3 1.43
  61  0.168  0.835  0.484-  62 1.42  48 1.42  50 1.42
  62  0.223  0.946  0.483-  61 1.42   5 1.42   3 1.43
  63  0.333  0.834  0.484-  64 1.42  50 1.42  52 1.43
  64  0.389  0.945  0.484-  63 1.42   7 1.42   5 1.43
  65  0.499  0.830  0.486-  52 1.42  66 1.43  54 1.44
  66  0.554  0.942  0.484-   9 1.42  65 1.43   7 1.44
  67  0.664  0.829  0.489-  68 1.42  56 1.43  54 1.44
  68  0.720  0.941  0.485-  67 1.42   9 1.43  11 1.44
  69  0.833  0.832  0.486-  70 1.42  58 1.42  56 1.44
  70  0.889  0.944  0.484-  11 1.42  69 1.42   1 1.43
  71  0.535  0.555  0.541-  32 1.95  55 1.96  53 2.01  30 2.02
  72  0.535  0.555  0.940-  73 1.16
  73  0.485  0.498  0.996-  72 1.16
 

IMPORTANT INFORMATION: All symmetrisations will be switched off!
NOSYMM: (Re-)initialisation of all symmetry stuff for point group C_1.

 
 
 KPOINTS: K-Points                                

Automatic generation of k-mesh.
Space group operators:
 irot       det(A)        alpha          n_x          n_y          n_z        tau_x        tau_y        tau_z
    1     1.000000     0.000000     1.000000     0.000000     0.000000     0.000000     0.000000     0.000000
 
 Subroutine IBZKPT returns following result:
 ===========================================
 
 Found      5 irreducible k-points:
 
 Following reciprocal coordinates:
            Coordinates               Weight
  0.000000  0.000000  0.000000      1.000000
  0.333333 -0.000000  0.000000      2.000000
  0.000000  0.333333  0.000000      2.000000
  0.333333  0.333333  0.000000      2.000000
 -0.333333  0.333333  0.000000      2.000000
 
 Following cartesian coordinates:
            Coordinates               Weight
  0.000000  0.000000  0.000000      1.000000
  0.022427  0.013080  0.000000      2.000000
 -0.000013  0.026159  0.000000      2.000000
  0.022414  0.039239  0.000000      2.000000
 -0.022441  0.013080  0.000000      2.000000
 
 TETIRR: Found     24 inequivalent tetrahedra from       54


--------------------------------------------------------------------------------------------------------




 Dimension of arrays:
   k-points           NKPTS =      5   k-points in BZ     NKDIM =      5   number of bands    NBANDS=    192
   number of dos      NEDOS =   4000   number of ions     NIONS =     73
   non local maximal  LDIM  =      6   non local SUM 2l+1 LMDIM =     18
   total plane-waves  NPLWV = 512000
   max r-space proj   IRMAX =      1   max aug-charges    IRDMAX=   6472
   dimension x,y,z NGX =    80 NGY =   80 NGZ =   80
   dimension x,y,z NGXF=   160 NGYF=  160 NGZF=  160
   support grid    NGXF=   160 NGYF=  160 NGZF=  160
   ions per type =              40   1  29   1   1   1
   NGX,Y,Z   is equivalent  to a cutoff of   8.95,  9.02,  8.87 a.u.
   NGXF,Y,Z  is equivalent  to a cutoff of  17.90, 18.04, 17.73 a.u.

 SYSTEM =  unknown system                          
 POSCAR =  POSCAR-clean                            

 Startparameter for this run:
   NWRITE =      2    write-flag & timer
   PREC   = normal    normal or accurate (medium, high low for compatibility)
   ISTART =      0    job   : 0-new  1-cont  2-samecut
   ICHARG =      2    charge: 1-file 2-atom 10-const
   ISPIN  =      2    spin polarized calculation?
   LNONCOLLINEAR =      F non collinear calculations
   LSORBIT =      F    spin-orbit coupling
   INIWAV =      1    electr: 0-lowe 1-rand  2-diag
   LASPH  =      F    aspherical Exc in radial PAW
   METAGGA=      F    non-selfconsistent MetaGGA calc.

 Electronic Relaxation 1
   ENCUT  =  440.0 eV  32.34 Ry    5.69 a.u.  25.41 25.22 25.66*2*pi/ulx,y,z
   ENINI  =  440.0     initial cutoff
   ENAUG  =  644.9 eV  augmentation charge cutoff
   NELM   =    100;   NELMIN=  2; NELMDL= -5     # of ELM steps 
   EDIFF  = 0.1E-03   stopping-criterion for ELM
   LREAL  =      F    real-space projection
   NLSPLINE    = F    spline interpolate recip. space projectors
   LCOMPAT=      F    compatible to vasp.4.4
   GGA_COMPAT  = T    GGA compatible to vasp.4.4-vasp.4.6
   LMAXPAW     = -100 max onsite density
   LMAXMIX     =    2 max onsite mixed and CHGCAR
   VOSKOWN=      0    Vosko Wilk Nusair interpolation
   ROPT   =    0.00000   0.00000   0.00000   0.00000
   ROPT   =    0.00000   0.00000
 Ionic relaxation
   EDIFFG = -.1E-01   stopping-criterion for IOM
   NSW    =      0    number of steps for IOM
   NBLOCK =      1;   KBLOCK =      1    inner block; outer block 
   IBRION =     -1    ionic relax: 0-MD 1-quasi-New 2-CG
   NFREE  =      0    steps in history (QN), initial steepest desc. (CG)
   ISIF   =      2    stress and relaxation
   IWAVPR =     10    prediction:  0-non 1-charg 2-wave 3-comb
   ISYM   =      0    0-nonsym 1-usesym 2-fastsym
   LCORR  =      T    Harris-Foulkes like correction to forces

   POTIM  = 0.5000    time-step for ionic-motion
   TEIN   =    0.0    initial temperature
   TEBEG  =    0.0;   TEEND  =   0.0 temperature during run
   SMASS  =  -3.00    Nose mass-parameter (am)
   estimated Nose-frequenzy (Omega)   =  0.10E-29 period in steps =****** mass=  -0.505E-26a.u.
   SCALEE = 1.0000    scale energy and forces
   NPACO  =    256;   APACO  = 16.0  distance and # of slots for P.C.
   PSTRESS=    0.0 pullay stress

  Mass of Ions in am
   POMASS =  12.01 14.00 12.01 52.00 12.01 16.00
  Ionic Valenz
   ZVAL   =   4.00  5.00  4.00 12.00  4.00  6.00
  Atomic Wigner-Seitz radii
   RWIGS  =  -1.00 -1.00 -1.00 -1.00 -1.00 -1.00
  virtual crystal weights 
   VCA    =   1.00  1.00  1.00  1.00  1.00  1.00
   NELECT =     303.0000    total number of electrons
   NUPDOWN=      -1.0000    fix difference up-down

 DOS related values:
   EMIN   = -14.00;   EMAX   =  6.00  energy-range for DOS
   EFERMI =   0.00
   ISMEAR =    -5;   SIGMA  =   0.20  broadening in eV -4-tet -1-fermi 0-gaus

 Electronic relaxation 2 (details)
   IALGO  =     38    algorithm
   LDIAG  =      T    sub-space diagonalisation (order eigenvalues)
   LSUBROT=      F    optimize rotation matrix (better conditioning)
   TURBO    =      0    0=normal 1=particle mesh
   IRESTART =      0    0=no restart 2=restart with 2 vectors
   NREBOOT  =      0    no. of reboots
   NMIN     =      0    reboot dimension
   EREF     =   0.00    reference energy to select bands
   IMIX   =      4    mixing-type and parameters
     AMIX     =   0.25;   BMIX     =  0.00
     AMIX_MAG =   1.00;   BMIX_MAG =  0.00
     AMIN     =   0.10
     WC   =   100.;   INIMIX=   1;  MIXPRE=   1;  MAXMIX= -45

 Intra band minimization:
   WEIMIN = 0.0000     energy-eigenvalue tresh-hold
   EBREAK =  0.13E-06  absolut break condition
   DEPER  =   0.30     relativ break condition  

   TIME   =   0.40     timestep for ELM

  volume/ion in A,a.u.               =      38.90       262.54
  Fermi-wavevector in a.u.,A,eV,Ry     =   0.776456  1.467289  8.202736  0.602884
  Thomas-Fermi vector in A             =   1.878938
 
 Write flags
   LWAVE        =      F    write WAVECAR
   LDOWNSAMPLE  =      F    k-point downsampling of WAVECAR
   LCHARG       =      F    write CHGCAR
   LVTOT        =      F    write LOCPOT, total local potential
   LVHAR        =      F    write LOCPOT, Hartree potential only
   LELF         =      F    write electronic localiz. function (ELF)
   LORBIT       =     11    0 simple, 1 ext, 2 COOP (PROOUT), +10 PAW based schemes


 Dipole corrections
   LMONO  =      F    monopole corrections only (constant potential shift)
   LDIPOL =      F    correct potential (dipole corrections)
   IDIPOL =      0    1-x, 2-y, 3-z, 4-all directions 
   EPSILON=  1.0000000 bulk dielectric constant

 Exchange correlation treatment:
   GGA     =    --    GGA type
   LEXCH   =     8    internal setting for exchange type
   VOSKOWN=      0    Vosko Wilk Nusair interpolation
   LHFCALC =     F    Hartree Fock is set to
   LHFONE  =     F    Hartree Fock one center treatment
   AEXX    =    0.0000 exact exchange contribution

 Linear response parameters
   LEPSILON=     F    determine dielectric tensor
   LRPA    =     F    only Hartree local field effects (RPA)
   LNABLA  =     F    use nabla operator in PAW spheres
   LVEL    =     F    velocity operator in full k-point grid
   LINTERFAST=   F  fast interpolation
   KINTER  =     0    interpolate to denser k-point grid
   CSHIFT  =0.1000    complex shift for real part using Kramers Kronig
   OMEGAMAX=  -1.0    maximum frequency
   DEG_THRESHOLD= 0.2000000E-02 threshold for treating states as degnerate
   RTIME   =   -0.100 relaxation time in fs
  (WPLASMAI=    0.000 imaginary part of plasma frequency in eV, 0.658/RTIME)
   DFIELD  = 0.0000000 0.0000000 0.0000000 field for delta impulse in time
 
 Orbital magnetization related:
   ORBITALMAG=     F  switch on orbital magnetization
   LCHIMAG   =     F  perturbation theory with respect to B field
   DQ        =  0.001000  dq finite difference perturbation B field
   LLRAUG    =     F  two centre corrections for induced B field



--------------------------------------------------------------------------------------------------------


 Static calculation
 charge density and potential will be updated during run
 spin polarized calculation
 Variant of blocked Davidson
 Davidson routine will perform the subspace rotation
 perform sub-space diagonalisation
    after iterative eigenvector-optimisation
 modified Broyden-mixing scheme, WC =      100.0
 initial mixing is a Kerker type mixing with AMIX =  0.2500 and BMIX =      0.0001
 Hartree-type preconditioning will be used
 using additional bands           40
 reciprocal scheme for non local part
 use partial core corrections
 calculate Harris-corrections to forces 
   (improved forces if not selfconsistent)
 use gradient corrections 
 use of overlap-Matrix (Vanderbilt PP)
 Fermi weights with tetrahedron method with Bloechl corrections


--------------------------------------------------------------------------------------------------------


  energy-cutoff  :      440.00
  volume of cell :     2839.99
      direct lattice vectors                 reciprocal lattice vectors
    14.858494812  0.007653473  0.000000000     0.067281356  0.039239159  0.000000000
    -7.429247406 12.738546194  0.000000000    -0.000040423  0.078478318  0.000000000
     0.000000000  0.000000000 15.000000000     0.000000000  0.000000000  0.066666667

  length of vectors
    14.858496783 14.746670002 15.000000000     0.077887692  0.078478329  0.066666667


 
 k-points in units of 2pi/SCALE and weight: K-Points                                
   0.00000000  0.00000000  0.00000000       0.111
   0.02242712  0.01307972  0.00000000       0.222
  -0.00001347  0.02615944  0.00000000       0.222
   0.02241364  0.03923916  0.00000000       0.222
  -0.02244059  0.01307972  0.00000000       0.222
 
 k-points in reciprocal lattice and weights: K-Points                                
   0.00000000  0.00000000  0.00000000       0.111
   0.33333333 -0.00000000  0.00000000       0.222
   0.00000000  0.33333333  0.00000000       0.222
   0.33333333  0.33333333  0.00000000       0.222
  -0.33333333  0.33333333  0.00000000       0.222
 
 position of ions in fractional coordinates (direct lattice) 
   0.00045932  0.00066326  0.48371705
   0.05621984  0.11223478  0.48359952
   0.16816907  0.00252468  0.48346601
   0.22385460  0.11404050  0.48433827
   0.33423069  0.00192036  0.48363398
   0.38995233  0.11359044  0.48432867
   0.49980332  0.99902306  0.48368839
   0.55551549  0.11067786  0.48372772
   0.66534385  0.99718620  0.48433721
   0.72118014  0.10883793  0.48342718
   0.83209646  0.99781961  0.48428482
   0.88788842  0.10944355  0.48366259
   0.99945133  0.16623669  0.48378179
   0.05492571  0.27773676  0.48429186
   0.16805539  0.16925553  0.48418483
   0.22390529  0.28089556  0.48617893
   0.33529306  0.17098019  0.48551791
   0.39094497  0.28267516  0.48875182
   0.50072361  0.16765890  0.48445923
   0.55656995  0.27925950  0.48563998
   0.66638494  0.16521651  0.48344961
   0.72224021  0.27655169  0.48403122
   0.83231299  0.16487738  0.48345330
   0.88795169  0.27626504  0.48360118
   0.99899476  0.33238746  0.48413954
   0.05456714  0.44361676  0.48436913
   0.16631823  0.33409121  0.48552738
   0.22023544  0.44493376  0.48631083
   0.33617773  0.34063447  0.49108835
   0.38905792  0.45220950  0.49976620
   0.50224781  0.33722197  0.48821506
   0.56017974  0.44770318  0.49289993
   0.66748294  0.33280725  0.48576265
   0.72456127  0.44389602  0.48790044
   0.83309817  0.33216087  0.48381601
   0.88938167  0.44379359  0.48433609
   0.00007985  0.49984756  0.48418951
   0.05559558  0.61130816  0.48421022
   0.16515479  0.50012318  0.48510069
   0.22010518  0.61133660  0.48526957
   0.32786374  0.49950504  0.49120192
   0.38422182  0.60978803  0.49087897
   0.67005144  0.49940495  0.49057385
   0.72628591  0.61189215  0.49082475
   0.83524871  0.49995032  0.48616609
   0.89093225  0.61142855  0.48622392
   0.00119534  0.66746744  0.48428727
   0.05671541  0.77912071  0.48379112
   0.16616226  0.66741329  0.48455473
   0.22243698  0.77889673  0.48417966
   0.33041125  0.66570296  0.48631158
   0.38788128  0.77702707  0.48564039
   0.49296684  0.65793836  0.49784095
   0.55179838  0.77053625  0.49079629
   0.66834264  0.66381077  0.49314191
   0.72090279  0.77417821  0.48825957
   0.83638437  0.66751945  0.48824324
   0.89046118  0.77852888  0.48592037
   0.00153603  0.83480238  0.48405389
   0.05690638  0.94615824  0.48346958
   0.16758722  0.83503998  0.48355077
   0.22329685  0.94648194  0.48345507
   0.33317526  0.83362446  0.48436255
   0.38896069  0.94511302  0.48377517
   0.49860153  0.82975140  0.48640919
   0.55448903  0.94186465  0.48438886
   0.66411773  0.82894806  0.48852590
   0.72011072  0.94053676  0.48540884
   0.83308650  0.83203869  0.48567920
   0.88875876  0.94367673  0.48443114
   0.53462002  0.55543176  0.54116982
   0.53462002  0.55543176  0.93983648
   0.48454027  0.49848174  0.99619229
 
 position of ions in cartesian coordinates  (Angst):
   0.00189719  0.00845252  7.25575582
   0.00152229  1.43013818  7.25399285
   2.47998275  0.03344777  7.25199010
   2.47890730  1.45442345  7.26507398
   4.95189817  0.02702059  7.25450970
   4.95021311  1.44996159  7.26493012
   0.00433561 12.72992665  7.25532586
   7.43187079  1.41412670  7.25591573
   2.47766513 12.70779473  7.26505811
   9.90706750  1.39195659  7.25140772
   4.95065226 12.71713960  7.26427234
  12.37960220  1.40094719  7.25493886
  13.61532887  2.12526302  7.25672689
  -1.24726170  3.53838288  7.26437794
   1.23960893  2.15735555  7.26277239
   1.24005294  3.57991476  7.29268390
   3.71169612  2.18060518  7.28276858
   3.70879003  3.60386271  7.33127723
   6.19441973  2.13956286  7.26688852
   6.19510375  3.56161971  7.28459977
   8.67404284  2.10971830  7.25174410
   8.67683140  3.52839415  7.26046825
  11.14200340  2.10666824  7.25179952
  11.14118423  3.52601083  7.25401767
  12.37416974  4.24177879  7.26209310
  -2.48495311  5.65145018  7.26553697
  -0.01080775  4.25710923  7.28291068
  -0.03315586  5.66949482  7.29466238
   2.46443736  4.34176080  7.36632522
   2.42123873  5.76346929  7.49649295
   4.95734103  4.29956159  7.32322596
   4.99733018  5.70737490  7.39349892
   7.44528441  4.24458904  7.28643973
   7.46807657  5.66013532  7.31850661
   9.91087947  4.23762272  7.25724017
   9.91782065  5.66009196  7.26504138
  -3.71230478  6.36733185  7.26284261
  -3.71549296  7.78760273  7.26315329
  -1.26158729  6.37210625  7.27651039
  -1.27133913  7.78922411  7.27904352
   1.16061512  6.36547727  7.36802883
   1.17869178  7.77075365  7.36318453
   6.24575290  6.36682121  7.35860780
   6.24561732  7.80017504  7.36237123
   8.69628402  6.37503279  7.29249140
   8.69545826  7.79552959  7.29335877
  -4.94101970  8.50257392  7.26430911
  -4.94557497  9.92529928  7.25686679
  -2.48945748  8.50314680  7.26832091
  -2.48153787  9.92371444  7.26269487
  -0.03625808  8.48261666  7.29467367
  -0.00939433  9.90116381  7.28460590
   2.43675841  8.38495109  7.46761422
   2.47438897  9.81973479  7.36194440
   4.99895111  8.46109936  7.39712872
   4.95996884  9.86742232  7.32389351
   7.46824573  8.50962861  7.32364864
   7.44702914  9.92414128  7.28880556
  -6.17913028 10.63418042  7.26080831
  -6.18370055 12.05311602  7.25204364
  -3.71362483 10.63847802  7.25326154
  -3.71379339 12.05851286  7.25182609
  -1.24271941 10.62171358  7.26543825
  -1.24210809 12.04234277  7.25662748
   1.24403984 10.57364261  7.29613791
   1.24152677 12.00223018  7.26583292
   3.70932964 10.56467592  7.32788852
   3.71228119 11.98658228  7.28113253
   6.19699010 10.60533931  7.28518807
   6.19480954 12.02787165  7.26646717
   3.81720884  7.07948482  8.11754724
   3.81720884  7.07948482 14.09754724
   3.49619489  6.35364113 14.94288442
 


--------------------------------------------------------------------------------------------------------


 k-point  1 :   0.0000 0.0000 0.0000  plane waves:   59517
 k-point  2 :   0.3333-0.0000 0.0000  plane waves:   59484
 k-point  3 :   0.0000 0.3333 0.0000  plane waves:   59556
 k-point  4 :   0.3333 0.3333 0.0000  plane waves:   59566
 k-point  5 :  -0.3333 0.3333 0.0000  plane waves:   59491

 maximum and minimum number of plane-waves per node :      4984     4934

 maximum number of plane-waves:     59566
 maximum index in each direction: 
   IXMAX=   25   IYMAX=   25   IZMAX=   25
   IXMIN=  -25   IYMIN=  -25   IZMIN=  -25


 parallel 3D FFT for wavefunctions:
    minimum data exchange during FFTs selected (reduces bandwidth)
 parallel 3D FFT for charge:
    minimum data exchange during FFTs selected (reduces bandwidth)


 total amount of memory used by VASP MPI-rank0   115989. kBytes
=======================================================================

   base      :      30000. kBytes
   nonl-proj :      27264. kBytes
   fftplans  :       4700. kBytes
   grid      :      15193. kBytes
   one-center:        217. kBytes
   wavefun   :      38615. kBytes
 
     INWAV:  cpu time    0.0000: real time    0.0000
 Broyden mixing: mesh for mixing (old mesh)
   NGX = 51   NGY = 51   NGZ = 51
  (NGX  =160   NGY  =160   NGZ  =160)
  gives a total of 132651 points

 initial charge density was supplied:
 charge density of overlapping atoms calculated
 number of electron     303.0000000 magnetization       2.0000000
 keeping initial charge density in first step


--------------------------------------------------------------------------------------------------------


 Maximum index for augmentation-charges          178 (set IRDMAX)


--------------------------------------------------------------------------------------------------------


 First call to EWALD:  gamma=   0.125
 Maximum number of real-space cells 3x 3x 3
 Maximum number of reciprocal cells 3x 3x 3

    FEWALD:  cpu time    0.0055: real time    0.0058


--------------------------------------- Iteration      1(   1)  ---------------------------------------


    POTLOK:  cpu time    0.2274: real time    0.2563
    SETDIJ:  cpu time    0.0086: real time    0.0095
     EDDAV:  cpu time   11.2408: real time   11.3521
 BZINTS: Fermi energy:  7.983494;303.000000 electrons
         Band energy:***********;  BLOECHL correction: -0.010301
       DOS:  cpu time    0.1105: real time    0.1106
    --------------------------------------------
      LOOP:  cpu time   11.5873: real time   11.7285

 eigenvalue-minimisations  :  4352
 total energy-change (2. order) : 0.2539777E+04  (-0.1118107E+05)
 number of electron     303.0000000 magnetization       2.0000000
 augmentation part      303.0000000 magnetization       2.0000000

 Free energy of the ion-electron system (eV)
  ---------------------------------------------------
  alpha Z        PSCENC =       167.43892633
  Ewald energy   TEWEN  =     28946.90760904
  -Hartree energ DENC   =    -38623.91277784
  -exchange      EXHF   =         0.00000000
  -V(xc)+E(xc)   XCENC  =      1022.36355592
  PAW double counting   =      9455.23336183    -9546.47664214
  entropy T*S    EENTRO =         0.00000000
  eigenvalues    EBANDS =     -1526.53040287
  atomic energy  EATOM  =     12644.75315347
  Solvation  Ediel_sol  =         0.00000000
  ---------------------------------------------------
  free energy    TOTEN  =      2539.77678376 eV

  energy without entropy =     2539.77678376  energy(sigma->0) =     2539.77678376


--------------------------------------------------------------------------------------------------------




--------------------------------------- Iteration      1(   2)  ---------------------------------------


     EDDAV:  cpu time   14.9497: real time   15.1973
 BZINTS: Fermi energy: -1.455639;303.000000 electrons
         Band energy:***********;  BLOECHL correction: -0.043828
       DOS:  cpu time    0.0117: real time    0.0118
    --------------------------------------------
      LOOP:  cpu time   14.9614: real time   15.2090

 eigenvalue-minimisations  :  5504
 total energy-change (2. order) :-0.2777193E+04  (-0.2650612E+04)
 number of electron     303.0000000 magnetization       2.0000000
 augmentation part      303.0000000 magnetization       2.0000000

 Free energy of the ion-electron system (eV)
  ---------------------------------------------------
  alpha Z        PSCENC =       167.43892633
  Ewald energy   TEWEN  =     28946.90760904
  -Hartree energ DENC   =    -38623.91277784
  -exchange      EXHF   =         0.00000000
  -V(xc)+E(xc)   XCENC  =      1022.36355592
  PAW double counting   =      9455.23336183    -9546.47664214
  entropy T*S    EENTRO =         0.00000000
  eigenvalues    EBANDS =     -4303.72321065
  atomic energy  EATOM  =     12644.75315347
  Solvation  Ediel_sol  =         0.00000000
  ---------------------------------------------------
  free energy    TOTEN  =      -237.41602403 eV

  energy without entropy =     -237.41602403  energy(sigma->0) =     -237.41602403


--------------------------------------------------------------------------------------------------------




--------------------------------------- Iteration      1(   3)  ---------------------------------------


     EDDAV:  cpu time   12.8009: real time   13.0262
 BZINTS: Fermi energy: -4.530090;303.000000 electrons
         Band energy:***********;  BLOECHL correction: -0.056457
       DOS:  cpu time    0.0107: real time    0.0107
    --------------------------------------------
      LOOP:  cpu time   12.8115: real time   13.0370

 eigenvalue-minimisations  :  4584
 total energy-change (2. order) :-0.4647599E+03  (-0.4611668E+03)
 number of electron     303.0000000 magnetization       2.0000000
 augmentation part      303.0000000 magnetization       2.0000000

 Free energy of the ion-electron system (eV)
  ---------------------------------------------------
  alpha Z        PSCENC =       167.43892633
  Ewald energy   TEWEN  =     28946.90760904
  -Hartree energ DENC   =    -38623.91277784
  -exchange      EXHF   =         0.00000000
  -V(xc)+E(xc)   XCENC  =      1022.36355592
  PAW double counting   =      9455.23336183    -9546.47664214
  entropy T*S    EENTRO =         0.00000000
  eigenvalues    EBANDS =     -4768.48314500
  atomic energy  EATOM  =     12644.75315347
  Solvation  Ediel_sol  =         0.00000000
  ---------------------------------------------------
  free energy    TOTEN  =      -702.17595837 eV

  energy without entropy =     -702.17595837  energy(sigma->0) =     -702.17595837


--------------------------------------------------------------------------------------------------------




--------------------------------------- Iteration      1(   4)  ---------------------------------------


     EDDAV:  cpu time   12.7241: real time   12.9465
 BZINTS: Fermi energy: -4.690044;303.000000 electrons
         Band energy:***********;  BLOECHL correction: -0.052291
       DOS:  cpu time    0.0116: real time    0.0117
    --------------------------------------------
      LOOP:  cpu time   12.7357: real time   12.9582

 eigenvalue-minimisations  :  4640
 total energy-change (2. order) :-0.1678215E+02  (-0.1663762E+02)
 number of electron     303.0000000 magnetization       2.0000000
 augmentation part      303.0000000 magnetization       2.0000000

 Free energy of the ion-electron system (eV)
  ---------------------------------------------------
  alpha Z        PSCENC =       167.43892633
  Ewald energy   TEWEN  =     28946.90760904
  -Hartree energ DENC   =    -38623.91277784
  -exchange      EXHF   =         0.00000000
  -V(xc)+E(xc)   XCENC  =      1022.36355592
  PAW double counting   =      9455.23336183    -9546.47664214
  entropy T*S    EENTRO =         0.00000000
  eigenvalues    EBANDS =     -4785.26529392
  atomic energy  EATOM  =     12644.75315347
  Solvation  Ediel_sol  =         0.00000000
  ---------------------------------------------------
  free energy    TOTEN  =      -718.95810730 eV

  energy without entropy =     -718.95810730  energy(sigma->0) =     -718.95810730


--------------------------------------------------------------------------------------------------------




--------------------------------------- Iteration      1(   5)  ---------------------------------------


     EDDAV:  cpu time   14.2536: real time   14.5341
 BZINTS: Fermi energy: -4.699495;303.000000 electrons
         Band energy:***********;  BLOECHL correction: -0.051823
       DOS:  cpu time    0.0118: real time    0.0119
    CHARGE:  cpu time    0.1659: real time    0.1698
    MIXING:  cpu time    0.0050: real time    0.0050
    --------------------------------------------
      LOOP:  cpu time   14.4363: real time   14.7209

 eigenvalue-minimisations  :  5240
 total energy-change (2. order) :-0.5454389E+00  (-0.5439178E+00)
 number of electron     302.9999992 magnetization       0.0142203
 augmentation part       12.3991210 magnetization       0.0694445

 Broyden mixing:
  rms(total) = 0.47631E+01    rms(broyden)= 0.47625E+01
  rms(prec ) = 0.55116E+01
  weight for this iteration     100.00

 Free energy of the ion-electron system (eV)
  ---------------------------------------------------
  alpha Z        PSCENC =       167.43892633
  Ewald energy   TEWEN  =     28946.90760904
  -Hartree energ DENC   =    -38623.91277784
  -exchange      EXHF   =         0.00000000
  -V(xc)+E(xc)   XCENC  =      1022.36355592
  PAW double counting   =      9455.23336183    -9546.47664214
  entropy T*S    EENTRO =         0.00000000
  eigenvalues    EBANDS =     -4785.81073285
  atomic energy  EATOM  =     12644.75315347
  Solvation  Ediel_sol  =         0.00000000
  ---------------------------------------------------
  free energy    TOTEN  =      -719.50354623 eV

  energy without entropy =     -719.50354623  energy(sigma->0) =     -719.50354623


--------------------------------------------------------------------------------------------------------




--------------------------------------- Iteration      1(   6)  ---------------------------------------


    POTLOK:  cpu time    0.1404: real time    0.1472
    SETDIJ:  cpu time    0.0088: real time    0.0088
     EDDAV:  cpu time   12.5563: real time   12.7027
 BZINTS: Fermi energy: -5.566756;303.000000 electrons
         Band energy:***********;  BLOECHL correction: -0.016202
       DOS:  cpu time    0.0126: real time    0.0126
    CHARGE:  cpu time    0.2112: real time    0.2193
    MIXING:  cpu time    0.0037: real time    0.0067
    --------------------------------------------
      LOOP:  cpu time   12.9328: real time   13.0973

 eigenvalue-minimisations  :  4888
 total energy-change (2. order) :-0.2250581E+01  (-0.8751987E+01)
 number of electron     303.0000030 magnetization       0.0073569
 augmentation part       18.0009648 magnetization       0.0375802

 Broyden mixing:
  rms(total) = 0.74548E+01    rms(broyden)= 0.74545E+01
  rms(prec ) = 0.85398E+01
  weight for this iteration     100.00

 eigenvalues of (default mixing * dielectric matrix)
  average eigenvalue GAMMA=   0.2796
  0.2796

 Free energy of the ion-electron system (eV)
  ---------------------------------------------------
  alpha Z        PSCENC =       167.43892633
  Ewald energy   TEWEN  =     28946.90760904
  -Hartree energ DENC   =    -38998.07925686
  -exchange      EXHF   =         0.00000000
  -V(xc)+E(xc)   XCENC  =      1035.18579196
  PAW double counting   =     13250.94414365   -13342.21508514
  entropy T*S    EENTRO =         0.00000000
  eigenvalues    EBANDS =     -4426.68940969
  atomic energy  EATOM  =     12644.75315347
  Solvation  Ediel_sol  =         0.00000000
  ---------------------------------------------------
  free energy    TOTEN  =      -721.75412722 eV

  energy without entropy =     -721.75412722  energy(sigma->0) =     -721.75412722


--------------------------------------------------------------------------------------------------------




--------------------------------------- Iteration      1(   7)  ---------------------------------------


    POTLOK:  cpu time    0.1365: real time    0.1433
    SETDIJ:  cpu time    0.0101: real time    0.0101
     EDDAV:  cpu time   13.1219: real time   13.2779
 BZINTS: Fermi energy: -4.472351;303.000000 electrons
         Band energy:***********;  BLOECHL correction: -0.085835
       DOS:  cpu time    0.0109: real time    0.0109
    CHARGE:  cpu time    0.1860: real time    0.1899
    MIXING:  cpu time    0.0039: real time    0.0052
    --------------------------------------------
      LOOP:  cpu time   13.4694: real time   13.6375

 eigenvalue-minimisations  :  4992
 total energy-change (2. order) : 0.4710133E+02  (-0.5867713E+01)
 number of electron     303.0000015 magnetization       0.0590643
 augmentation part       14.6865196 magnetization       0.0525634

 Broyden mixing:
  rms(total) = 0.27256E+01    rms(broyden)= 0.27251E+01
  rms(prec ) = 0.30373E+01
  weight for this iteration     100.00

 eigenvalues of (default mixing * dielectric matrix)
  average eigenvalue GAMMA=   0.6562
  0.9917  0.3207

 Free energy of the ion-electron system (eV)
  ---------------------------------------------------
  alpha Z        PSCENC =       167.43892633
  Ewald energy   TEWEN  =     28946.90760904
  -Hartree energ DENC   =    -39140.22833950
  -exchange      EXHF   =         0.00000000
  -V(xc)+E(xc)   XCENC  =      1039.62196636
  PAW double counting   =     14466.51711498   -14562.27910433
  entropy T*S    EENTRO =         0.00000000
  eigenvalues    EBANDS =     -4237.38412005
  atomic energy  EATOM  =     12644.75315347
  Solvation  Ediel_sol  =         0.00000000
  ---------------------------------------------------
  free energy    TOTEN  =      -674.65279371 eV

  energy without entropy =     -674.65279371  energy(sigma->0) =     -674.65279371


--------------------------------------------------------------------------------------------------------




--------------------------------------- Iteration      1(   8)  ---------------------------------------


    POTLOK:  cpu time    0.1337: real time    0.1359
    SETDIJ:  cpu time    0.0106: real time    0.0106
     EDDAV:  cpu time   13.0901: real time   13.2185
 BZINTS: Fermi energy: -2.351856;303.000000 electrons
         Band energy:***********;  BLOECHL correction: -0.057356
       DOS:  cpu time    0.0109: real time    0.0110
    CHARGE:  cpu time    0.1660: real time    0.1672
    MIXING:  cpu time    0.0039: real time    0.0045
    --------------------------------------------
      LOOP:  cpu time   13.4152: real time   13.5478

 eigenvalue-minimisations  :  5024
 total energy-change (2. order) : 0.2209052E+01  (-0.4796710E+01)
 number of electron     302.9999998 magnetization       0.1037648
 augmentation part       12.1409131 magnetization       0.0510118

 Broyden mixing:
  rms(total) = 0.27198E+01    rms(broyden)= 0.27191E+01
  rms(prec ) = 0.32292E+01
  weight for this iteration     100.00

 eigenvalues of (default mixing * dielectric matrix)
  average eigenvalue GAMMA=   1.0883
  2.4790  0.3929  0.3929

 Free energy of the ion-electron system (eV)
  ---------------------------------------------------
  alpha Z        PSCENC =       167.43892633
  Ewald energy   TEWEN  =     28946.90760904
  -Hartree energ DENC   =    -39426.41597550
  -exchange      EXHF   =         0.00000000
  -V(xc)+E(xc)   XCENC  =      1049.16141701
  PAW double counting   =     18029.48618553   -18128.50688019
  entropy T*S    EENTRO =         0.00000000
  eigenvalues    EBANDS =     -3955.26817694
  atomic energy  EATOM  =     12644.75315347
  Solvation  Ediel_sol  =         0.00000000
  ---------------------------------------------------
  free energy    TOTEN  =      -672.44374124 eV

  energy without entropy =     -672.44374124  energy(sigma->0) =     -672.44374124


--------------------------------------------------------------------------------------------------------




--------------------------------------- Iteration      1(   9)  ---------------------------------------


    POTLOK:  cpu time    0.1384: real time    0.1405
    SETDIJ:  cpu time    0.0104: real time    0.0105
     EDDAV:  cpu time   12.3207: real time   12.4303
 BZINTS: Fermi energy: -2.691163;303.000000 electrons
         Band energy:***********;  BLOECHL correction: -0.080481
       DOS:  cpu time    0.0112: real time    0.0112
    CHARGE:  cpu time    0.1652: real time    0.1662
    MIXING:  cpu time    0.0035: real time    0.0036
    --------------------------------------------
      LOOP:  cpu time   12.6494: real time   12.7623

 eigenvalue-minimisations  :  4584
 total energy-change (2. order) : 0.9063144E+01  (-0.2503601E+01)
 number of electron     303.0000023 magnetization       0.0205335
 augmentation part       14.4857311 magnetization      -0.0027296

 Broyden mixing:
  rms(total) = 0.15946E+01    rms(broyden)= 0.15933E+01
  rms(prec ) = 0.19573E+01
  weight for this iteration     100.00

 eigenvalues of (default mixing * dielectric matrix)
  average eigenvalue GAMMA=   1.2697
  3.2704  1.0897  0.3594  0.3594

 Free energy of the ion-electron system (eV)
  ---------------------------------------------------
  alpha Z        PSCENC =       167.43892633
  Ewald energy   TEWEN  =     28946.90760904
  -Hartree energ DENC   =    -39861.09109711
  -exchange      EXHF   =         0.00000000
  -V(xc)+E(xc)   XCENC  =      1064.96108810
  PAW double counting   =     26046.11444229   -26148.58069372
  entropy T*S    EENTRO =         0.00000000
  eigenvalues    EBANDS =     -3523.88402524
  atomic energy  EATOM  =     12644.75315347
  Solvation  Ediel_sol  =         0.00000000
  ---------------------------------------------------
  free energy    TOTEN  =      -663.38059683 eV

  energy without entropy =     -663.38059683  energy(sigma->0) =     -663.38059683


--------------------------------------------------------------------------------------------------------




--------------------------------------- Iteration      1(  10)  ---------------------------------------


    POTLOK:  cpu time    0.1477: real time    0.1500
    SETDIJ:  cpu time    0.0101: real time    0.0102
     EDDAV:  cpu time   13.1458: real time   13.3581
 BZINTS: Fermi energy: -1.238210;303.000000 electrons
         Band energy:***********;  BLOECHL correction: -0.064663
       DOS:  cpu time    0.0118: real time    0.0119
    CHARGE:  cpu time    0.1627: real time    0.1633
    MIXING:  cpu time    0.0039: real time    0.0039
    --------------------------------------------
      LOOP:  cpu time   13.4820: real time   13.6973

 eigenvalue-minimisations  :  5128
 total energy-change (2. order) : 0.2440925E+00  (-0.1399525E+01)
 number of electron     303.0000012 magnetization      -0.1318235
 augmentation part       12.5062883 magnetization      -0.0914803

 Broyden mixing:
  rms(total) = 0.11993E+01    rms(broyden)= 0.11980E+01
  rms(prec ) = 0.14653E+01
  weight for this iteration     100.00

 eigenvalues of (default mixing * dielectric matrix)
  average eigenvalue GAMMA=   1.3112
  3.4757  1.4949  0.8855  0.3499  0.3499

 Free energy of the ion-electron system (eV)
  ---------------------------------------------------
  alpha Z        PSCENC =       167.43892633
  Ewald energy   TEWEN  =     28946.90760904
  -Hartree energ DENC   =    -39891.39723597
  -exchange      EXHF   =         0.00000000
  -V(xc)+E(xc)   XCENC  =      1066.30045056
  PAW double counting   =     28736.14425891   -28838.90512974
  entropy T*S    EENTRO =         0.00000000
  eigenvalues    EBANDS =     -3494.37853693
  atomic energy  EATOM  =     12644.75315347
  Solvation  Ediel_sol  =         0.00000000
  ---------------------------------------------------
  free energy    TOTEN  =      -663.13650433 eV

  energy without entropy =     -663.13650433  energy(sigma->0) =     -663.13650433


--------------------------------------------------------------------------------------------------------




--------------------------------------- Iteration      1(  11)  ---------------------------------------


    POTLOK:  cpu time    0.1401: real time    0.1425
    SETDIJ:  cpu time    0.0104: real time    0.0104
     EDDAV:  cpu time   12.8875: real time   13.0029
 BZINTS: Fermi energy: -2.474052;303.000000 electrons
         Band energy:***********;  BLOECHL correction: -0.048412
       DOS:  cpu time    0.0114: real time    0.0117
    CHARGE:  cpu time    0.1622: real time    0.1631
    MIXING:  cpu time    0.0038: real time    0.0038
    --------------------------------------------
      LOOP:  cpu time   13.2154: real time   13.3346

 eigenvalue-minimisations  :  4944
 total energy-change (2. order) : 0.6239207E+00  (-0.3799360E+00)
 number of electron     303.0000021 magnetization      -0.3952047
 augmentation part       13.9400700 magnetization      -0.2367891

 Broyden mixing:
  rms(total) = 0.84613E+00    rms(broyden)= 0.84514E+00
  rms(prec ) = 0.10282E+01
  weight for this iteration     100.00

 eigenvalues of (default mixing * dielectric matrix)
  average eigenvalue GAMMA=   1.3063
  3.6009  1.8051  1.2067  0.3485  0.3485  0.5281

 Free energy of the ion-electron system (eV)
  ---------------------------------------------------
  alpha Z        PSCENC =       167.43892633
  Ewald energy   TEWEN  =     28946.90760904
  -Hartree energ DENC   =    -39832.35317371
  -exchange      EXHF   =         0.00000000
  -V(xc)+E(xc)   XCENC  =      1064.65685378
  PAW double counting   =     30579.42655262   -30681.14526758
  entropy T*S    EENTRO =         0.00000000
  eigenvalues    EBANDS =     -3552.19723756
  atomic energy  EATOM  =     12644.75315347
  Solvation  Ediel_sol  =         0.00000000
  ---------------------------------------------------
  free energy    TOTEN  =      -662.51258359 eV

  energy without entropy =     -662.51258359  energy(sigma->0) =     -662.51258359


--------------------------------------------------------------------------------------------------------




--------------------------------------- Iteration      1(  12)  ---------------------------------------


    POTLOK:  cpu time    0.1381: real time    0.1404
    SETDIJ:  cpu time    0.0089: real time    0.0096
     EDDAV:  cpu time   13.4799: real time   13.5929
 BZINTS: Fermi energy: -2.137034;303.000000 electrons
         Band energy:***********;  BLOECHL correction:  0.000000
       DOS:  cpu time    0.0082: real time    0.0083
    CHARGE:  cpu time    0.1616: real time    0.1633
    MIXING:  cpu time    0.0039: real time    0.0039
    --------------------------------------------
      LOOP:  cpu time   13.8006: real time   13.9184

 eigenvalue-minimisations  :  5056
 total energy-change (2. order) : 0.1806850E+00  (-0.8495556E-01)
 number of electron     303.0000018 magnetization      -0.0410406
 augmentation part       13.5399605 magnetization       0.3833489

 Broyden mixing:
  rms(total) = 0.56001E+00    rms(broyden)= 0.55936E+00
  rms(prec ) = 0.58504E+00
  weight for this iteration     100.00

 eigenvalues of (default mixing * dielectric matrix)
  average eigenvalue GAMMA=   1.3376
  3.7752  2.3464  1.0179  0.6992  0.3482  0.3482  0.8283

 Free energy of the ion-electron system (eV)
  ---------------------------------------------------
  alpha Z        PSCENC =       167.43892633
  Ewald energy   TEWEN  =     28946.90760904
  -Hartree energ DENC   =    -39807.02445085
  -exchange      EXHF   =         0.00000000
  -V(xc)+E(xc)   XCENC  =      1063.95628696
  PAW double counting   =     31567.46663933   -31668.77522379
  entropy T*S    EENTRO =         0.00000000
  eigenvalues    EBANDS =     -3577.05483909
  atomic energy  EATOM  =     12644.75315347
  Solvation  Ediel_sol  =         0.00000000
  ---------------------------------------------------
  free energy    TOTEN  =      -662.33189859 eV

  energy without entropy =     -662.33189859  energy(sigma->0) =     -662.33189859


--------------------------------------------------------------------------------------------------------




--------------------------------------- Iteration      1(  13)  ---------------------------------------


    POTLOK:  cpu time    0.1855: real time    0.1881
    SETDIJ:  cpu time    0.0103: real time    0.0103
     EDDAV:  cpu time   12.7306: real time   12.8580
 BZINTS: Fermi energy: -2.041854;303.000000 electrons
         Band energy:***********;  BLOECHL correction:  0.000000
       DOS:  cpu time    0.0056: real time    0.0056
    CHARGE:  cpu time    0.1640: real time    0.1648
    MIXING:  cpu time    0.0040: real time    0.0041
    --------------------------------------------
      LOOP:  cpu time   13.1000: real time   13.2310

 eigenvalue-minimisations  :  4824
 total energy-change (2. order) : 0.2456142E+00  (-0.1209127E-01)
 number of electron     303.0000015 magnetization      -0.2729973
 augmentation part       13.3210700 magnetization       0.2813725

 Broyden mixing:
  rms(total) = 0.61978E+00    rms(broyden)= 0.61971E+00
  rms(prec ) = 0.62479E+00
  weight for this iteration     100.00

 eigenvalues of (default mixing * dielectric matrix)
  average eigenvalue GAMMA=   1.2482
  3.8102  2.4203  1.0363  0.7127  0.3482  0.3482  0.6550  0.6550

 Free energy of the ion-electron system (eV)
  ---------------------------------------------------
  alpha Z        PSCENC =       167.43892633
  Ewald energy   TEWEN  =     28946.90760904
  -Hartree energ DENC   =    -39802.82752216
  -exchange      EXHF   =         0.00000000
  -V(xc)+E(xc)   XCENC  =      1063.81540024
  PAW double counting   =     31680.17824289   -31781.44007303
  entropy T*S    EENTRO =         0.00000000
  eigenvalues    EBANDS =     -3580.91202121
  atomic energy  EATOM  =     12644.75315347
  Solvation  Ediel_sol  =         0.00000000
  ---------------------------------------------------
  free energy    TOTEN  =      -662.08628442 eV

  energy without entropy =     -662.08628442  energy(sigma->0) =     -662.08628442


--------------------------------------------------------------------------------------------------------




--------------------------------------- Iteration      1(  14)  ---------------------------------------


    POTLOK:  cpu time    0.1362: real time    0.1384
    SETDIJ:  cpu time    0.0098: real time    0.0102
     EDDAV:  cpu time   12.7435: real time   12.8466
 BZINTS: Fermi energy: -2.102021;303.000000 electrons
         Band energy:***********;  BLOECHL correction:  0.000000
       DOS:  cpu time    0.0070: real time    0.0072
    CHARGE:  cpu time    0.1636: real time    0.1644
    MIXING:  cpu time    0.0041: real time    0.0042
    --------------------------------------------
      LOOP:  cpu time   13.0642: real time   13.1709

 eigenvalue-minimisations  :  4784
 total energy-change (2. order) :-0.2695419E+00  (-0.1078851E-01)
 number of electron     303.0000013 magnetization      -0.4348725
 augmentation part       13.3004049 magnetization      -0.0720389

 Broyden mixing:
  rms(total) = 0.52203E+00    rms(broyden)= 0.52194E+00
  rms(prec ) = 0.53333E+00
  weight for this iteration     100.00

 eigenvalues of (default mixing * dielectric matrix)
  average eigenvalue GAMMA=   1.2506
  3.8276  2.3276  1.1319  1.1319  1.0444  0.6894  0.3480  0.3480  0.4069

 Free energy of the ion-electron system (eV)
  ---------------------------------------------------
  alpha Z        PSCENC =       167.43892633
  Ewald energy   TEWEN  =     28946.90760904
  -Hartree energ DENC   =    -39797.05417367
  -exchange      EXHF   =         0.00000000
  -V(xc)+E(xc)   XCENC  =      1063.66124722
  PAW double counting   =     31786.09758072   -31887.24343666
  entropy T*S    EENTRO =         0.00000000
  eigenvalues    EBANDS =     -3586.91673281
  atomic energy  EATOM  =     12644.75315347
  Solvation  Ediel_sol  =         0.00000000
  ---------------------------------------------------
  free energy    TOTEN  =      -662.35582634 eV

  energy without entropy =     -662.35582634  energy(sigma->0) =     -662.35582634


--------------------------------------------------------------------------------------------------------




--------------------------------------- Iteration      1(  15)  ---------------------------------------


    POTLOK:  cpu time    0.1387: real time    0.1409
    SETDIJ:  cpu time    0.0082: real time    0.0083
     EDDAV:  cpu time   12.5904: real time   12.7384
 BZINTS: Fermi energy: -2.097024;303.000000 electrons
         Band energy:***********;  BLOECHL correction:  0.000000
       DOS:  cpu time    0.0074: real time    0.0074
    CHARGE:  cpu time    0.1890: real time    0.1896
    MIXING:  cpu time    0.0041: real time    0.0041
    --------------------------------------------
      LOOP:  cpu time   12.9377: real time   13.0887

 eigenvalue-minimisations  :  4832
 total energy-change (2. order) :-0.1506222E+00  (-0.8142605E-02)
 number of electron     303.0000015 magnetization      -0.7405415
 augmentation part       13.4018427 magnetization      -0.5557353

 Broyden mixing:
  rms(total) = 0.39196E+00    rms(broyden)= 0.39187E+00
  rms(prec ) = 0.39459E+00
  weight for this iteration     100.00

 eigenvalues of (default mixing * dielectric matrix)
  average eigenvalue GAMMA=   1.2932
  3.8046  2.3439  1.6265  1.6265  1.0608  0.7105  0.3482  0.3482  0.5315  0.5315

 Free energy of the ion-electron system (eV)
  ---------------------------------------------------
  alpha Z        PSCENC =       167.43892633
  Ewald energy   TEWEN  =     28946.90760904
  -Hartree energ DENC   =    -39801.23560954
  -exchange      EXHF   =         0.00000000
  -V(xc)+E(xc)   XCENC  =      1063.87254299
  PAW double counting   =     31827.93253748   -31929.03336033
  entropy T*S    EENTRO =         0.00000000
  eigenvalues    EBANDS =     -3583.14224801
  atomic energy  EATOM  =     12644.75315347
  Solvation  Ediel_sol  =         0.00000000
  ---------------------------------------------------
  free energy    TOTEN  =      -662.50644856 eV

  energy without entropy =     -662.50644856  energy(sigma->0) =     -662.50644856


--------------------------------------------------------------------------------------------------------




--------------------------------------- Iteration      1(  16)  ---------------------------------------


    POTLOK:  cpu time    0.1379: real time    0.1405
    SETDIJ:  cpu time    0.0524: real time    0.0533
     EDDAV:  cpu time   13.1302: real time   13.2319
 BZINTS: Fermi energy: -2.102021;303.000000 electrons
         Band energy:***********;  BLOECHL correction:  0.000000
       DOS:  cpu time    0.0068: real time    0.0068
    CHARGE:  cpu time    0.1648: real time    0.1700
    MIXING:  cpu time    0.0044: real time    0.0051
    --------------------------------------------
      LOOP:  cpu time   13.4965: real time   13.6076

 eigenvalue-minimisations  :  4864
 total energy-change (2. order) :-0.1269267E+00  (-0.1588662E-01)
 number of electron     303.0000014 magnetization      -1.0425436
 augmentation part       13.4135396 magnetization      -1.0664499

 Broyden mixing:
  rms(total) = 0.20419E+00    rms(broyden)= 0.20403E+00
  rms(prec ) = 0.20810E+00
  weight for this iteration     100.00

 eigenvalues of (default mixing * dielectric matrix)
  average eigenvalue GAMMA=   1.3415
  3.8033  2.3924  1.9718  1.9718  1.0501  0.7827  0.7827  0.3481  0.3481  0.6530
  0.6530

 Free energy of the ion-electron system (eV)
  ---------------------------------------------------
  alpha Z        PSCENC =       167.43892633
  Ewald energy   TEWEN  =     28946.90760904
  -Hartree energ DENC   =    -39801.62946708
  -exchange      EXHF   =         0.00000000
  -V(xc)+E(xc)   XCENC  =      1064.09365917
  PAW double counting   =     31821.02945324   -31922.06300967
  entropy T*S    EENTRO =         0.00000000
  eigenvalues    EBANDS =     -3583.16369981
  atomic energy  EATOM  =     12644.75315347
  Solvation  Ediel_sol  =         0.00000000
  ---------------------------------------------------
  free energy    TOTEN  =      -662.63337529 eV

  energy without entropy =     -662.63337529  energy(sigma->0) =     -662.63337529


[...]
   0.156E+02 -.662E+01 0.777E+01   -.161E+02 0.704E+01 -.777E+01   0.481E+00 -.413E+00 -.124E-01   -.574E-02 -.231E-03 -.190E-02
   0.286E+02 0.155E+02 0.191E+02   -.258E+02 -.158E+02 -.195E+02   -.278E+01 0.382E+00 0.441E+00   -.299E-01 -.125E-01 -.142E-01
   0.250E+02 -.411E+02 0.173E+02   -.232E+02 0.475E+02 -.175E+02   -.174E+01 -.637E+01 0.320E+00   -.255E-01 0.567E-02 -.112E-01
   -.353E+02 0.116E+02 0.182E+02   0.349E+02 -.122E+02 -.191E+02   0.377E+00 0.617E+00 0.908E+00   0.299E-01 -.105E-01 -.132E-01
   -.352E+02 -.131E+02 0.167E+02   0.348E+02 0.137E+02 -.177E+02   0.361E+00 -.558E+00 0.101E+01   0.295E-01 0.112E-01 -.128E-01
   -.900E+01 0.132E+01 0.452E+01   0.892E+01 -.135E+01 -.445E+01   0.550E-01 -.141E-01 -.389E-01   0.712E-02 -.692E-04 -.244E-02
   -.900E+01 -.192E+01 0.441E+01   0.894E+01 0.191E+01 -.434E+01   0.610E-01 0.244E-01 -.452E-01   0.694E-02 0.321E-03 -.241E-02
   -.414E+01 -.493E+01 0.810E+01   0.402E+01 0.494E+01 -.816E+01   0.108E+00 -.595E-01 0.772E-01   0.230E-02 0.683E-03 -.111E-02
   -.253E+01 -.421E+01 0.758E+01   0.249E+01 0.428E+01 -.755E+01   0.560E-01 -.479E-01 -.106E-01   0.335E-03 0.132E-02 -.859E-03
   0.783E+01 -.619E+01 0.505E+01   -.813E+01 0.643E+01 -.507E+01   0.274E+00 -.289E+00 -.147E-01   -.957E-03 -.671E-03 -.100E-02
   0.424E+01 -.622E+01 0.509E+01   -.422E+01 0.643E+01 -.508E+01   0.162E-01 -.183E+00 -.254E-01   -.168E-02 -.924E-03 -.852E-03
   0.170E+02 -.185E+02 0.142E+02   -.175E+02 0.192E+02 -.144E+02   0.401E+00 -.675E+00 0.245E+00   -.926E-02 0.217E-02 -.328E-02
   0.792E+01 -.159E+02 0.852E+01   -.763E+01 0.164E+02 -.845E+01   -.268E+00 -.573E+00 -.741E-01   -.442E-02 0.231E-02 -.220E-02
   -.790E+01 -.471E+02 0.121E+02   0.151E+02 0.437E+02 -.107E+02   -.712E+01 0.339E+01 -.135E+01   -.405E-01 0.378E-01 -.260E-01
   0.284E-01 -.214E+02 0.605E+01   0.275E+00 0.205E+02 -.620E+01   -.275E+00 0.915E+00 0.150E+00   -.108E-01 0.161E-01 -.686E-02
   0.295E+01 -.451E+02 0.447E+02   -.910E+01 0.419E+02 -.442E+02   0.609E+01 0.304E+01 -.507E+00   0.372E-01 0.450E-01 -.280E-01
   -.187E+01 -.261E+02 0.185E+02   0.157E+01 0.255E+02 -.187E+02   0.287E+00 0.617E+00 0.234E+00   0.937E-02 0.174E-01 -.786E-02
   -.166E+02 -.861E+01 0.165E+01   0.165E+02 0.854E+01 -.161E+01   0.120E+00 0.448E-02 -.296E-01   0.104E-01 0.483E-02 -.427E-02
   -.811E+01 -.130E+02 0.697E+01   0.794E+01 0.130E+02 -.698E+01   0.160E+00 -.574E-01 0.127E-01   0.647E-02 0.525E-02 -.258E-02
   -.330E+01 -.446E+01 0.824E+01   0.326E+01 0.447E+01 -.827E+01   0.272E-01 -.471E-01 0.311E-01   0.287E-02 0.251E-02 -.114E-02
   -.227E+01 -.367E+01 0.830E+01   0.232E+01 0.372E+01 -.832E+01   -.130E-01 -.192E-01 0.208E-01   0.701E-03 -.177E-03 -.811E-03
   0.202E+00 -.271E+01 0.691E+01   -.223E+00 0.280E+01 -.693E+01   0.376E-01 -.129E+00 0.334E-01   -.957E-03 -.289E-04 -.651E-03
   0.393E+00 -.166E+01 0.670E+01   -.363E+00 0.175E+01 -.669E+01   -.313E-01 -.750E-01 -.154E-01   -.636E-03 -.402E-03 -.668E-03
   0.255E+01 -.616E+01 0.640E+01   -.257E+01 0.628E+01 -.643E+01   -.214E-01 -.116E+00 0.102E-01   -.265E-02 0.671E-03 -.111E-02
   0.297E+01 -.458E+01 0.678E+01   -.300E+01 0.472E+01 -.679E+01   0.462E-01 -.101E+00 0.300E-02   -.147E-02 0.931E-03 -.845E-03
   -.124E+01 -.135E+02 0.936E+01   0.185E+01 0.133E+02 -.940E+01   -.597E+00 0.127E+00 0.635E-01   -.527E-02 0.645E-02 -.270E-02
   0.337E+01 -.616E+01 0.934E+01   -.326E+01 0.608E+01 -.939E+01   -.741E-01 0.107E+00 0.648E-01   -.114E-02 0.314E-02 -.138E-02
   0.342E+01 -.138E+02 0.674E+01   -.356E+01 0.132E+02 -.641E+01   0.110E+00 0.541E+00 -.322E+00   -.100E-04 0.158E-01 -.537E-02
   -.104E+01 -.941E+01 0.761E+01   0.102E+01 0.908E+01 -.764E+01   0.268E-01 0.378E+00 0.296E-01   0.305E-03 0.702E-02 -.211E-02
   -.128E+01 -.113E+02 0.116E+02   0.870E+00 0.111E+02 -.117E+02   0.378E+00 0.164E+00 0.160E+00   0.591E-02 0.735E-02 -.297E-02
   -.349E+01 -.743E+01 0.783E+01   0.341E+01 0.736E+01 -.784E+01   0.700E-01 0.970E-01 0.798E-02   0.199E-02 0.462E-02 -.149E-02
   -.694E+01 -.813E+01 -.627E+03   0.218E+01 0.811E+01 0.608E+03   0.489E+01 0.190E-01 0.185E+02   0.243E-02 -.132E-02 -.456E-01
   -.641E+02 -.144E+03 0.107E+03   0.714E+02 0.161E+03 -.126E+03   -.774E+01 -.175E+02 0.204E+02   0.276E-04 0.255E-03 0.421E-02
   0.553E+02 0.126E+03 -.139E+03   -.709E+02 -.162E+03 0.180E+03   0.162E+02 0.365E+02 -.426E+02   0.171E-03 0.705E-03 0.246E-02
 -----------------------------------------------------------------------------------------------
   -.106E+02 -.179E+02 0.428E+01   -.142E-13 -.540E-12 0.568E-13   0.106E+02 0.179E+02 -.395E+01   0.789E-02 -.227E-02 -.326E+00
 
 
 POSITION                                       TOTAL-FORCE (eV/Angst)
 -----------------------------------------------------------------------------------
      0.00190      0.00845      7.25576        -0.027293     -0.039868     -0.004693
      0.00152      1.43014      7.25399         0.018229      0.023157     -0.000430
      2.47998      0.03345      7.25199        -0.001645     -0.063692      0.001339
      2.47891      1.45442      7.26507         0.011663      0.037087      0.002142
      4.95190      0.02702      7.25451         0.007843     -0.040762     -0.000530
      4.95021      1.44996      7.26493        -0.013027      0.021731     -0.003554
      0.00434     12.72993      7.25533        -0.010334     -0.015843      0.005348
      7.43187      1.41413      7.25592        -0.015972      0.013896     -0.003050
      2.47767     12.70779      7.26506        -0.014828      0.009399     -0.000132
      9.90707      1.39196      7.25141         0.021624      0.051964      0.006284
      4.95065     12.71714      7.26427        -0.017818     -0.011958     -0.003917
     12.37960      1.40095      7.25494         0.043361      0.031875     -0.004209
     13.61533      2.12526      7.25673        -0.020934     -0.028973     -0.010256
     -1.24726      3.53838      7.26438         0.008470     -0.000044     -0.013868
      1.23961      2.15736      7.26277         0.019449     -0.043536      0.012915
      1.24005      3.57991      7.29268         0.017538      0.057065      0.023517
      3.71170      2.18061      7.28277        -0.021045     -0.073290      0.002764
      3.70879      3.60386      7.33128        -0.044343      0.034510      0.015377
      6.19442      2.13956      7.26689        -0.008040     -0.024221     -0.010468
      6.19510      3.56162      7.28460        -0.003452      0.028641     -0.007100
      8.67404      2.10972      7.25174        -0.004197     -0.043208      0.006925
      8.67683      3.52839      7.26047         0.010414      0.041988      0.000826
     11.14200      2.10667      7.25180        -0.012899     -0.034055      0.003972
     11.14118      3.52601      7.25402         0.039143      0.034542     -0.002363
     12.37417      4.24178      7.26209         0.015841     -0.002376     -0.022453
     -2.48495      5.65145      7.26554         0.005161      0.067200     -0.025501
     -0.01081      4.25711      7.28291         0.003376      0.006723      0.017944
     -0.03316      5.66949      7.29466        -0.029034     -0.013775      0.026706
      2.46444      4.34176      7.36633        -0.001511     -0.092386     -0.005983
      2.42124      5.76347      7.49649        -0.006751      0.086346     -0.028168
      4.95734      4.29956      7.32323        -0.010319     -0.006038      0.001261
      4.99733      5.70737      7.39350        -0.033642      0.057207     -0.025127
      7.44528      4.24459      7.28644        -0.015503     -0.012222     -0.010858
      7.46808      5.66014      7.31851         0.025499      0.031755      0.002255
      9.91088      4.23762      7.25724        -0.018311      0.001209      0.012832
      9.91782      5.66009      7.26504         0.026562      0.053064      0.014189
     -3.71230      6.36733      7.26284        -0.017207     -0.033315     -0.006880
     -3.71549      7.78760      7.26315         0.008142      0.014097     -0.006675
     -1.26159      6.37211      7.27651        -0.012096     -0.008974     -0.015432
     -1.27134      7.78922      7.27904         0.062938      0.007659     -0.019241
      1.16062      6.36548      7.36803         0.037834      0.000544      0.053433
      1.17869      7.77075      7.36318         0.015709      0.004851      0.036944
      6.24575      6.36682      7.35861         0.003943      0.023573     -0.014184
      6.24562      7.80018      7.36237        -0.016819     -0.022936     -0.017636
      8.69628      6.37503      7.29249        -0.008495     -0.043039      0.019656
      8.69546      7.79553      7.29336         0.012924      0.018223      0.021566
     -4.94102      8.50257      7.26431        -0.010076     -0.050833      0.021213
     -4.94557      9.92530      7.25687         0.011734      0.028127      0.013550
     -2.48946      8.50315      7.26832        -0.025292     -0.050378     -0.032480
     -2.48154      9.92371      7.26269         0.029405      0.018910     -0.016343
     -0.03626      8.48262      7.29467        -0.070641     -0.022789      0.019897
     -0.00939      9.90116      7.28461         0.013757     -0.003565     -0.000021
      2.43676      8.38495      7.46761        -0.003431     -0.042588      0.009049
      2.47439      9.81973      7.36194         0.030943      0.048875     -0.004158
      4.99895      8.46110      7.39713        -0.040213     -0.058254     -0.054344
      4.95997      9.86742      7.32389        -0.016407      0.033592     -0.002446
      7.46825      8.50963      7.32365         0.026434     -0.059131      0.001899
      7.44703      9.92414      7.28881        -0.011092      0.013835     -0.005136
     -6.17913     10.63418      7.26081        -0.009347     -0.034006      0.002696
     -6.18370     12.05312      7.25204         0.032823      0.030276      0.003257
     -3.71362     10.63848      7.25326         0.015844     -0.039412      0.005736
     -3.71379     12.05851      7.25183        -0.000956      0.014907      0.000490
     -1.24272     10.62171      7.26544        -0.041288     -0.001501     -0.017200
     -1.24211     12.04234      7.25663         0.009627      0.039744     -0.000903
      1.24404     10.57364      7.29614         0.009073     -0.032742      0.013355
      1.24153     12.00223      7.26583         0.039219      0.027205      0.009469
      3.70933     10.56468      7.32789        -0.032554     -0.037864      0.012254
      3.71228     11.98658      7.28113        -0.000475      0.048764     -0.001107
      6.19699     10.60534      7.28519        -0.024170      0.001515      0.005132
      6.19481     12.02787      7.26647        -0.011767      0.036872     -0.007469
      3.81721      7.07948      8.11755         0.049208     -0.011421      0.005697
      3.81721      7.07948     14.09755        -0.489649     -1.108806      1.269552
      3.49619      6.35364     14.94288         0.489141      1.106874     -1.277123
 -----------------------------------------------------------------------------------
    total drift:                                0.003405      0.001797      0.003469


--------------------------------------------------------------------------------------------------------



  FREE ENERGIE OF THE ION-ELECTRON SYSTEM (eV)
  ---------------------------------------------------
  free  energy   TOTEN  =      -669.07866152 eV

  energy  without entropy=     -669.07866152  energy(sigma->0) =     -669.07866152
 


--------------------------------------------------------------------------------------------------------


    POTLOK:  cpu time    0.2111: real time    0.2118


--------------------------------------------------------------------------------------------------------


 stress matrix after NEB project (eV)
     -2.96999     -0.73711      0.44858
     -0.73711     -1.91934      0.89600
      0.44858      0.89600     -4.66888
  FORCES: max atom, RMS     1.759395    0.294569
  FORCE total and by dimension    2.516795    1.277123
  Stress total and by dimension    6.115386    4.668882
     LOOP+:  cpu time  362.5101: real time  366.8501
    4ORBIT:  cpu time    0.0000: real time    0.0000
 


 total charge     
 
# of ion       s       p       d       tot
------------------------------------------
    1        0.864   1.782   0.000   2.646
    2        0.864   1.780   0.000   2.645
    3        0.864   1.784   0.000   2.649
    4        0.864   1.784   0.000   2.648
    5        0.864   1.783   0.000   2.646
    6        0.863   1.780   0.000   2.643
    7        0.864   1.780   0.000   2.643
    8        0.864   1.781   0.000   2.645
    9        0.864   1.785   0.000   2.650
   10        0.864   1.784   0.000   2.648
   11        0.863   1.781   0.000   2.644
   12        0.864   1.782   0.000   2.645
   13        0.864   1.786   0.000   2.650
   14        0.864   1.789   0.000   2.653
   15        0.862   1.782   0.000   2.644
   16        0.864   1.770   0.000   2.634
   17        0.862   1.770   0.000   2.632
   18        0.861   1.769   0.000   2.630
   19        0.864   1.782   0.000   2.646
   20        0.864   1.774   0.000   2.638
   21        0.866   1.790   0.000   2.655
   22        0.866   1.790   0.000   2.657
   23        0.865   1.788   0.000   2.654
   24        0.866   1.790   0.000   2.656
   25        0.866   1.796   0.000   2.662
   26        0.867   1.796   0.000   2.663
   27        0.865   1.798   0.000   2.663
   28        0.862   1.777   0.000   2.639
   29        0.857   1.752   0.000   2.609
   30        0.867   1.626   0.000   2.494
   31        0.864   1.771   0.000   2.635
   32        0.877   1.701   0.000   2.578
   33        0.867   1.791   0.000   2.658
   34        0.870   1.802   0.000   2.672
   35        0.866   1.791   0.000   2.657
   36        0.867   1.795   0.000   2.663
   37        0.867   1.795   0.000   2.661
   38        0.868   1.795   0.000   2.663
   39        0.866   1.809   0.000   2.675
   40        0.870   1.803   0.000   2.672
   41        1.225   2.713   0.000   3.938
   42        0.867   1.764   0.000   2.631
   43        0.874   1.787   0.000   2.660
   44        0.874   1.785   0.000   2.659
   45        0.867   1.798   0.000   2.665
   46        0.868   1.797   0.000   2.665
   47        0.868   1.798   0.000   2.665
   48        0.866   1.789   0.000   2.654
   49        0.868   1.803   0.000   2.671
   50        0.866   1.791   0.000   2.657
   51        0.869   1.809   0.000   2.678
   52        0.865   1.789   0.000   2.654
   53        0.866   1.679   0.000   2.545
   54        0.857   1.738   0.000   2.596
   55        0.877   1.700   0.000   2.577
   56        0.865   1.769   0.000   2.634
   57        0.870   1.803   0.000   2.673
   58        0.867   1.790   0.000   2.657
   59        0.866   1.791   0.000   2.657
   60        0.866   1.786   0.000   2.652
   61        0.866   1.790   0.000   2.655
   62        0.865   1.789   0.000   2.654
   63        0.865   1.788   0.000   2.653
   64        0.865   1.785   0.000   2.650
   65        0.862   1.770   0.000   2.632
   66        0.863   1.776   0.000   2.639
   67        0.863   1.770   0.000   2.633
   68        0.862   1.772   0.000   2.635
   69        0.864   1.776   0.000   2.640
   70        0.864   1.782   0.000   2.646
   71        0.390   6.308   4.289  10.987
   72        1.036   1.403   0.000   2.439
   73        1.637   3.515   0.000   5.152
--------------------------------------------------
tot         64.014 136.665   4.289 204.968
 


 magnetization (x)
 
# of ion       s       p       d       tot
------------------------------------------
    1       -0.000  -0.000   0.000  -0.000
    2        0.000   0.001   0.000   0.001
    3       -0.000  -0.002   0.000  -0.002
    4        0.001   0.015   0.000   0.016
    5       -0.000  -0.002   0.000  -0.002
    6        0.000   0.008   0.000   0.009
    7       -0.000  -0.001   0.000  -0.001
    8        0.000   0.002   0.000   0.002
    9        0.000   0.005   0.000   0.005
   10        0.000   0.003   0.000   0.003
   11        0.000   0.004   0.000   0.004
   12        0.000   0.004   0.000   0.004
   13       -0.000  -0.001   0.000  -0.001
   14        0.000   0.005   0.000   0.005
   15       -0.000  -0.002   0.000  -0.002
   16        0.001   0.015   0.000   0.016
   17       -0.001  -0.006   0.000  -0.007
   18        0.002   0.027   0.000   0.029
   19       -0.000  -0.000   0.000  -0.000
   20        0.001   0.007   0.000   0.008
   21       -0.000  -0.001   0.000  -0.001
   22        0.000   0.006   0.000   0.006
   23        0.000   0.005   0.000   0.005
   24       -0.000  -0.000   0.000  -0.000
   25        0.000   0.005   0.000   0.005
   26        0.000   0.006   0.000   0.006
   27       -0.000   0.000   0.000   0.000
   28        0.000   0.002   0.000   0.002
   29       -0.001  -0.010   0.000  -0.011
   30        0.014   0.089   0.000   0.103
   31       -0.001  -0.010   0.000  -0.012
   32        0.014   0.079   0.000   0.093
   33       -0.000  -0.001   0.000  -0.001
   34        0.000   0.002   0.000   0.002
   35        0.000   0.005   0.000   0.005
   36        0.000   0.004   0.000   0.004
   37       -0.000  -0.001   0.000  -0.001
   38        0.000   0.002   0.000   0.003
   39        0.000   0.003   0.000   0.003
   40        0.000   0.005   0.000   0.005
   41       -0.000   0.016   0.000   0.015
   42       -0.001   0.005   0.000   0.004
   43       -0.001   0.008   0.000   0.008
   44       -0.000   0.013   0.000   0.012
   45        0.000   0.003   0.000   0.003
   46        0.001   0.010   0.000   0.011
   47       -0.000  -0.000   0.000  -0.001
   48        0.001   0.010   0.000   0.011
   49       -0.000   0.000   0.000  -0.000
   50        0.000   0.008   0.000   0.008
   51        0.000   0.000   0.000   0.000
   52        0.000   0.002   0.000   0.002
   53        0.012   0.068   0.000   0.080
   54       -0.001  -0.002   0.000  -0.003
   55        0.014   0.080   0.000   0.094
   56       -0.001  -0.006   0.000  -0.007
   57        0.000   0.000   0.000   0.000
   58       -0.000  -0.001   0.000  -0.001
   59       -0.000   0.001   0.000   0.001
   60        0.000   0.005   0.000   0.005
   61       -0.000  -0.002   0.000  -0.003
   62        0.000   0.007   0.000   0.008
   63       -0.000   0.001   0.000   0.001
   64        0.000   0.004   0.000   0.004
   65        0.001   0.003   0.000   0.004
   66        0.000   0.004   0.000   0.004
   67        0.001   0.019   0.000   0.020
   68       -0.000  -0.003   0.000  -0.003
   69        0.001   0.004   0.000   0.005
   70        0.000   0.004   0.000   0.004
   71       -0.029   0.007  -1.805  -1.826
   72        0.000   0.000   0.000   0.000
   73       -0.000  -0.000   0.000  -0.000
--------------------------------------------------
tot          0.030   0.540  -1.805  -1.235
 
 BZINTS: Fermi energy: -2.102016;303.000000 electrons
         Band energy:***********;  BLOECHL correction:  0.000000

 total amount of memory used by VASP MPI-rank0   115989. kBytes
=======================================================================

   base      :      30000. kBytes
   nonl-proj :      27264. kBytes
   fftplans  :       4700. kBytes
   grid      :      15193. kBytes
   one-center:        217. kBytes
   wavefun   :      38615. kBytes
 
  
  
 General timing and accounting informations for this job:
 ========================================================
  
                  Total CPU time used (sec):      380.751
                            User time (sec):      369.661
                          System time (sec):       11.091
                         Elapsed time (sec):      394.754
  
                   Maximum memory used (kb):      475964.
                   Average memory used (kb):           0.
  
                          Minor page faults:      2008428
                          Major page faults:            0
                 Voluntary context switches:         9760
