       N       E                     dE             d eps       ncg     rms          ort
DAV:   1     0.250876604328E+04    0.25088E+04   -0.11636E+05   768   0.110E+03
DAV:   2    -0.245010002412E+03   -0.27538E+04   -0.26331E+04   768   0.279E+02
DAV:   3    -0.701771073739E+03   -0.45676E+03   -0.45330E+03   768   0.120E+02
DAV:   4    -0.718272191819E+03   -0.16501E+02   -0.16371E+02   768   0.279E+01
DAV:   5    -0.718803944159E+03   -0.53175E+00   -0.53029E+00   768   0.421E+00
SDA:   6    -0.554343683271E+03    0.16446E+03   -0.53029E+00   768   0.498E+03 0.000E+00
CGA:   7    -0.610630605036E+03   -0.56287E+02   -0.27698E+02   768   0.321E+03 0.476E+03
CGA:   8    -0.644531801675E+03   -0.33901E+02   -0.15861E+02   768   0.121E+03 0.278E+03
CGA:   9    -0.653951923774E+03   -0.94201E+01   -0.93639E+01   768   0.294E+02 0.201E+02
CGA:  10    -0.660387829074E+03   -0.64359E+01   -0.64416E+01   768   0.521E+01-0.371E+00
CGA:  11    -0.661768831618E+03   -0.13810E+01   -0.13873E+01   768   0.223E+01-0.731E-01
CGA:  12    -0.662097699776E+03   -0.32887E+00   -0.32672E+00   768   0.122E+01-0.486E-02
CGA:  13    -0.662279184428E+03   -0.18148E+00   -0.18170E+00   768   0.541E+00 0.797E-03
CGA:  14    -0.662390418006E+03   -0.11123E+00   -0.11169E+00   768   0.253E+00-0.142E-01
CGA:  15    -0.662457729675E+03   -0.67312E-01   -0.67420E-01   768   0.131E+00-0.223E-02
CGA:  16    -0.662485016587E+03   -0.27287E-01   -0.27216E-01   768   0.965E-01 0.223E-02
CGA:  17    -0.662498960204E+03   -0.13944E-01   -0.14144E-01   768   0.444E-01 0.966E-03
CGA:  18    -0.662509092044E+03   -0.10132E-01   -0.10125E-01   768   0.200E-01 0.209E-03
CGA:  19    -0.662513540439E+03   -0.44484E-02   -0.44339E-02   768   0.166E-01 0.259E-03
CGA:  20    -0.662516409274E+03   -0.28688E-02   -0.28696E-02   768   0.909E-02 0.881E-04
CGA:  21    -0.662518946885E+03   -0.25376E-02   -0.25164E-02   768   0.599E-02 0.183E-03
CGA:  22    -0.662520425657E+03   -0.14788E-02   -0.14851E-02   768   0.616E-02-0.663E-04
CGA:  23    -0.662521482714E+03   -0.10571E-02   -0.10605E-02   768   0.252E-02 0.466E-04
CGA:  24    -0.662522288463E+03   -0.80575E-03   -0.81445E-03   768   0.156E-02-0.591E-04
CGA:  25    -0.662522599878E+03   -0.31141E-03   -0.31135E-03   768   0.134E-02 0.111E-05
CGA:  26    -0.662522856420E+03   -0.25654E-03   -0.25635E-03   768   0.575E-03-0.110E-04
CGA:  27    -0.662523028352E+03   -0.17193E-03   -0.17194E-03   768   0.422E-03-0.187E-05
CGA:  28    -0.662523104222E+03   -0.75870E-04   -0.75758E-04   768   0.306E-03-0.252E-05
   1 F= -.66904969E+03 E0= -.66903728E+03  d E =-.669050E+03  mag=     1.3065
       N       E                     dE             d eps       ncg     rms          ort
SDA:   1    -0.661210278353E+03    0.13127E+01    0.00000E+00   768   0.444E+01 0.000E+00
CGA:   2    -0.661844140255E+03   -0.63386E+00   -0.63573E+00   768   0.186E+01 0.359E-02
CGA:   3    -0.662197169944E+03   -0.35303E+00   -0.35261E+00   768   0.120E+01-0.172E-01
CGA:   4    -0.662411768567E+03   -0.21460E+00   -0.21501E+00   768   0.452E+00 0.729E-02
CGA:   5    -0.662490703498E+03   -0.78935E-01   -0.78833E-01   768   0.163E+00-0.126E-02
CGA:   6    -0.662519549647E+03   -0.28846E-01   -0.28884E-01   768   0.753E-01 0.677E-03
CGA:   7    -0.662532472283E+03   -0.12923E-01   -0.12908E-01   768   0.388E-01-0.201E-03
CGA:   8    -0.662539184826E+03   -0.67125E-02   -0.67175E-02   768   0.141E-01 0.911E-04
CGA:   9    -0.662542001553E+03   -0.28167E-02   -0.28169E-02   768   0.489E-02-0.170E-04
CGA:  10    -0.662542851218E+03   -0.84967E-03   -0.85000E-03   768   0.204E-02 0.125E-04
CGA:  11    -0.662543168801E+03   -0.31758E-03   -0.31758E-03   768   0.713E-03 0.997E-06
CGA:  12    -0.662543311718E+03   -0.14292E-03   -0.14291E-03   768   0.262E-03 0.141E-05
CGA:  13    -0.662543361192E+03   -0.49473E-04   -0.49466E-04   768   0.157E-03-0.161E-05
   2 F= -.66906947E+03 E0= -.66905725E+03  d E =-.197816E-01  mag=     1.3045
       N       E                     dE             d eps       ncg     rms          ort
SDA:   1    -0.662444474163E+03    0.98838E-01    0.00000E+00   768   0.337E+00 0.000E+00
CGA:   2    -0.662493426563E+03   -0.48952E-01   -0.48943E-01   768   0.142E+00-0.162E-03
CGA:   3    -0.662520600598E+03   -0.27174E-01   -0.27174E-01   768   0.887E-01 0.457E-04
CGA:   4    -0.662536912594E+03   -0.16312E-01   -0.16310E-01   768   0.348E-01-0.185E-03
CGA:   5    -0.662542958113E+03   -0.60455E-02   -0.60459E-02   768   0.118E-01-0.159E-05
CGA:   6    -0.662545219036E+03   -0.22609E-02   -0.22610E-02   768   0.528E-02-0.105E-04
CGA:   7    -0.662546165362E+03   -0.94633E-03   -0.94645E-03   768   0.288E-02 0.745E-05
CGA:   8    -0.662546611172E+03   -0.44581E-03   -0.44556E-03   768   0.112E-02-0.479E-05
CGA:   9    -0.662546822514E+03   -0.21134E-03   -0.21135E-03   768   0.343E-03-0.344E-05
CGA:  10    -0.662546890848E+03   -0.68334E-04   -0.68380E-04   768   0.126E-03-0.342E-05
   3 F= -.66907313E+03 E0= -.66906083E+03  d E =-.234344E-01  mag=     1.3063
       N       E                     dE             d eps       ncg     rms          ort
SDA:   1    -0.662247566653E+03    0.29926E+00    0.00000E+00   768   0.114E+01 0.000E+00
CGA:   2    -0.662397158849E+03   -0.14959E+00   -0.14981E+00   768   0.414E+00 0.792E-03
CGA:   3    -0.662476606557E+03   -0.79448E-01   -0.79485E-01   768   0.289E+00-0.262E-02
CGA:   4    -0.662532362678E+03   -0.55756E-01   -0.55725E-01   768   0.131E+00 0.166E-02
CGA:   5    -0.662555892608E+03   -0.23530E-01   -0.23526E-01   768   0.484E-01-0.338E-03
CGA:   6    -0.662563936607E+03   -0.80440E-02   -0.80485E-02   768   0.195E-01 0.117E-03
CGA:   7    -0.662567075981E+03   -0.31394E-02   -0.31383E-02   768   0.904E-02-0.199E-04
CGA:   8    -0.662568642431E+03   -0.15665E-02   -0.15667E-02   768   0.328E-02 0.173E-04
CGA:   9    -0.662569275693E+03   -0.63326E-03   -0.63326E-03   768   0.113E-02 0.253E-05
CGA:  10    -0.662569464705E+03   -0.18901E-03   -0.18907E-03   768   0.463E-03 0.420E-05
CGA:  11    -0.662569537782E+03   -0.73077E-04   -0.73072E-04   768   0.159E-03-0.115E-06
   4 F= -.66909532E+03 E0= -.66908329E+03  d E =-.221943E-01  mag=     1.2953
       N       E                     dE             d eps       ncg     rms          ort
SDA:   1    -0.659714250878E+03    0.28552E+01    0.00000E+00   768   0.105E+02 0.000E+00
CGA:   2    -0.661056537182E+03   -0.13423E+01   -0.13511E+01   768   0.380E+01 0.114E-02
CGA:   3    -0.661764505067E+03   -0.70797E+00   -0.70944E+00   768   0.278E+01-0.117E+00
CGA:   4    -0.662274824702E+03   -0.51032E+00   -0.50938E+00   768   0.115E+01 0.512E-01
CGA:   5    -0.662492023525E+03   -0.21720E+00   -0.21731E+00   768   0.446E+00-0.111E-01
CGA:   6    -0.662565609138E+03   -0.73586E-01   -0.73681E-01   768   0.174E+00 0.357E-02
CGA:   7    -0.662594447178E+03   -0.28838E-01   -0.28819E-01   768   0.843E-01-0.574E-03
CGA:   8    -0.662608921970E+03   -0.14475E-01   -0.14478E-01   768   0.305E-01 0.311E-03
CGA:   9    -0.662614892670E+03   -0.59707E-02   -0.59734E-02   768   0.108E-01-0.913E-04
CGA:  10    -0.662616717569E+03   -0.18249E-02   -0.18251E-02   768   0.460E-02 0.179E-04
CGA:  11    -0.662617458690E+03   -0.74112E-03   -0.74098E-03   768   0.166E-02-0.424E-05
CGA:  12    -0.662617806999E+03   -0.34831E-03   -0.34835E-03   768   0.753E-03-0.445E-06
CGA:  13    -0.662617953205E+03   -0.14621E-03   -0.14626E-03   768   0.529E-03-0.376E-05
CGA:  14    -0.662618052960E+03   -0.99755E-04   -0.99770E-04   768   0.276E-03-0.113E-05
   5 F= -.66914327E+03 E0= -.66913216E+03  d E =-.701405E-01  mag=     1.2628
       N       E                     dE             d eps       ncg     rms          ort
SDA:   1    -0.650908032505E+03    0.11710E+02    0.00000E+00   768   0.448E+02 0.000E+00
CGA:   2    -0.656267412019E+03   -0.53594E+01   -0.54554E+01   768   0.163E+02-0.369E+00
CGA:   3    -0.659040341712E+03   -0.27729E+01   -0.27551E+01   768   0.120E+02-0.941E+00
CGA:   4    -0.661175139892E+03   -0.21348E+01   -0.21283E+01   768   0.440E+01 0.464E+00
CGA:   5    -0.662093983717E+03   -0.91884E+00   -0.91970E+00   768   0.168E+01-0.258E-01
CGA:   6    -0.662408600666E+03   -0.31462E+00   -0.31444E+00   768   0.570E+00 0.174E-01
CGA:   7    -0.662533069875E+03   -0.12447E+00   -0.12479E+00   768   0.278E+00-0.645E-02
CGA:   8    -0.662579927383E+03   -0.46858E-01   -0.46909E-01   768   0.142E+00 0.188E-02
CGA:   9    -0.662601133317E+03   -0.21206E-01   -0.21158E-01   768   0.473E-01-0.353E-03
CGA:  10    -0.662610360547E+03   -0.92272E-02   -0.92249E-02   768   0.149E-01 0.117E-03
CGA:  11    -0.662613627789E+03   -0.32672E-02   -0.32700E-02   768   0.861E-02-0.574E-04
CGA:  12    -0.662614945906E+03   -0.13181E-02   -0.13172E-02   768   0.455E-02-0.692E-05
CGA:  13    -0.662615996919E+03   -0.10510E-02   -0.10518E-02   768   0.240E-02-0.156E-04
CGA:  14    -0.662616607680E+03   -0.61076E-03   -0.61153E-03   768   0.224E-02-0.751E-05
CGA:  15    -0.662616974694E+03   -0.36701E-03   -0.36690E-03   768   0.121E-02-0.475E-05
CGA:  16    -0.662617296619E+03   -0.32193E-03   -0.32201E-03   768   0.644E-03 0.269E-06
CGA:  17    -0.662617424827E+03   -0.12821E-03   -0.12822E-03   768   0.504E-03-0.141E-05
CGA:  18    -0.662617518782E+03   -0.93954E-04   -0.93959E-04   768   0.197E-03 0.157E-05
   6 F= -.66914616E+03 E0= -.66913470E+03  d E =-.730349E-01  mag=     1.2495
       N       E                     dE             d eps       ncg     rms          ort
SDA:   1    -0.659615359844E+03    0.30021E+01    0.00000E+00   768   0.105E+02 0.000E+00
CGA:   2    -0.661052259923E+03   -0.14369E+01   -0.14403E+01   768   0.378E+01-0.440E-01
CGA:   3    -0.661802834236E+03   -0.75057E+00   -0.75087E+00   768   0.267E+01-0.493E-01
CGA:   4    -0.662306110405E+03   -0.50328E+00   -0.50324E+00   768   0.116E+01-0.148E-01
CGA:   5    -0.662516357870E+03   -0.21025E+00   -0.21016E+00   768   0.395E+00-0.563E-02
CGA:   6    -0.662590777539E+03   -0.74420E-01   -0.74418E-01   768   0.133E+00-0.627E-03
CGA:   7    -0.662618853291E+03   -0.28076E-01   -0.28084E-01   768   0.497E-01-0.302E-03
CGA:   8    -0.662629848701E+03   -0.10995E-01   -0.10993E-01   768   0.173E-01 0.443E-04
CGA:   9    -0.662633119509E+03   -0.32708E-02   -0.32703E-02   768   0.765E-02-0.511E-04
CGA:  10    -0.662634118440E+03   -0.99893E-03   -0.99922E-03   768   0.284E-02-0.160E-05
CGA:  11    -0.662634669729E+03   -0.55129E-03   -0.55130E-03   768   0.832E-03-0.544E-05
CGA:  12    -0.662634882442E+03   -0.21271E-03   -0.21256E-03   768   0.419E-03 0.247E-05
CGA:  13    -0.662634959115E+03   -0.76674E-04   -0.76686E-04   768   0.357E-03 0.689E-06
   7 F= -.66916123E+03 E0= -.66915093E+03  d E =-.880999E-01  mag=     1.2371
       N       E                     dE             d eps       ncg     rms          ort
SDA:   1    -0.662066535548E+03    0.56835E+00    0.00000E+00   768   0.204E+01 0.000E+00
CGA:   2    -0.662340689602E+03   -0.27415E+00   -0.27500E+00   768   0.842E+00-0.213E-03
CGA:   3    -0.662494512031E+03   -0.15382E+00   -0.15369E+00   768   0.580E+00-0.888E-02
CGA:   4    -0.662598274977E+03   -0.10376E+00   -0.10384E+00   768   0.231E+00 0.402E-02
CGA:   5    -0.662638074362E+03   -0.39799E-01   -0.39772E-01   768   0.846E-01-0.524E-03
CGA:   6    -0.662652162972E+03   -0.14089E-01   -0.14104E-01   768   0.375E-01 0.311E-03
CGA:   7    -0.662658465872E+03   -0.63029E-02   -0.63002E-02   768   0.177E-01-0.442E-04
CGA:   8    -0.662661641989E+03   -0.31761E-02   -0.31767E-02   768   0.714E-02 0.504E-04
CGA:   9    -0.662662963675E+03   -0.13217E-02   -0.13217E-02   768   0.270E-02-0.533E-05
CGA:  10    -0.662663381625E+03   -0.41795E-03   -0.41816E-03   768   0.996E-03 0.491E-05
CGA:  11    -0.662663550796E+03   -0.16917E-03   -0.16916E-03   768   0.342E-03-0.711E-06
CGA:  12    -0.662663615509E+03   -0.64713E-04   -0.64708E-04   768   0.157E-03 0.825E-06
   8 F= -.66919105E+03 E0= -.66918063E+03  d E =-.298232E-01  mag=     1.2304
       N       E                     dE             d eps       ncg     rms          ort
SDA:   1    -0.657321176159E+03    0.53424E+01    0.00000E+00   768   0.194E+02 0.000E+00
CGA:   2    -0.659744471978E+03   -0.24233E+01   -0.24465E+01   768   0.803E+01-0.752E-01
CGA:   3    -0.661116065775E+03   -0.13716E+01   -0.13673E+01   768   0.557E+01-0.256E+00
CGA:   4    -0.662107509611E+03   -0.99144E+00   -0.99066E+00   768   0.198E+01 0.133E+00
CGA:   5    -0.662481993951E+03   -0.37448E+00   -0.37460E+00   768   0.722E+00-0.116E-01
CGA:   6    -0.662610668238E+03   -0.12867E+00   -0.12870E+00   768   0.317E+00 0.966E-02
CGA:   7    -0.662663982420E+03   -0.53314E-01   -0.53265E-01   768   0.180E+00-0.130E-02
CGA:   8    -0.662693068475E+03   -0.29086E-01   -0.29114E-01   768   0.664E-01 0.779E-03
CGA:   9    -0.662706709363E+03   -0.13641E-01   -0.13653E-01   768   0.217E-01-0.327E-03
CGA:  10    -0.662710501380E+03   -0.37920E-02   -0.37923E-02   768   0.101E-01 0.415E-04
CGA:  11    -0.662711953023E+03   -0.14516E-02   -0.14509E-02   768   0.367E-02-0.952E-05
CGA:  12    -0.662712727875E+03   -0.77485E-03   -0.77494E-03   768   0.147E-02-0.756E-06
CGA:  13    -0.662713037161E+03   -0.30929E-03   -0.30939E-03   768   0.119E-02-0.405E-05
CGA:  14    -0.662713231955E+03   -0.19479E-03   -0.19473E-03   768   0.574E-03-0.118E-05
CGA:  15    -0.662713395951E+03   -0.16400E-03   -0.16414E-03   768   0.437E-03-0.162E-05
CGA:  16    -0.662713475395E+03   -0.79444E-04   -0.79444E-04   768   0.334E-03 0.101E-05
   9 F= -.66924536E+03 E0= -.66923266E+03  d E =-.841299E-01  mag=     1.2513
       N       E                     dE             d eps       ncg     rms          ort
SDA:   1    -0.661774229065E+03    0.93917E+00    0.00000E+00   768   0.327E+01 0.000E+00
CGA:   2    -0.662204634319E+03   -0.43041E+00   -0.43198E+00   768   0.136E+01-0.176E-02
CGA:   3    -0.662439910206E+03   -0.23528E+00   -0.23491E+00   768   0.955E+00-0.171E-01
CGA:   4    -0.662610369773E+03   -0.17046E+00   -0.17051E+00   768   0.374E+00 0.916E-02
CGA:   5    -0.662674779101E+03   -0.64409E-01   -0.64369E-01   768   0.140E+00-0.120E-02
CGA:   6    -0.662697609619E+03   -0.22831E-01   -0.22856E-01   768   0.632E-01 0.656E-03
CGA:   7    -0.662707666691E+03   -0.10057E-01   -0.10051E-01   768   0.298E-01-0.765E-04
CGA:   8    -0.662712914448E+03   -0.52478E-02   -0.52484E-02   768   0.124E-01 0.931E-04
CGA:   9    -0.662715227168E+03   -0.23127E-02   -0.23129E-02   768   0.507E-02-0.215E-04
CGA:  10    -0.662715965677E+03   -0.73851E-03   -0.73878E-03   768   0.189E-02 0.542E-05
CGA:  11    -0.662716283860E+03   -0.31818E-03   -0.31815E-03   768   0.642E-03-0.189E-05
CGA:  12    -0.662716403438E+03   -0.11958E-03   -0.11957E-03   768   0.327E-03 0.113E-05
CGA:  13    -0.662716456474E+03   -0.53035E-04   -0.53012E-04   768   0.167E-03-0.147E-05
  10 F= -.66925041E+03 E0= -.66923595E+03  d E =-.891802E-01  mag=     1.2856
       N       E                     dE             d eps       ncg     rms          ort
SDA:   1    -0.662060747867E+03    0.65566E+00    0.00000E+00   768   0.204E+01 0.000E+00
CGA:   2    -0.662395085042E+03   -0.33434E+00   -0.33434E+00   768   0.147E+01-0.154E-02
CGA:   3    -0.662610232400E+03   -0.21515E+00   -0.21518E+00   768   0.657E+00-0.969E-03
CGA:   4    -0.662720264866E+03   -0.11003E+00   -0.11008E+00   768   0.159E+00 0.258E-02
CGA:   5    -0.662746322060E+03   -0.26057E-01   -0.26055E-01   768   0.512E-01 0.388E-04
CGA:   6    -0.662755455095E+03   -0.91330E-02   -0.91325E-02   768   0.259E-01 0.168E-03
CGA:   7    -0.662759475953E+03   -0.40209E-02   -0.40207E-02   768   0.135E-01 0.124E-04
CGA:   8    -0.662761902753E+03   -0.24268E-02   -0.24266E-02   768   0.594E-02 0.339E-04
CGA:   9    -0.662763153681E+03   -0.12509E-02   -0.12514E-02   768   0.258E-02-0.103E-04
CGA:  10    -0.662763570687E+03   -0.41701E-03   -0.41709E-03   768   0.138E-02 0.410E-05
CGA:  11    -0.662763789344E+03   -0.21866E-03   -0.21865E-03   768   0.436E-03-0.218E-06
CGA:  12    -0.662763878812E+03   -0.89468E-04   -0.89409E-04   768   0.203E-03 0.200E-05
  11 F= -.66930047E+03 E0= -.66928529E+03  d E =-.500688E-01  mag=     1.3035
       N       E                     dE             d eps       ncg     rms          ort
SDA:   1    -0.658235187396E+03    0.45286E+01    0.00000E+00   768   0.135E+02 0.000E+00
CGA:   2    -0.660347733655E+03   -0.21125E+01   -0.21156E+01   768   0.985E+01 0.310E-01
CGA:   3    -0.661795479998E+03   -0.14477E+01   -0.14473E+01   768   0.433E+01-0.244E-01
CGA:   4    -0.662523147451E+03   -0.72767E+00   -0.72800E+00   768   0.103E+01 0.436E-01
CGA:   5    -0.662696247133E+03   -0.17310E+00   -0.17309E+00   768   0.329E+00 0.738E-03
CGA:   6    -0.662759194409E+03   -0.62947E-01   -0.62874E-01   768   0.159E+00 0.293E-02
CGA:   7    -0.662785926625E+03   -0.26732E-01   -0.26730E-01   768   0.959E-01-0.432E-04
CGA:   8    -0.662801051355E+03   -0.15125E-01   -0.15139E-01   768   0.417E-01 0.469E-03
CGA:   9    -0.662809825665E+03   -0.87743E-02   -0.87790E-02   768   0.149E-01-0.993E-04
CGA:  10    -0.662812774479E+03   -0.29488E-02   -0.29472E-02   768   0.827E-02 0.478E-04
CGA:  11    -0.662813893261E+03   -0.11188E-02   -0.11186E-02   768   0.304E-02-0.390E-05
CGA:  12    -0.662814494009E+03   -0.60075E-03   -0.60063E-03   768   0.101E-02 0.450E-05
CGA:  13    -0.662814693914E+03   -0.19990E-03   -0.19995E-03   768   0.679E-03-0.229E-05
CGA:  14    -0.662814789783E+03   -0.95869E-04   -0.95881E-04   768   0.269E-03 0.850E-06
  12 F= -.66935811E+03 E0= -.66934154E+03  d E =-.107703E+00  mag=     1.3517
       N       E                     dE             d eps       ncg     rms          ort
SDA:   1    -0.662506041959E+03    0.30865E+00    0.00000E+00   768   0.910E+00 0.000E+00
CGA:   2    -0.662669766506E+03   -0.16372E+00   -0.16372E+00   768   0.877E+00-0.318E-03
CGA:   3    -0.662791156251E+03   -0.12139E+00   -0.12150E+00   768   0.262E+00 0.729E-03
CGA:   4    -0.662839863656E+03   -0.48707E-01   -0.48704E-01   768   0.483E-01 0.169E-03
CGA:   5    -0.662848430579E+03   -0.85669E-02   -0.85669E-02   768   0.167E-01 0.210E-04
CGA:   6    -0.662851456782E+03   -0.30262E-02   -0.30261E-02   768   0.582E-02 0.291E-04
CGA:   7    -0.662852660637E+03   -0.12039E-02   -0.12038E-02   768   0.331E-02 0.311E-05
CGA:   8    -0.662853228424E+03   -0.56779E-03   -0.56780E-03   768   0.221E-02 0.567E-06
CGA:   9    -0.662853581735E+03   -0.35331E-03   -0.35321E-03   768   0.800E-03-0.513E-05
CGA:  10    -0.662853771783E+03   -0.19005E-03   -0.19012E-03   768   0.342E-03-0.117E-05
CGA:  11    -0.662853838018E+03   -0.66235E-04   -0.66253E-04   768   0.216E-03-0.142E-05
  13 F= -.66939915E+03 E0= -.66938190E+03  d E =-.410411E-01  mag=     1.3784
       N       E                     dE             d eps       ncg     rms          ort
SDA:   1    -0.662440350244E+03    0.41342E+00    0.00000E+00   768   0.112E+01 0.000E+00
CGA:   2    -0.662646150063E+03   -0.20580E+00   -0.20579E+00   768   0.107E+01 0.140E-02
CGA:   3    -0.662794194309E+03   -0.14804E+00   -0.14815E+00   768   0.323E+00 0.767E-03
CGA:   4    -0.662853883396E+03   -0.59689E-01   -0.59685E-01   768   0.592E-01 0.276E-03
CGA:   5    -0.662864460095E+03   -0.10577E-01   -0.10577E-01   768   0.202E-01 0.150E-04
CGA:   6    -0.662868123334E+03   -0.36632E-02   -0.36631E-02   768   0.746E-02 0.341E-04
CGA:   7    -0.662869581117E+03   -0.14578E-02   -0.14578E-02   768   0.436E-02 0.403E-05
CGA:   8    -0.662870302760E+03   -0.72164E-03   -0.72168E-03   768   0.267E-02 0.185E-05
CGA:   9    -0.662870763780E+03   -0.46102E-03   -0.46099E-03   768   0.963E-03-0.591E-05
CGA:  10    -0.662870996834E+03   -0.23305E-03   -0.23313E-03   768   0.454E-03-0.121E-05
CGA:  11    -0.662871074875E+03   -0.78042E-04   -0.78028E-04   768   0.272E-03-0.158E-05
  14 F= -.66941860E+03 E0= -.66940085E+03  d E =-.604935E-01  mag=     1.4021
       N       E                     dE             d eps       ncg     rms          ort
SDA:   1    -0.662589531614E+03    0.28147E+00    0.00000E+00   768   0.848E+00 0.000E+00
CGA:   2    -0.662746084301E+03   -0.15655E+00   -0.15653E+00   768   0.571E+00 0.178E-02
CGA:   3    -0.662839644058E+03   -0.93560E-01   -0.93466E-01   768   0.312E+00-0.306E-02
CGA:   4    -0.662885383002E+03   -0.45739E-01   -0.45773E-01   768   0.764E-01 0.160E-03
CGA:   5    -0.662897986619E+03   -0.12604E-01   -0.12599E-01   768   0.296E-01-0.168E-03
CGA:   6    -0.662903097873E+03   -0.51113E-02   -0.51117E-02   768   0.147E-01 0.732E-04
CGA:   7    -0.662905498031E+03   -0.24002E-02   -0.23995E-02   768   0.728E-02-0.194E-04
CGA:   8    -0.662906850874E+03   -0.13528E-02   -0.13527E-02   768   0.335E-02 0.988E-05
CGA:   9    -0.662907464874E+03   -0.61400E-03   -0.61410E-03   768   0.142E-02-0.112E-04
CGA:  10    -0.662907689162E+03   -0.22429E-03   -0.22431E-03   768   0.614E-03 0.226E-06
CGA:  11    -0.662907793136E+03   -0.10397E-03   -0.10397E-03   768   0.212E-03-0.685E-06
CGA:  12    -0.662907832498E+03   -0.39362E-04   -0.39347E-04   768   0.110E-03 0.143E-05
  15 F= -.66945612E+03 E0= -.66943881E+03  d E =-.375186E-01  mag=     1.3800
       N       E                     dE             d eps       ncg     rms          ort
SDA:   1    -0.660115780838E+03    0.27920E+01    0.00000E+00   768   0.769E+01 0.000E+00
CGA:   2    -0.661490747115E+03   -0.13750E+01   -0.13745E+01   768   0.519E+01 0.513E-01
CGA:   3    -0.662342049203E+03   -0.85130E+00   -0.84926E+00   768   0.288E+01-0.883E-01
CGA:   4    -0.662764847276E+03   -0.42280E+00   -0.42360E+00   768   0.663E+00 0.832E-02
CGA:   5    -0.662879156033E+03   -0.11431E+00   -0.11429E+00   768   0.258E+00-0.421E-02
CGA:   6    -0.662924240429E+03   -0.45084E-01   -0.45078E-01   768   0.130E+00 0.173E-02
CGA:   7    -0.662945118597E+03   -0.20878E-01   -0.20861E-01   768   0.671E-01-0.495E-03
CGA:   8    -0.662957203730E+03   -0.12085E-01   -0.12081E-01   768   0.286E-01 0.322E-03
CGA:   9    -0.662962787871E+03   -0.55841E-02   -0.55883E-02   768   0.119E-01-0.139E-03
CGA:  10    -0.662964638304E+03   -0.18504E-02   -0.18510E-02   768   0.555E-02 0.140E-04
CGA:  11    -0.662965545589E+03   -0.90729E-03   -0.90717E-03   768   0.174E-02-0.726E-05
CGA:  12    -0.662965891658E+03   -0.34607E-03   -0.34596E-03   768   0.910E-03 0.437E-05
CGA:  13    -0.662966037949E+03   -0.14629E-03   -0.14630E-03   768   0.485E-03 0.272E-06
CGA:  14    -0.662966139794E+03   -0.10185E-03   -0.10177E-03   768   0.277E-03 0.253E-05
CGA:  15    -0.662966206036E+03   -0.66242E-04   -0.66184E-04   768   0.266E-03 0.788E-06
  16 F= -.66951666E+03 E0= -.66950126E+03  d E =-.980583E-01  mag=     1.2866
       N       E                     dE             d eps       ncg     rms          ort
SDA:   1    -0.662702881863E+03    0.26326E+00    0.00000E+00   768   0.702E+00 0.000E+00
CGA:   2    -0.662834313087E+03   -0.13143E+00   -0.13140E+00   768   0.476E+00 0.145E-02
CGA:   3    -0.662911982834E+03   -0.77670E-01   -0.77597E-01   768   0.261E+00-0.229E-02
CGA:   4    -0.662950244007E+03   -0.38261E-01   -0.38286E-01   768   0.647E-01 0.113E-03
CGA:   5    -0.662960780399E+03   -0.10536E-01   -0.10533E-01   768   0.252E-01-0.115E-03
CGA:   6    -0.662965152321E+03   -0.43719E-02   -0.43721E-02   768   0.123E-01 0.521E-04
CGA:   7    -0.662967159053E+03   -0.20067E-02   -0.20063E-02   768   0.622E-02-0.133E-04
CGA:   8    -0.662968313346E+03   -0.11543E-02   -0.11542E-02   768   0.294E-02 0.627E-05
CGA:   9    -0.662968855790E+03   -0.54244E-03   -0.54254E-03   768   0.127E-02-0.952E-05
CGA:  10    -0.662969057498E+03   -0.20171E-03   -0.20171E-03   768   0.565E-03-0.398E-06
CGA:  11    -0.662969154669E+03   -0.97171E-04   -0.97167E-04   768   0.214E-03-0.809E-06
  17 F= -.66952024E+03 E0= -.66950562E+03  d E =-.101634E+00  mag=     1.2502
       N       E                     dE             d eps       ncg     rms          ort
SDA:   1    -0.662105840332E+03    0.86322E+00    0.00000E+00   768   0.239E+01 0.000E+00
CGA:   2    -0.662561546676E+03   -0.45571E+00   -0.45555E+00   768   0.145E+01 0.390E-02
CGA:   3    -0.662832450314E+03   -0.27090E+00   -0.27110E+00   768   0.836E+00-0.146E-01
CGA:   4    -0.662949738934E+03   -0.11729E+00   -0.11751E+00   768   0.227E+00 0.696E-03
CGA:   5    -0.662986148332E+03   -0.36409E-01   -0.36379E-01   768   0.951E-01-0.970E-03
CGA:   6    -0.663001201314E+03   -0.15053E-01   -0.15060E-01   768   0.467E-01 0.167E-03
CGA:   7    -0.663009227950E+03   -0.80266E-02   -0.80257E-02   768   0.221E-01-0.177E-03
CGA:   8    -0.663013452220E+03   -0.42243E-02   -0.42229E-02   768   0.103E-01 0.462E-04
CGA:   9    -0.663015154166E+03   -0.17019E-02   -0.17015E-02   768   0.456E-02-0.255E-04
CGA:  10    -0.663015857128E+03   -0.70296E-03   -0.70311E-03   768   0.164E-02 0.324E-05
CGA:  11    -0.663016154960E+03   -0.29783E-03   -0.29784E-03   768   0.649E-03-0.741E-06
CGA:  12    -0.663016262568E+03   -0.10761E-03   -0.10763E-03   768   0.335E-03 0.241E-05
CGA:  13    -0.663016322599E+03   -0.60031E-04   -0.60028E-04   768   0.167E-03 0.424E-06
  18 F= -.66956775E+03 E0= -.66955418E+03  d E =-.475179E-01  mag=     1.1961
       N       E                     dE             d eps       ncg     rms          ort
SDA:   1    -0.661413790985E+03    0.16025E+01    0.00000E+00   768   0.427E+01 0.000E+00
CGA:   2    -0.662225355497E+03   -0.81156E+00   -0.81115E+00   768   0.261E+01 0.107E-01
CGA:   3    -0.662707767419E+03   -0.48241E+00   -0.48284E+00   768   0.153E+01-0.362E-01
CGA:   4    -0.662920489573E+03   -0.21272E+00   -0.21328E+00   768   0.411E+00 0.167E-02
CGA:   5    -0.662986393783E+03   -0.65904E-01   -0.65835E-01   768   0.175E+00-0.220E-02
CGA:   6    -0.663013670784E+03   -0.27277E-01   -0.27293E-01   768   0.828E-01 0.346E-03
CGA:   7    -0.663028257413E+03   -0.14587E-01   -0.14588E-01   768   0.402E-01-0.439E-03
CGA:   8    -0.663035721107E+03   -0.74637E-02   -0.74612E-02   768   0.191E-01 0.111E-03
CGA:   9    -0.663038846991E+03   -0.31259E-02   -0.31250E-02   768   0.826E-02-0.471E-04
CGA:  10    -0.663040138594E+03   -0.12916E-02   -0.12919E-02   768   0.295E-02 0.734E-05
CGA:  11    -0.663040668073E+03   -0.52948E-03   -0.52950E-03   768   0.122E-02-0.231E-05
CGA:  12    -0.663040864346E+03   -0.19627E-03   -0.19631E-03   768   0.586E-03 0.313E-05
CGA:  13    -0.663040971767E+03   -0.10742E-03   -0.10741E-03   768   0.299E-03 0.665E-06
CGA:  14    -0.663041034170E+03   -0.62403E-04   -0.62344E-04   768   0.225E-03 0.181E-05
  19 F= -.66959287E+03 E0= -.66958070E+03  d E =-.726306E-01  mag=     1.1329
       N       E                     dE             d eps       ncg     rms          ort
SDA:   1    -0.662001831426E+03    0.10391E+01    0.00000E+00   768   0.258E+01 0.000E+00
CGA:   2    -0.662591086252E+03   -0.58925E+00   -0.58899E+00   768   0.178E+01 0.236E-02
CGA:   3    -0.662904228965E+03   -0.31314E+00   -0.31308E+00   768   0.848E+00-0.122E-01
CGA:   4    -0.663018602978E+03   -0.11437E+00   -0.11457E+00   768   0.222E+00 0.716E-04
CGA:   5    -0.663054020132E+03   -0.35417E-01   -0.35390E-01   768   0.910E-01-0.743E-03
CGA:   6    -0.663067264203E+03   -0.13244E-01   -0.13251E-01   768   0.415E-01 0.609E-04
CGA:   7    -0.663074747998E+03   -0.74838E-02   -0.74851E-02   768   0.206E-01-0.127E-03
CGA:   8    -0.663078727291E+03   -0.39793E-02   -0.39786E-02   768   0.102E-01 0.260E-04
CGA:   9    -0.663080459475E+03   -0.17322E-02   -0.17320E-02   768   0.523E-02-0.211E-04
CGA:  10    -0.663081256929E+03   -0.79745E-03   -0.79757E-03   768   0.183E-02 0.178E-05
CGA:  11    -0.663081607515E+03   -0.35059E-03   -0.35064E-03   768   0.795E-03-0.292E-05
CGA:  12    -0.663081734084E+03   -0.12657E-03   -0.12659E-03   768   0.409E-03 0.127E-05
CGA:  13    -0.663081808612E+03   -0.74528E-04   -0.74531E-04   768   0.200E-03-0.479E-06
  20 F= -.66963415E+03 E0= -.66962169E+03  d E =-.412880E-01  mag=     1.1124
       N       E                     dE             d eps       ncg     rms          ort
SDA:   1    -0.663030242755E+03    0.51491E-01    0.00000E+00   768   0.127E+00 0.000E+00
CGA:   2    -0.663059551241E+03   -0.29308E-01   -0.29310E-01   768   0.874E-01-0.199E-04
CGA:   3    -0.663074899903E+03   -0.15349E-01   -0.15348E-01   768   0.398E-01-0.593E-04
CGA:   4    -0.663080509634E+03   -0.56097E-02   -0.56100E-02   768   0.984E-02-0.459E-05
CGA:   5    -0.663082275331E+03   -0.17657E-02   -0.17657E-02   768   0.317E-02-0.944E-06
CGA:   6    -0.663082883023E+03   -0.60769E-03   -0.60763E-03   768   0.161E-02 0.350E-05
CGA:   7    -0.663083171123E+03   -0.28810E-03   -0.28810E-03   768   0.109E-02-0.732E-06
CGA:   8    -0.663083331569E+03   -0.16045E-03   -0.16045E-03   768   0.494E-03-0.180E-06
CGA:   9    -0.663083432876E+03   -0.10131E-03   -0.10137E-03   768   0.176E-03-0.219E-05
CGA:  10    -0.663083470785E+03   -0.37909E-04   -0.37906E-04   768   0.102E-03 0.541E-07
  21 F= -.66963592E+03 E0= -.66962352E+03  d E =-.430553E-01  mag=     1.1040
       N       E                     dE             d eps       ncg     rms          ort
SDA:   1    -0.662417673788E+03    0.66576E+00    0.00000E+00   768   0.158E+01 0.000E+00
CGA:   2    -0.662878343790E+03   -0.46067E+00   -0.46083E+00   768   0.103E+01-0.101E-02
CGA:   3    -0.663042120689E+03   -0.16378E+00   -0.16382E+00   768   0.387E+00 0.791E-03
CGA:   4    -0.663095596655E+03   -0.53476E-01   -0.53474E-01   768   0.922E-01 0.737E-04
CGA:   5    -0.663111594125E+03   -0.15997E-01   -0.15999E-01   768   0.321E-01 0.681E-04
CGA:   6    -0.663117536115E+03   -0.59420E-02   -0.59425E-02   768   0.160E-01-0.491E-04
CGA:   7    -0.663119996540E+03   -0.24604E-02   -0.24604E-02   768   0.919E-02-0.219E-05
CGA:   8    -0.663121473763E+03   -0.14772E-02   -0.14768E-02   768   0.391E-02-0.136E-04
CGA:   9    -0.663122319275E+03   -0.84551E-03   -0.84533E-03   768   0.158E-02 0.326E-05
CGA:  10    -0.663122628537E+03   -0.30926E-03   -0.30926E-03   768   0.956E-03 0.357E-06
CGA:  11    -0.663122753601E+03   -0.12506E-03   -0.12519E-03   768   0.334E-03 0.258E-05
CGA:  12    -0.663122823686E+03   -0.70085E-04   -0.70083E-04   768   0.126E-03 0.669E-07
  22 F= -.66967540E+03 E0= -.66966304E+03  d E =-.394778E-01  mag=     1.0931
       N       E                     dE             d eps       ncg     rms          ort
SDA:   1    -0.662120257438E+03    0.10025E+01    0.00000E+00   768   0.228E+01 0.000E+00
CGA:   2    -0.662784966766E+03   -0.66471E+00   -0.66508E+00   768   0.152E+01-0.251E-02
CGA:   3    -0.663020849982E+03   -0.23588E+00   -0.23611E+00   768   0.576E+00 0.277E-02
CGA:   4    -0.663099516399E+03   -0.78666E-01   -0.78593E-01   768   0.142E+00 0.483E-04
CGA:   5    -0.663122853146E+03   -0.23337E-01   -0.23345E-01   768   0.550E-01 0.182E-03
CGA:   6    -0.663131212522E+03   -0.83594E-02   -0.83544E-02   768   0.287E-01-0.580E-04
CGA:   7    -0.663135753114E+03   -0.45406E-02   -0.45405E-02   768   0.121E-01-0.248E-06
CGA:   8    -0.663138244767E+03   -0.24917E-02   -0.24925E-02   768   0.583E-02-0.243E-04
CGA:   9    -0.663139383743E+03   -0.11390E-02   -0.11388E-02   768   0.325E-02 0.643E-05
CGA:  10    -0.663139853134E+03   -0.46939E-03   -0.46936E-03   768   0.143E-02-0.472E-06
CGA:  11    -0.663140119034E+03   -0.26590E-03   -0.26587E-03   768   0.480E-03 0.407E-05
CGA:  12    -0.663140211808E+03   -0.92774E-04   -0.92775E-04   768   0.286E-03-0.773E-07
  23 F= -.66969287E+03 E0= -.66968058E+03  d E =-.569531E-01  mag=     1.0840
       N       E                     dE             d eps       ncg     rms          ort
SDA:   1    -0.662934858859E+03    0.20526E+00    0.00000E+00   768   0.536E+00 0.000E+00
CGA:   2    -0.663090258381E+03   -0.15540E+00   -0.15537E+00   768   0.292E+00 0.346E-03
CGA:   3    -0.663140239471E+03   -0.49981E-01   -0.49991E-01   768   0.113E+00 0.356E-03
CGA:   4    -0.663155713069E+03   -0.15474E-01   -0.15474E-01   768   0.277E-01 0.315E-04
CGA:   5    -0.663160483622E+03   -0.47706E-02   -0.47709E-02   768   0.947E-02 0.258E-04
CGA:   6    -0.663162096236E+03   -0.16126E-02   -0.16125E-02   768   0.429E-02-0.488E-05
CGA:   7    -0.663162723856E+03   -0.62762E-03   -0.62754E-03   768   0.218E-02-0.329E-05
CGA:   8    -0.663163111185E+03   -0.38733E-03   -0.38733E-03   768   0.964E-03-0.563E-05
CGA:   9    -0.663163326276E+03   -0.21509E-03   -0.21500E-03   768   0.465E-03 0.192E-05
CGA:  10    -0.663163409589E+03   -0.83313E-04   -0.83316E-04   768   0.299E-03 0.147E-05
  24 F= -.66971634E+03 E0= -.66970441E+03  d E =-.234656E-01  mag=     1.0816
       N       E                     dE             d eps       ncg     rms          ort
SDA:   1    -0.663066818783E+03    0.96507E-01    0.00000E+00   768   0.236E+00 0.000E+00
CGA:   2    -0.663135345077E+03   -0.68526E-01   -0.68518E-01   768   0.128E+00 0.860E-04
CGA:   3    -0.663157329629E+03   -0.21985E-01   -0.21987E-01   768   0.497E-01 0.105E-03
CGA:   4    -0.663164182869E+03   -0.68532E-02   -0.68532E-02   768   0.120E-01 0.117E-04
CGA:   5    -0.663166195291E+03   -0.20124E-02   -0.20127E-02   768   0.453E-02 0.103E-04
CGA:   6    -0.663166937079E+03   -0.74179E-03   -0.74173E-03   768   0.204E-02-0.150E-05
CGA:   7    -0.663167237583E+03   -0.30050E-03   -0.30043E-03   768   0.984E-03-0.254E-05
CGA:   8    -0.663167421706E+03   -0.18412E-03   -0.18416E-03   768   0.443E-03-0.390E-05
CGA:   9    -0.663167518907E+03   -0.97201E-04   -0.97160E-04   768   0.236E-03 0.936E-06
  25 F= -.66972061E+03 E0= -.66970890E+03  d E =-.277350E-01  mag=     1.0808
       N       E                     dE             d eps       ncg     rms          ort
SDA:   1    -0.663024066580E+03    0.14336E+00    0.00000E+00   768   0.378E+00 0.000E+00
CGA:   2    -0.663127267491E+03   -0.10320E+00   -0.10321E+00   768   0.229E+00-0.112E-03
CGA:   3    -0.663161996465E+03   -0.34729E-01   -0.34704E-01   768   0.109E+00-0.242E-03
CGA:   4    -0.663176029159E+03   -0.14033E-01   -0.14026E-01   768   0.264E-01-0.401E-04
CGA:   5    -0.663180147813E+03   -0.41187E-02   -0.41184E-02   768   0.980E-02 0.107E-05
CGA:   6    -0.663181692383E+03   -0.15446E-02   -0.15449E-02   768   0.365E-02 0.116E-04
CGA:   7    -0.663182327274E+03   -0.63489E-03   -0.63489E-03   768   0.178E-02 0.125E-05
CGA:   8    -0.663182635836E+03   -0.30856E-03   -0.30856E-03   768   0.973E-03 0.607E-06
CGA:   9    -0.663182822134E+03   -0.18630E-03   -0.18631E-03   768   0.476E-03-0.108E-05
CGA:  10    -0.663182909286E+03   -0.87152E-04   -0.87145E-04   768   0.243E-03 0.148E-05
  26 F= -.66973660E+03 E0= -.66972496E+03  d E =-.159925E-01  mag=     1.0792
       N       E                     dE             d eps       ncg     rms          ort
SDA:   1    -0.663123981461E+03    0.58841E-01    0.00000E+00   768   0.146E+00 0.000E+00
CGA:   2    -0.663163742415E+03   -0.39761E-01   -0.39764E-01   768   0.894E-01-0.224E-04
CGA:   3    -0.663177079686E+03   -0.13337E-01   -0.13331E-01   768   0.420E-01-0.578E-04
CGA:   4    -0.663182584385E+03   -0.55047E-02   -0.55026E-02   768   0.103E-01-0.187E-04
CGA:   5    -0.663184143713E+03   -0.15593E-02   -0.15593E-02   768   0.379E-02 0.320E-05
CGA:   6    -0.663184760598E+03   -0.61688E-03   -0.61699E-03   768   0.142E-02 0.640E-05
CGA:   7    -0.663185006122E+03   -0.24552E-03   -0.24553E-03   768   0.708E-03 0.906E-06
CGA:   8    -0.663185128522E+03   -0.12240E-03   -0.12240E-03   768   0.385E-03 0.151E-06
CGA:   9    -0.663185202520E+03   -0.73999E-04   -0.74011E-04   768   0.190E-03-0.766E-06
  27 F= -.66973926E+03 E0= -.66972766E+03  d E =-.186473E-01  mag=     1.0779
       N       E                     dE             d eps       ncg     rms          ort
SDA:   1    -0.663071503321E+03    0.11363E+00    0.00000E+00   768   0.286E+00 0.000E+00
CGA:   2    -0.663166977543E+03   -0.95474E-01   -0.95487E-01   768   0.111E+00-0.736E-04
CGA:   3    -0.663190937296E+03   -0.23960E-01   -0.23958E-01   768   0.393E-01 0.363E-04
CGA:   4    -0.663195225476E+03   -0.42882E-02   -0.42821E-02   768   0.137E-01 0.162E-04
CGA:   5    -0.663197425665E+03   -0.22002E-02   -0.22004E-02   768   0.339E-02 0.867E-05
CGA:   6    -0.663198116567E+03   -0.69090E-03   -0.69095E-03   768   0.136E-02-0.197E-05
CGA:   7    -0.663198352908E+03   -0.23634E-03   -0.23632E-03   768   0.778E-03-0.258E-05
CGA:   8    -0.663198481137E+03   -0.12823E-03   -0.12821E-03   768   0.422E-03-0.877E-06
CGA:   9    -0.663198560385E+03   -0.79248E-04   -0.79252E-04   768   0.185E-03-0.565E-06
  28 F= -.66975308E+03 E0= -.66974157E+03  d E =-.138198E-01  mag=     1.0748
       N       E                     dE             d eps       ncg     rms          ort
SDA:   1    -0.662954274886E+03    0.24421E+00    0.00000E+00   768   0.564E+00 0.000E+00
CGA:   2    -0.663142850381E+03   -0.18858E+00   -0.18860E+00   768   0.218E+00-0.172E-03
CGA:   3    -0.663189651859E+03   -0.46801E-01   -0.46797E-01   768   0.808E-01 0.138E-03
CGA:   4    -0.663198385870E+03   -0.87340E-02   -0.87156E-02   768   0.263E-01 0.654E-04
CGA:   5    -0.663202687533E+03   -0.43017E-02   -0.43019E-02   768   0.695E-02 0.113E-04
CGA:   6    -0.663204036906E+03   -0.13494E-02   -0.13494E-02   768   0.280E-02-0.200E-05
CGA:   7    -0.663204537194E+03   -0.50029E-03   -0.50026E-03   768   0.152E-02-0.334E-05
CGA:   8    -0.663204786217E+03   -0.24902E-03   -0.24899E-03   768   0.870E-03-0.903E-06
CGA:   9    -0.663204950804E+03   -0.16459E-03   -0.16459E-03   768   0.360E-03-0.568E-06
CGA:  10    -0.663205031676E+03   -0.80871E-04   -0.80817E-04   768   0.204E-03 0.143E-05
  29 F= -.66976016E+03 E0= -.66974882E+03  d E =-.209014E-01  mag=     1.0700
       N       E                     dE             d eps       ncg     rms          ort
SDA:   1    -0.663067043559E+03    0.13791E+00    0.00000E+00   768   0.355E+00 0.000E+00
CGA:   2    -0.663162047275E+03   -0.95004E-01   -0.95005E-01   768   0.226E+00-0.128E-04
CGA:   3    -0.663195105612E+03   -0.33058E-01   -0.33086E-01   768   0.852E-01 0.139E-03
CGA:   4    -0.663207402982E+03   -0.12297E-01   -0.12292E-01   768   0.248E-01-0.799E-05
CGA:   5    -0.663211249980E+03   -0.38470E-02   -0.38475E-02   768   0.945E-02 0.303E-05
CGA:   6    -0.663212654123E+03   -0.14041E-02   -0.14036E-02   768   0.402E-02-0.870E-05
CGA:   7    -0.663213345653E+03   -0.69153E-03   -0.69149E-03   768   0.175E-02-0.466E-05
CGA:   8    -0.663213701982E+03   -0.35633E-03   -0.35645E-03   768   0.922E-03-0.517E-05
CGA:   9    -0.663213864578E+03   -0.16260E-03   -0.16260E-03   768   0.501E-03 0.229E-06
CGA:  10    -0.663213946067E+03   -0.81489E-04   -0.81482E-04   768   0.195E-03-0.310E-06
  30 F= -.66976928E+03 E0= -.66975815E+03  d E =-.912554E-02  mag=     1.0631
       N       E                     dE             d eps       ncg     rms          ort
SDA:   1    -0.663166034333E+03    0.47830E-01    0.00000E+00   768   0.119E+00 0.000E+00
CGA:   2    -0.663197649401E+03   -0.31615E-01   -0.31618E-01   768   0.783E-01-0.236E-04
CGA:   3    -0.663208726820E+03   -0.11077E-01   -0.11085E-01   768   0.302E-01 0.299E-04
CGA:   4    -0.663213032159E+03   -0.43053E-02   -0.43049E-02   768   0.882E-02 0.482E-05
CGA:   5    -0.663214351696E+03   -0.13195E-02   -0.13196E-02   768   0.331E-02-0.171E-07
CGA:   6    -0.663214880469E+03   -0.52877E-03   -0.52866E-03   768   0.133E-02-0.429E-05
CGA:   7    -0.663215116990E+03   -0.23652E-03   -0.23652E-03   768   0.635E-03-0.313E-05
CGA:   8    -0.663215235883E+03   -0.11889E-03   -0.11892E-03   768   0.350E-03-0.270E-05
CGA:   9    -0.663215296307E+03   -0.60425E-04   -0.60424E-04   768   0.167E-03-0.109E-06
  31 F= -.66977075E+03 E0= -.66975976E+03  d E =-.105930E-01  mag=     1.0591
       N       E                     dE             d eps       ncg     rms          ort
SDA:   1    -0.663142005458E+03    0.73230E-01    0.00000E+00   768   0.199E+00 0.000E+00
CGA:   2    -0.663187594275E+03   -0.45589E-01   -0.45590E-01   768   0.134E+00-0.393E-04
CGA:   3    -0.663209251671E+03   -0.21657E-01   -0.21659E-01   768   0.559E-01 0.102E-04
CGA:   4    -0.663217507974E+03   -0.82563E-02   -0.82543E-02   768   0.153E-01-0.185E-04
CGA:   5    -0.663220235649E+03   -0.27277E-02   -0.27277E-02   768   0.567E-02 0.467E-05
CGA:   6    -0.663221175168E+03   -0.93952E-03   -0.93939E-03   768   0.288E-02-0.539E-05
CGA:   7    -0.663221629577E+03   -0.45441E-03   -0.45441E-03   768   0.150E-02-0.734E-06
CGA:   8    -0.663221904091E+03   -0.27451E-03   -0.27453E-03   768   0.619E-03-0.253E-05
CGA:   9    -0.663222038778E+03   -0.13469E-03   -0.13467E-03   768   0.273E-03 0.225E-06
CGA:  10    -0.663222082637E+03   -0.43859E-04   -0.43846E-04   768   0.139E-03-0.693E-06
  32 F= -.66977777E+03 E0= -.66976695E+03  d E =-.701907E-02  mag=     1.0513
       N       E                     dE             d eps       ncg     rms          ort
SDA:   1    -0.663060125831E+03    0.16191E+00    0.00000E+00   768   0.412E+00 0.000E+00
CGA:   2    -0.663154304491E+03   -0.94179E-01   -0.94189E-01   768   0.277E+00-0.168E-03
CGA:   3    -0.663198967911E+03   -0.44663E-01   -0.44673E-01   768   0.115E+00 0.186E-03
CGA:   4    -0.663215844179E+03   -0.16876E-01   -0.16868E-01   768   0.329E-01-0.709E-04
CGA:   5    -0.663221369831E+03   -0.55257E-02   -0.55261E-02   768   0.127E-01 0.212E-04
CGA:   6    -0.663223335084E+03   -0.19653E-02   -0.19648E-02   768   0.615E-02-0.102E-04
CGA:   7    -0.663224353075E+03   -0.10180E-02   -0.10180E-02   768   0.295E-02 0.663E-06
CGA:   8    -0.663224935917E+03   -0.58284E-03   -0.58300E-03   768   0.130E-02-0.520E-05
CGA:   9    -0.663225197953E+03   -0.26204E-03   -0.26200E-03   768   0.672E-03 0.911E-06
CGA:  10    -0.663225296452E+03   -0.98499E-04   -0.98463E-04   768   0.277E-03-0.112E-05
  33 F= -.66978131E+03 E0= -.66977074E+03  d E =-.105599E-01  mag=     1.0401
       N       E                     dE             d eps       ncg     rms          ort
SDA:   1    -0.663117748330E+03    0.10745E+00    0.00000E+00   768   0.294E+00 0.000E+00
CGA:   2    -0.663181208130E+03   -0.63460E-01   -0.63466E-01   768   0.193E+00-0.123E-03
CGA:   3    -0.663212616773E+03   -0.31409E-01   -0.31414E-01   768   0.841E-01 0.145E-03
CGA:   4    -0.663225235684E+03   -0.12619E-01   -0.12615E-01   768   0.243E-01-0.376E-04
CGA:   5    -0.663229261009E+03   -0.40253E-02   -0.40258E-02   768   0.978E-02 0.181E-04
CGA:   6    -0.663230814966E+03   -0.15540E-02   -0.15537E-02   768   0.489E-02-0.925E-05
CGA:   7    -0.663231625946E+03   -0.81098E-03   -0.81098E-03   768   0.231E-02-0.137E-05
CGA:   8    -0.663232089291E+03   -0.46335E-03   -0.46350E-03   768   0.102E-02-0.506E-05
CGA:   9    -0.663232286470E+03   -0.19718E-03   -0.19716E-03   768   0.499E-03 0.729E-06
CGA:  10    -0.663232359613E+03   -0.73143E-04   -0.73127E-04   768   0.199E-03-0.521E-06
  34 F= -.66978853E+03 E0= -.66977832E+03  d E =-.722028E-02  mag=     1.0319
       N       E                     dE             d eps       ncg     rms          ort
SDA:   1    -0.662234164935E+03    0.99812E+00    0.00000E+00   768   0.258E+01 0.000E+00
CGA:   2    -0.662791728414E+03   -0.55756E+00   -0.55759E+00   768   0.169E+01-0.116E-02
CGA:   3    -0.663067948802E+03   -0.27622E+00   -0.27629E+00   768   0.731E+00 0.170E-02
CGA:   4    -0.663178309917E+03   -0.11036E+00   -0.11029E+00   768   0.208E+00-0.113E-02
CGA:   5    -0.663214300080E+03   -0.35990E-01   -0.35992E-01   768   0.780E-01 0.333E-03
CGA:   6    -0.663227559061E+03   -0.13259E-01   -0.13257E-01   768   0.403E-01-0.228E-03
CGA:   7    -0.663234034574E+03   -0.64755E-02   -0.64763E-02   768   0.204E-01 0.194E-04
CGA:   8    -0.663237862084E+03   -0.38275E-02   -0.38287E-02   768   0.849E-02-0.578E-04
CGA:   9    -0.663239617924E+03   -0.17558E-02   -0.17551E-02   768   0.352E-02 0.151E-04
CGA:  10    -0.663240180737E+03   -0.56281E-03   -0.56274E-03   768   0.166E-02-0.301E-05
CGA:  11    -0.663240437728E+03   -0.25699E-03   -0.25704E-03   768   0.516E-03 0.196E-05
CGA:  12    -0.663240544687E+03   -0.10696E-03   -0.10697E-03   768   0.220E-03-0.424E-06
CGA:  13    -0.663240581502E+03   -0.36815E-04   -0.36825E-04   768   0.133E-03 0.115E-05
  35 F= -.66979720E+03 E0= -.66978786E+03  d E =-.158899E-01  mag=     1.0135
       N       E                     dE             d eps       ncg     rms          ort
SDA:   1    -0.662982533816E+03    0.25801E+00    0.00000E+00   768   0.661E+00 0.000E+00
CGA:   2    -0.663145403342E+03   -0.16287E+00   -0.16287E+00   768   0.418E+00 0.229E-04
CGA:   3    -0.663209197083E+03   -0.63794E-01   -0.63827E-01   768   0.171E+00 0.426E-03
CGA:   4    -0.663234475570E+03   -0.25278E-01   -0.25272E-01   768   0.453E-01-0.306E-04
CGA:   5    -0.663242142061E+03   -0.76665E-02   -0.76672E-02   768   0.169E-01 0.433E-04
CGA:   6    -0.663244883355E+03   -0.27413E-02   -0.27408E-02   768   0.820E-02-0.184E-04
CGA:   7    -0.663246235191E+03   -0.13518E-02   -0.13518E-02   768   0.394E-02-0.342E-05
CGA:   8    -0.663247010323E+03   -0.77513E-03   -0.77535E-03   768   0.176E-02-0.816E-05
CGA:   9    -0.663247371275E+03   -0.36095E-03   -0.36087E-03   768   0.838E-03 0.231E-05
CGA:  10    -0.663247504838E+03   -0.13356E-03   -0.13357E-03   768   0.389E-03 0.277E-06
CGA:  11    -0.663247570207E+03   -0.65369E-04   -0.65386E-04   768   0.127E-03 0.193E-05
  36 F= -.66980418E+03 E0= -.66979525E+03  d E =-.698262E-02  mag=     1.0094
       N       E                     dE             d eps       ncg     rms          ort
SDA:   1    -0.663241782965E+03    0.57219E-02    0.00000E+00   768   0.149E-01 0.000E+00
CGA:   2    -0.663245443316E+03   -0.36604E-02   -0.36607E-02   768   0.931E-02-0.513E-05
CGA:   3    -0.663246878362E+03   -0.14350E-02   -0.14350E-02   768   0.385E-02-0.262E-05
CGA:   4    -0.663247445715E+03   -0.56735E-03   -0.56742E-03   768   0.102E-02 0.182E-05
CGA:   5    -0.663247618548E+03   -0.17283E-03   -0.17284E-03   768   0.320E-03 0.463E-06
CGA:   6    -0.663247687382E+03   -0.68834E-04   -0.68890E-04   768   0.141E-03-0.149E-05
  37 F= -.66980430E+03 E0= -.66979542E+03  d E =-.709871E-02  mag=     1.0089
       N       E                     dE             d eps       ncg     rms          ort
SDA:   1    -0.663122927306E+03    0.12469E+00    0.00000E+00   768   0.321E+00 0.000E+00
CGA:   2    -0.663207945238E+03   -0.85018E-01   -0.85012E-01   768   0.180E+00 0.377E-04
CGA:   3    -0.663236823642E+03   -0.28878E-01   -0.28867E-01   768   0.837E-01-0.175E-03
CGA:   4    -0.663248102402E+03   -0.11279E-01   -0.11286E-01   768   0.214E-01 0.483E-05
CGA:   5    -0.663251622123E+03   -0.35197E-02   -0.35196E-02   768   0.785E-02 0.397E-05
CGA:   6    -0.663252908639E+03   -0.12865E-02   -0.12867E-02   768   0.345E-02 0.659E-05
CGA:   7    -0.663253520842E+03   -0.61220E-03   -0.61219E-03   768   0.167E-02-0.188E-05
CGA:   8    -0.663253840162E+03   -0.31932E-03   -0.31931E-03   768   0.853E-03 0.404E-06
CGA:   9    -0.663254000285E+03   -0.16012E-03   -0.16013E-03   768   0.405E-03-0.258E-06
CGA:  10    -0.663254070678E+03   -0.70393E-04   -0.70408E-04   768   0.175E-03 0.192E-05
  38 F= -.66981088E+03 E0= -.66980228E+03  d E =-.658412E-02  mag=     1.0040
       N       E                     dE             d eps       ncg     rms          ort
SDA:   1    -0.663110721835E+03    0.14328E+00    0.00000E+00   768   0.357E+00 0.000E+00
CGA:   2    -0.663204673879E+03   -0.93952E-01   -0.93943E-01   768   0.205E+00 0.664E-04
CGA:   3    -0.663236722234E+03   -0.32048E-01   -0.32034E-01   768   0.960E-01-0.195E-03
CGA:   4    -0.663249702147E+03   -0.12980E-01   -0.12987E-01   768   0.234E-01 0.507E-05
CGA:   5    -0.663253534619E+03   -0.38325E-02   -0.38324E-02   768   0.870E-02 0.396E-05
CGA:   6    -0.663254989559E+03   -0.14549E-02   -0.14551E-02   768   0.373E-02 0.784E-05
CGA:   7    -0.663255659296E+03   -0.66974E-03   -0.66974E-03   768   0.187E-02-0.203E-05
CGA:   8    -0.663256006048E+03   -0.34675E-03   -0.34675E-03   768   0.944E-03 0.546E-06
CGA:   9    -0.663256184892E+03   -0.17884E-03   -0.17885E-03   768   0.441E-03-0.281E-06
CGA:  10    -0.663256263807E+03   -0.78915E-04   -0.78917E-04   768   0.197E-03 0.205E-05
  39 F= -.66981328E+03 E0= -.66980495E+03  d E =-.897766E-02  mag=     0.9991
       N       E                     dE             d eps       ncg     rms          ort
SDA:   1    -0.663108761918E+03    0.14742E+00    0.00000E+00   768   0.403E+00 0.000E+00
CGA:   2    -0.663196123439E+03   -0.87362E-01   -0.87338E-01   768   0.246E+00 0.360E-03
CGA:   3    -0.663233528834E+03   -0.37405E-01   -0.37387E-01   768   0.125E+00-0.319E-03
CGA:   4    -0.663252468876E+03   -0.18940E-01   -0.18947E-01   768   0.315E-01 0.545E-04
CGA:   5    -0.663257716227E+03   -0.52474E-02   -0.52470E-02   768   0.121E-01-0.531E-05
CGA:   6    -0.663259881645E+03   -0.21654E-02   -0.21654E-02   768   0.583E-02 0.183E-04
CGA:   7    -0.663260909154E+03   -0.10275E-02   -0.10275E-02   768   0.303E-02-0.136E-05
CGA:   8    -0.663261457194E+03   -0.54804E-03   -0.54802E-03   768   0.136E-02 0.412E-05
CGA:   9    -0.663261718774E+03   -0.26158E-03   -0.26159E-03   768   0.571E-03-0.579E-06
CGA:  10    -0.663261815706E+03   -0.96932E-04   -0.96947E-04   768   0.250E-03 0.152E-05
  40 F= -.66981893E+03 E0= -.66981084E+03  d E =-.564843E-02  mag=     0.9948
       N       E                     dE             d eps       ncg     rms          ort
SDA:   1    -0.663047522891E+03    0.21420E+00    0.00000E+00   768   0.569E+00 0.000E+00
CGA:   2    -0.663171145134E+03   -0.12362E+00   -0.12358E+00   768   0.347E+00 0.631E-03
CGA:   3    -0.663224048060E+03   -0.52903E-01   -0.52874E-01   768   0.176E+00-0.551E-03
CGA:   4    -0.663250716805E+03   -0.26669E-01   -0.26680E-01   768   0.439E-01 0.105E-03
CGA:   5    -0.663258112017E+03   -0.73952E-02   -0.73948E-02   768   0.170E-01-0.156E-04
CGA:   6    -0.663261154231E+03   -0.30422E-02   -0.30421E-02   768   0.815E-02 0.282E-04
CGA:   7    -0.663262594923E+03   -0.14407E-02   -0.14407E-02   768   0.425E-02-0.357E-05
CGA:   8    -0.663263362996E+03   -0.76807E-03   -0.76804E-03   768   0.190E-02 0.598E-05
CGA:   9    -0.663263730644E+03   -0.36765E-03   -0.36767E-03   768   0.790E-03-0.984E-06
CGA:  10    -0.663263865767E+03   -0.13512E-03   -0.13514E-03   768   0.349E-03 0.183E-05
CGA:  11    -0.663263923327E+03   -0.57561E-04   -0.57562E-04   768   0.122E-03 0.112E-06
  41 F= -.66982115E+03 E0= -.66981332E+03  d E =-.787147E-02  mag=     0.9899
       N       E                     dE             d eps       ncg     rms          ort
SDA:   1    -0.663110722660E+03    0.15314E+00    0.00000E+00   768   0.424E+00 0.000E+00
CGA:   2    -0.663199595657E+03   -0.88873E-01   -0.88846E-01   768   0.240E+00 0.495E-03
CGA:   3    -0.663238515462E+03   -0.38920E-01   -0.38904E-01   768   0.127E+00-0.484E-03
CGA:   4    -0.663258023226E+03   -0.19508E-01   -0.19516E-01   768   0.335E-01 0.753E-04
CGA:   5    -0.663263688889E+03   -0.56657E-02   -0.56652E-02   768   0.133E-01-0.267E-04
CGA:   6    -0.663266072056E+03   -0.23832E-02   -0.23831E-02   768   0.676E-02 0.141E-04
CGA:   7    -0.663267248882E+03   -0.11768E-02   -0.11768E-02   768   0.340E-02-0.501E-05
CGA:   8    -0.663267872259E+03   -0.62338E-03   -0.62333E-03   768   0.145E-02 0.520E-05
CGA:   9    -0.663268147350E+03   -0.27509E-03   -0.27510E-03   768   0.585E-03-0.160E-06
CGA:  10    -0.663268244916E+03   -0.97566E-04   -0.97586E-04   768   0.248E-03 0.175E-05
  42 F= -.66982540E+03 E0= -.66981776E+03  d E =-.424967E-02  mag=     0.9876
       N       E                     dE             d eps       ncg     rms          ort
SDA:   1    -0.663121100559E+03    0.14705E+00    0.00000E+00   768   0.400E+00 0.000E+00
CGA:   2    -0.663204505447E+03   -0.83405E-01   -0.83379E-01   768   0.229E+00 0.484E-03
CGA:   3    -0.663241257027E+03   -0.36752E-01   -0.36736E-01   768   0.121E+00-0.460E-03
CGA:   4    -0.663259991143E+03   -0.18734E-01   -0.18740E-01   768   0.316E-01 0.701E-04
CGA:   5    -0.663265305041E+03   -0.53139E-02   -0.53135E-02   768   0.127E-01-0.243E-04
CGA:   6    -0.663267613445E+03   -0.23084E-02   -0.23082E-02   768   0.631E-02 0.138E-04
CGA:   7    -0.663268725965E+03   -0.11125E-02   -0.11125E-02   768   0.323E-02-0.459E-05
CGA:   8    -0.663269310324E+03   -0.58436E-03   -0.58433E-03   768   0.137E-02 0.486E-05
CGA:   9    -0.663269570302E+03   -0.25998E-03   -0.25998E-03   768   0.546E-03-0.106E-06
CGA:  10    -0.663269662822E+03   -0.92521E-04   -0.92534E-04   768   0.232E-03 0.168E-05
  43 F= -.66982676E+03 E0= -.66981928E+03  d E =-.560918E-02  mag=     0.9858
       N       E                     dE             d eps       ncg     rms          ort
SDA:   1    -0.663116470980E+03    0.15310E+00    0.00000E+00   768   0.439E+00 0.000E+00
CGA:   2    -0.663200054186E+03   -0.83583E-01   -0.83570E-01   768   0.243E+00 0.421E-03
CGA:   3    -0.663240213254E+03   -0.40159E-01   -0.40145E-01   768   0.136E+00-0.710E-03
CGA:   4    -0.663262482604E+03   -0.22269E-01   -0.22273E-01   768   0.391E-01 0.979E-04
CGA:   5    -0.663269151015E+03   -0.66684E-02   -0.66679E-02   768   0.153E-01-0.466E-04
CGA:   6    -0.663271960920E+03   -0.28099E-02   -0.28096E-02   768   0.781E-02 0.189E-04
CGA:   7    -0.663273327750E+03   -0.13668E-02   -0.13668E-02   768   0.403E-02-0.602E-05
CGA:   8    -0.663274031531E+03   -0.70378E-03   -0.70379E-03   768   0.162E-02 0.654E-05
CGA:   9    -0.663274344253E+03   -0.31272E-03   -0.31273E-03   768   0.600E-03-0.203E-06
CGA:  10    -0.663274446462E+03   -0.10221E-03   -0.10222E-03   768   0.261E-03 0.113E-05
CGA:  11    -0.663274488433E+03   -0.41971E-04   -0.41967E-04   768   0.931E-04-0.217E-06
  44 F= -.66983159E+03 E0= -.66982427E+03  d E =-.483163E-02  mag=     0.9819
       N       E                     dE             d eps       ncg     rms          ort
SDA:   1    -0.662557852341E+03    0.71659E+00    0.00000E+00   768   0.200E+01 0.000E+00
CGA:   2    -0.662938797271E+03   -0.38094E+00   -0.38081E+00   768   0.111E+01 0.417E-02
CGA:   3    -0.663122248470E+03   -0.18345E+00   -0.18331E+00   768   0.622E+00-0.697E-02
CGA:   4    -0.663223607318E+03   -0.10136E+00   -0.10140E+00   768   0.177E+00 0.958E-03
CGA:   5    -0.663254477392E+03   -0.30870E-01   -0.30868E-01   768   0.683E-01-0.529E-03
CGA:   6    -0.663267036328E+03   -0.12559E-01   -0.12556E-01   768   0.346E-01 0.163E-03
CGA:   7    -0.663273134047E+03   -0.60977E-02   -0.60976E-02   768   0.181E-01-0.828E-04
CGA:   8    -0.663276250981E+03   -0.31169E-02   -0.31171E-02   768   0.728E-02 0.295E-04
CGA:   9    -0.663277668176E+03   -0.14172E-02   -0.14175E-02   768   0.260E-02-0.860E-05
CGA:  10    -0.663278119936E+03   -0.45176E-03   -0.45177E-03   768   0.114E-02 0.316E-05
CGA:  11    -0.663278298541E+03   -0.17860E-03   -0.17859E-03   768   0.402E-03-0.737E-06
CGA:  12    -0.663278378681E+03   -0.80140E-04   -0.80109E-04   768   0.174E-03 0.138E-05
  45 F= -.66983554E+03 E0= -.66982848E+03  d E =-.878206E-02  mag=     0.9751
       N       E                     dE             d eps       ncg     rms          ort
SDA:   1    -0.663073240564E+03    0.20506E+00    0.00000E+00   768   0.591E+00 0.000E+00
CGA:   2    -0.663182723626E+03   -0.10948E+00   -0.10948E+00   768   0.317E+00 0.424E-03
CGA:   3    -0.663236307436E+03   -0.53584E-01   -0.53569E-01   768   0.177E+00-0.900E-03
CGA:   4    -0.663265778449E+03   -0.29471E-01   -0.29475E-01   768   0.531E-01 0.106E-03
CGA:   5    -0.663275204837E+03   -0.94264E-02   -0.94264E-02   768   0.197E-01-0.796E-04
CGA:   6    -0.663279017263E+03   -0.38124E-02   -0.38118E-02   768   0.997E-02 0.214E-04
CGA:   7    -0.663280800844E+03   -0.17836E-02   -0.17836E-02   768   0.553E-02-0.138E-04
CGA:   8    -0.663281683033E+03   -0.88219E-03   -0.88235E-03   768   0.221E-02 0.564E-05
CGA:   9    -0.663282109072E+03   -0.42604E-03   -0.42607E-03   768   0.708E-03-0.878E-06
CGA:  10    -0.663282245903E+03   -0.13683E-03   -0.13681E-03   768   0.307E-03 0.147E-05
CGA:  11    -0.663282292421E+03   -0.46518E-04   -0.46514E-04   768   0.134E-03-0.143E-06
  46 F= -.66983949E+03 E0= -.66983258E+03  d E =-.395226E-02  mag=     0.9736
       N       E                     dE             d eps       ncg     rms          ort
SDA:   1    -0.662716855782E+03    0.56539E+00    0.00000E+00   768   0.160E+01 0.000E+00
CGA:   2    -0.663014489577E+03   -0.29763E+00   -0.29760E+00   768   0.858E+00 0.184E-02
CGA:   3    -0.663160253830E+03   -0.14576E+00   -0.14571E+00   768   0.481E+00-0.396E-02
CGA:   4    -0.663239885789E+03   -0.79632E-01   -0.79651E-01   768   0.144E+00 0.424E-03
CGA:   5    -0.663265409868E+03   -0.25524E-01   -0.25524E-01   768   0.536E-01-0.367E-03
CGA:   6    -0.663275862589E+03   -0.10453E-01   -0.10450E-01   768   0.264E-01 0.944E-04
CGA:   7    -0.663280658070E+03   -0.47955E-02   -0.47958E-02   768   0.148E-01-0.672E-04
CGA:   8    -0.663282969364E+03   -0.23113E-02   -0.23119E-02   768   0.594E-02 0.140E-04
CGA:   9    -0.663284100783E+03   -0.11314E-02   -0.11316E-02   768   0.186E-02-0.609E-05
CGA:  10    -0.663284466128E+03   -0.36535E-03   -0.36528E-03   768   0.766E-03 0.290E-05
CGA:  11    -0.663284582148E+03   -0.11602E-03   -0.11601E-03   768   0.338E-03-0.357E-06
CGA:  12    -0.663284643616E+03   -0.61468E-04   -0.61463E-04   768   0.125E-03 0.134E-05
  47 F= -.66984192E+03 E0= -.66983524E+03  d E =-.638059E-02  mag=     0.9724
       N       E                     dE             d eps       ncg     rms          ort
SDA:   1    -0.663169797361E+03    0.11478E+00    0.00000E+00   768   0.314E+00 0.000E+00
CGA:   2    -0.663237324404E+03   -0.67527E-01   -0.67522E-01   768   0.186E+00 0.715E-04
CGA:   3    -0.663267227250E+03   -0.29903E-01   -0.29901E-01   768   0.846E-01-0.670E-04
CGA:   4    -0.663280494895E+03   -0.13268E-01   -0.13268E-01   768   0.237E-01-0.411E-05
CGA:   5    -0.663284721289E+03   -0.42264E-02   -0.42264E-02   768   0.804E-02-0.317E-05
CGA:   6    -0.663286383687E+03   -0.16624E-02   -0.16627E-02   768   0.365E-02-0.861E-05
CGA:   7    -0.663287199696E+03   -0.81601E-03   -0.81602E-03   768   0.167E-02-0.102E-05
CGA:   8    -0.663287535064E+03   -0.33537E-03   -0.33541E-03   768   0.936E-03-0.169E-05
CGA:   9    -0.663287666601E+03   -0.13154E-03   -0.13161E-03   768   0.376E-03 0.134E-05
CGA:  10    -0.663287735625E+03   -0.69025E-04   -0.69024E-04   768   0.109E-03 0.385E-06
  48 F= -.66984501E+03 E0= -.66983836E+03  d E =-.308577E-02  mag=     0.9728
       N       E                     dE             d eps       ncg     rms          ort
SDA:   1    -0.663230127415E+03    0.57539E-01    0.00000E+00   768   0.155E+00 0.000E+00
CGA:   2    -0.663263528922E+03   -0.33402E-01   -0.33402E-01   768   0.922E-01-0.576E-05
CGA:   3    -0.663278269814E+03   -0.14741E-01   -0.14742E-01   768   0.420E-01 0.778E-05
CGA:   4    -0.663284829904E+03   -0.65601E-02   -0.65596E-02   768   0.119E-01-0.323E-05
CGA:   5    -0.663286896513E+03   -0.20666E-02   -0.20667E-02   768   0.417E-02 0.279E-05
CGA:   6    -0.663287725543E+03   -0.82903E-03   -0.82915E-03   768   0.211E-02-0.585E-05
CGA:   7    -0.663288101857E+03   -0.37631E-03   -0.37631E-03   768   0.122E-02-0.106E-05
CGA:   8    -0.663288294693E+03   -0.19284E-03   -0.19279E-03   768   0.508E-03-0.118E-05
CGA:   9    -0.663288395207E+03   -0.10051E-03   -0.10050E-03   768   0.173E-03 0.109E-05
CGA:  10    -0.663288430537E+03   -0.35330E-04   -0.35323E-04   768   0.748E-04 0.338E-06
  49 F= -.66984567E+03 E0= -.66983906E+03  d E =-.375129E-02  mag=     0.9733
       N       E                     dE             d eps       ncg     rms          ort
SDA:   1    -0.663255401709E+03    0.32993E-01    0.00000E+00   768   0.903E-01 0.000E+00
CGA:   2    -0.663276431526E+03   -0.21030E-01   -0.21031E-01   768   0.540E-01-0.144E-04
CGA:   3    -0.663285056591E+03   -0.86251E-02   -0.86250E-02   768   0.232E-01-0.860E-05
CGA:   4    -0.663288601536E+03   -0.35449E-02   -0.35448E-02   768   0.648E-02-0.761E-06
CGA:   5    -0.663289720329E+03   -0.11188E-02   -0.11188E-02   768   0.214E-02 0.130E-05
CGA:   6    -0.663290145198E+03   -0.42487E-03   -0.42491E-03   768   0.101E-02-0.182E-05
CGA:   7    -0.663290344811E+03   -0.19961E-03   -0.19962E-03   768   0.564E-03-0.799E-06
CGA:   8    -0.663290431348E+03   -0.86537E-04   -0.86507E-04   768   0.278E-03-0.817E-06
  50 F= -.66984774E+03 E0= -.66984113E+03  d E =-.206778E-02  mag=     0.9726
       N       E                     dE             d eps       ncg     rms          ort
SDA:   1    -0.662976956180E+03    0.31339E+00    0.00000E+00   768   0.813E+00 0.000E+00
CGA:   2    -0.663166097510E+03   -0.18914E+00   -0.18914E+00   768   0.488E+00-0.124E-03
CGA:   3    -0.663243729510E+03   -0.77632E-01   -0.77621E-01   768   0.210E+00-0.288E-03
CGA:   4    -0.663275646551E+03   -0.31917E-01   -0.31919E-01   768   0.580E-01-0.221E-04
CGA:   5    -0.663286093739E+03   -0.10447E-01   -0.10447E-01   768   0.188E-01-0.153E-04
CGA:   6    -0.663289912854E+03   -0.38191E-02   -0.38196E-02   768   0.844E-02-0.152E-04
CGA:   7    -0.663291800697E+03   -0.18878E-02   -0.18878E-02   768   0.357E-02-0.916E-06
CGA:   8    -0.663292568332E+03   -0.76764E-03   -0.76787E-03   768   0.203E-02-0.543E-05
CGA:   9    -0.663292864112E+03   -0.29578E-03   -0.29586E-03   768   0.920E-03 0.145E-05
CGA:  10    -0.663293021571E+03   -0.15746E-03   -0.15745E-03   768   0.271E-03-0.289E-06
CGA:  11    -0.663293083544E+03   -0.61973E-04   -0.61930E-04   768   0.996E-04 0.954E-06
  51 F= -.66985046E+03 E0= -.66984382E+03  d E =-.478392E-02  mag=     0.9702
       N       E                     dE             d eps       ncg     rms          ort
SDA:   1    -0.663233804333E+03    0.59217E-01    0.00000E+00   768   0.155E+00 0.000E+00
CGA:   2    -0.663274385898E+03   -0.40582E-01   -0.40582E-01   768   0.859E-01-0.611E-05
CGA:   3    -0.663287775167E+03   -0.13389E-01   -0.13391E-01   768   0.351E-01 0.285E-05
CGA:   4    -0.663292969602E+03   -0.51944E-02   -0.51940E-02   768   0.946E-02 0.331E-06
CGA:   5    -0.663294562326E+03   -0.15927E-02   -0.15928E-02   768   0.288E-02 0.159E-05
CGA:   6    -0.663295108089E+03   -0.54576E-03   -0.54579E-03   768   0.148E-02-0.403E-05
CGA:   7    -0.663295354967E+03   -0.24688E-03   -0.24683E-03   768   0.774E-03-0.272E-05
CGA:   8    -0.663295485995E+03   -0.13103E-03   -0.13099E-03   768   0.341E-03-0.219E-05
CGA:   9    -0.663295559392E+03   -0.73397E-04   -0.73388E-04   768   0.140E-03 0.280E-06
  52 F= -.66985309E+03 E0= -.66984646E+03  d E =-.263859E-02  mag=     0.9700
       N       E                     dE             d eps       ncg     rms          ort
SDA:   1    -0.662742366279E+03    0.55312E+00    0.00000E+00   768   0.140E+01 0.000E+00
CGA:   2    -0.663106952598E+03   -0.36459E+00   -0.36459E+00   768   0.777E+00-0.132E-03
CGA:   3    -0.663227694777E+03   -0.12074E+00   -0.12082E+00   768   0.316E+00 0.670E-03
CGA:   4    -0.663274508097E+03   -0.46813E-01   -0.46789E-01   768   0.862E-01-0.692E-04
CGA:   5    -0.663288827934E+03   -0.14320E-01   -0.14323E-01   768   0.285E-01 0.546E-04
CGA:   6    -0.663293787100E+03   -0.49592E-02   -0.49584E-02   768   0.145E-01-0.374E-04
CGA:   7    -0.663296174091E+03   -0.23870E-02   -0.23868E-02   768   0.693E-02-0.717E-05
CGA:   8    -0.663297430035E+03   -0.12559E-02   -0.12559E-02   768   0.298E-02-0.118E-04
CGA:   9    -0.663298070265E+03   -0.64023E-03   -0.64011E-03   768   0.135E-02 0.291E-05
CGA:  10    -0.663298305010E+03   -0.23475E-03   -0.23474E-03   768   0.686E-03-0.170E-06
CGA:  11    -0.663298413009E+03   -0.10800E-03   -0.10805E-03   768   0.231E-03 0.183E-05
CGA:  12    -0.663298461265E+03   -0.48256E-04   -0.48261E-04   768   0.988E-04-0.186E-06
  53 F= -.66985643E+03 E0= -.66984981E+03  d E =-.597840E-02  mag=     0.9693
       N       E                     dE             d eps       ncg     rms          ort
SDA:   1    -0.663195043961E+03    0.10337E+00    0.00000E+00   768   0.272E+00 0.000E+00
CGA:   2    -0.663265569735E+03   -0.70526E-01   -0.70522E-01   768   0.144E+00 0.406E-04
CGA:   3    -0.663288017658E+03   -0.22448E-01   -0.22453E-01   768   0.601E-01 0.407E-04
CGA:   4    -0.663296870864E+03   -0.88532E-02   -0.88514E-02   768   0.163E-01-0.551E-05
CGA:   5    -0.663299565244E+03   -0.26944E-02   -0.26946E-02   768   0.507E-02 0.254E-05
CGA:   6    -0.663300452126E+03   -0.88688E-03   -0.88681E-03   768   0.261E-02-0.606E-05
CGA:   7    -0.663300874593E+03   -0.42247E-03   -0.42240E-03   768   0.123E-02-0.340E-05
CGA:   8    -0.663301100422E+03   -0.22583E-03   -0.22584E-03   768   0.537E-03-0.310E-05
CGA:   9    -0.663301216488E+03   -0.11607E-03   -0.11605E-03   768   0.246E-03 0.273E-06
CGA:  10    -0.663301260143E+03   -0.43655E-04   -0.43654E-04   768   0.130E-03-0.957E-07
  54 F= -.66985951E+03 E0= -.66985288E+03  d E =-.307093E-02  mag=     0.9701
       N       E                     dE             d eps       ncg     rms          ort
SDA:   1    -0.663137594374E+03    0.16362E+00    0.00000E+00   768   0.423E+00 0.000E+00
CGA:   2    -0.663246977858E+03   -0.10938E+00   -0.10937E+00   768   0.222E+00 0.102E-03
CGA:   3    -0.663281926313E+03   -0.34948E-01   -0.34956E-01   768   0.916E-01 0.731E-04
CGA:   4    -0.663295580866E+03   -0.13655E-01   -0.13652E-01   768   0.248E-01-0.118E-04
CGA:   5    -0.663299648654E+03   -0.40678E-02   -0.40681E-02   768   0.795E-02 0.502E-05
CGA:   6    -0.663301069559E+03   -0.14209E-02   -0.14209E-02   768   0.393E-02-0.967E-05
CGA:   7    -0.663301712057E+03   -0.64250E-03   -0.64243E-03   768   0.197E-02-0.394E-05
CGA:   8    -0.663302055482E+03   -0.34342E-03   -0.34340E-03   768   0.832E-03-0.397E-05
CGA:   9    -0.663302236652E+03   -0.18117E-03   -0.18114E-03   768   0.364E-03 0.548E-06
CGA:  10    -0.663302304156E+03   -0.67504E-04   -0.67504E-04   768   0.193E-03-0.921E-07
  55 F= -.66986088E+03 E0= -.66985426E+03  d E =-.444550E-02  mag=     0.9712
       N       E                     dE             d eps       ncg     rms          ort
SDA:   1    -0.663202758221E+03    0.99478E-01    0.00000E+00   768   0.264E+00 0.000E+00
CGA:   2    -0.663270367080E+03   -0.67609E-01   -0.67618E-01   768   0.132E+00-0.112E-03
CGA:   3    -0.663291991445E+03   -0.21624E-01   -0.21621E-01   768   0.562E-01-0.955E-04
CGA:   4    -0.663300289477E+03   -0.82980E-02   -0.82998E-02   768   0.155E-01 0.198E-05
CGA:   5    -0.663302833492E+03   -0.25440E-02   -0.25438E-02   768   0.475E-02-0.569E-05
CGA:   6    -0.663303685290E+03   -0.85180E-03   -0.85180E-03   768   0.230E-02-0.579E-06
CGA:   7    -0.663304077798E+03   -0.39251E-03   -0.39247E-03   768   0.117E-02-0.243E-05
CGA:   8    -0.663304272536E+03   -0.19474E-03   -0.19473E-03   768   0.509E-03-0.487E-06
CGA:   9    -0.663304384587E+03   -0.11205E-03   -0.11210E-03   768   0.227E-03-0.114E-05
CGA:  10    -0.663304427855E+03   -0.43267E-04   -0.43262E-04   768   0.122E-03 0.558E-06
  56 F= -.66986339E+03 E0= -.66985673E+03  d E =-.250666E-02  mag=     0.9698
       N       E                     dE             d eps       ncg     rms          ort
SDA:   1    -0.663279201018E+03    0.25184E-01    0.00000E+00   768   0.659E-01 0.000E+00
CGA:   2    -0.663296011922E+03   -0.16811E-01   -0.16812E-01   768   0.336E-01-0.103E-04
CGA:   3    -0.663301386629E+03   -0.53747E-02   -0.53737E-02   768   0.146E-01-0.211E-04
CGA:   4    -0.663303511001E+03   -0.21244E-02   -0.21244E-02   768   0.414E-02-0.431E-05
CGA:   5    -0.663304151178E+03   -0.64018E-03   -0.64014E-03   768   0.135E-02 0.207E-06
CGA:   6    -0.663304376632E+03   -0.22545E-03   -0.22545E-03   768   0.629E-03-0.681E-06
CGA:   7    -0.663304488671E+03   -0.11204E-03   -0.11204E-03   768   0.297E-03-0.114E-05
CGA:   8    -0.663304542666E+03   -0.53995E-04   -0.53996E-04   768   0.139E-03-0.319E-06
  57 F= -.66986369E+03 E0= -.66985701E+03  d E =-.281046E-02  mag=     0.9690
       N       E                     dE             d eps       ncg     rms          ort
SDA:   1    -0.663184304172E+03    0.12018E+00    0.00000E+00   768   0.319E+00 0.000E+00
CGA:   2    -0.663271181842E+03   -0.86878E-01   -0.86872E-01   768   0.135E+00 0.450E-04
CGA:   3    -0.663294570512E+03   -0.23389E-01   -0.23388E-01   768   0.598E-01-0.442E-04
CGA:   4    -0.663302908974E+03   -0.83385E-02   -0.83406E-02   768   0.155E-01 0.494E-05
CGA:   5    -0.663305504205E+03   -0.25952E-02   -0.25951E-02   768   0.424E-02-0.264E-05
CGA:   6    -0.663306321540E+03   -0.81733E-03   -0.81737E-03   768   0.195E-02-0.339E-05
CGA:   7    -0.663306652637E+03   -0.33110E-03   -0.33105E-03   768   0.966E-03-0.391E-05
CGA:   8    -0.663306805883E+03   -0.15325E-03   -0.15322E-03   768   0.467E-03-0.121E-05
CGA:   9    -0.663306903328E+03   -0.97445E-04   -0.97474E-04   768   0.193E-03-0.981E-06
  58 F= -.66986650E+03 E0= -.66985981E+03  d E =-.280973E-02  mag=     0.9682
       N       E                     dE             d eps       ncg     rms          ort
SDA:   1    -0.663123595815E+03    0.18321E+00    0.00000E+00   768   0.479E+00 0.000E+00
CGA:   2    -0.663254127203E+03   -0.13053E+00   -0.13053E+00   768   0.202E+00 0.361E-04
CGA:   3    -0.663289322447E+03   -0.35195E-01   -0.35198E-01   768   0.879E-01 0.637E-04
CGA:   4    -0.663301917691E+03   -0.12595E-01   -0.12593E-01   768   0.223E-01 0.290E-05
CGA:   5    -0.663305575709E+03   -0.36580E-02   -0.36583E-02   768   0.668E-02 0.551E-05
CGA:   6    -0.663306771100E+03   -0.11954E-02   -0.11953E-02   768   0.317E-02-0.594E-05
CGA:   7    -0.663307278214E+03   -0.50711E-03   -0.50702E-03   768   0.151E-02-0.383E-05
CGA:   8    -0.663307533430E+03   -0.25522E-03   -0.25516E-03   768   0.657E-03-0.339E-05
CGA:   9    -0.663307680930E+03   -0.14750E-03   -0.14748E-03   768   0.301E-03 0.291E-06
CGA:  10    -0.663307740311E+03   -0.59381E-04   -0.59382E-04   768   0.171E-03-0.882E-08
  59 F= -.66986788E+03 E0= -.66986117E+03  d E =-.418804E-02  mag=     0.9675
       N       E                     dE             d eps       ncg     rms          ort
SDA:   1    -0.663229907739E+03    0.77773E-01    0.00000E+00   768   0.214E+00 0.000E+00
CGA:   2    -0.663284980248E+03   -0.55073E-01   -0.55071E-01   768   0.971E-01 0.217E-04
CGA:   3    -0.663300704782E+03   -0.15725E-01   -0.15726E-01   768   0.418E-01 0.174E-04
CGA:   4    -0.663306979610E+03   -0.62748E-02   -0.62738E-02   768   0.114E-01-0.312E-05
CGA:   5    -0.663308762485E+03   -0.17829E-02   -0.17831E-02   768   0.353E-02 0.294E-05
CGA:   6    -0.663309361964E+03   -0.59948E-03   -0.59943E-03   768   0.167E-02-0.286E-05
CGA:   7    -0.663309630876E+03   -0.26891E-03   -0.26886E-03   768   0.782E-03-0.268E-05
CGA:   8    -0.663309771824E+03   -0.14095E-03   -0.14095E-03   768   0.331E-03-0.293E-05
CGA:   9    -0.663309844886E+03   -0.73061E-04   -0.73062E-04   768   0.169E-03-0.395E-07
  60 F= -.66987039E+03 E0= -.66986363E+03  d E =-.250702E-02  mag=     0.9685
       N       E                     dE             d eps       ncg     rms          ort
SDA:   1    -0.663217721923E+03    0.92050E-01    0.00000E+00   768   0.248E+00 0.000E+00
CGA:   2    -0.663281460383E+03   -0.63738E-01   -0.63732E-01   768   0.112E+00 0.641E-04
CGA:   3    -0.663299737696E+03   -0.18277E-01   -0.18276E-01   768   0.484E-01-0.287E-04
CGA:   4    -0.663307037253E+03   -0.72996E-02   -0.72998E-02   768   0.125E-01-0.760E-06
CGA:   5    -0.663309147144E+03   -0.21099E-02   -0.21099E-02   768   0.359E-02-0.283E-06
CGA:   6    -0.663309855465E+03   -0.70832E-03   -0.70837E-03   768   0.143E-02-0.313E-05
CGA:   7    -0.663310167599E+03   -0.31213E-03   -0.31228E-03   768   0.559E-03-0.414E-05
CGA:   8    -0.663310301367E+03   -0.13377E-03   -0.13384E-03   768   0.288E-03-0.132E-05
CGA:   9    -0.663310354593E+03   -0.53226E-04   -0.53225E-04   768   0.186E-03-0.266E-06
  61 F= -.66987132E+03 E0= -.66986451E+03  d E =-.344176E-02  mag=     0.9694
       N       E                     dE             d eps       ncg     rms          ort
SDA:   1    -0.663273871812E+03    0.36430E-01    0.00000E+00   768   0.103E+00 0.000E+00
CGA:   2    -0.663299615010E+03   -0.25743E-01   -0.25745E-01   768   0.460E-01-0.184E-04
CGA:   3    -0.663307174596E+03   -0.75596E-02   -0.75587E-02   768   0.201E-01-0.218E-04
CGA:   4    -0.663310230665E+03   -0.30561E-02   -0.30562E-02   768   0.551E-02-0.212E-05
CGA:   5    -0.663311119186E+03   -0.88852E-03   -0.88850E-03   768   0.165E-02 0.787E-06
CGA:   6    -0.663311420276E+03   -0.30109E-03   -0.30109E-03   768   0.727E-03 0.148E-06
CGA:   7    -0.663311551147E+03   -0.13087E-03   -0.13087E-03   768   0.386E-03-0.120E-05
CGA:   8    -0.663311610778E+03   -0.59631E-04   -0.59621E-04   768   0.175E-03-0.406E-06
  62 F= -.66987287E+03 E0= -.66986601E+03  d E =-.154652E-02  mag=     0.9691
       N       E                     dE             d eps       ncg     rms          ort
SDA:   1    -0.663186605579E+03    0.12495E+00    0.00000E+00   768   0.344E+00 0.000E+00
CGA:   2    -0.663271868596E+03   -0.85263E-01   -0.85269E-01   768   0.156E+00-0.878E-04
CGA:   3    -0.663296872165E+03   -0.25004E-01   -0.24995E-01   768   0.695E-01-0.139E-03
CGA:   4    -0.663307160569E+03   -0.10288E-01   -0.10291E-01   768   0.193E-01-0.246E-05
CGA:   5    -0.663310328612E+03   -0.31680E-02   -0.31676E-02   768   0.587E-02-0.661E-05
CGA:   6    -0.663311289918E+03   -0.96131E-03   -0.96136E-03   768   0.285E-02 0.819E-06
CGA:   7    -0.663311763605E+03   -0.47369E-03   -0.47363E-03   768   0.126E-02-0.252E-05
CGA:   8    -0.663311993479E+03   -0.22987E-03   -0.22987E-03   768   0.558E-03-0.453E-06
CGA:   9    -0.663312114507E+03   -0.12103E-03   -0.12108E-03   768   0.295E-03-0.131E-05
CGA:  10    -0.663312164065E+03   -0.49558E-04   -0.49567E-04   768   0.147E-03 0.601E-06
  63 F= -.66987395E+03 E0= -.66986699E+03  d E =-.262484E-02  mag=     0.9680
       N       E                     dE             d eps       ncg     rms          ort
SDA:   1    -0.663240902286E+03    0.71212E-01    0.00000E+00   768   0.202E+00 0.000E+00
CGA:   2    -0.663290963831E+03   -0.50062E-01   -0.50059E-01   768   0.900E-01 0.307E-04
CGA:   3    -0.663305403763E+03   -0.14440E-01   -0.14438E-01   768   0.384E-01-0.454E-04
CGA:   4    -0.663311329855E+03   -0.59261E-02   -0.59266E-02   768   0.105E-01-0.131E-05
CGA:   5    -0.663313018619E+03   -0.16888E-02   -0.16886E-02   768   0.310E-02-0.254E-05
CGA:   6    -0.663313583251E+03   -0.56463E-03   -0.56463E-03   768   0.141E-02-0.112E-05
CGA:   7    -0.663313822582E+03   -0.23933E-03   -0.23930E-03   768   0.737E-03-0.248E-05
CGA:   8    -0.663313941425E+03   -0.11884E-03   -0.11883E-03   768   0.319E-03-0.763E-06
CGA:   9    -0.663314011948E+03   -0.70523E-04   -0.70565E-04   768   0.142E-03-0.981E-06
  64 F= -.66987610E+03 E0= -.66986912E+03  d E =-.215499E-02  mag=     0.9673
       N       E                     dE             d eps       ncg     rms          ort
SDA:   1    -0.662951795737E+03    0.36215E+00    0.00000E+00   768   0.100E+01 0.000E+00
CGA:   2    -0.663200536498E+03   -0.24874E+00   -0.24873E+00   768   0.446E+00 0.172E-03
CGA:   3    -0.663272273874E+03   -0.71737E-01   -0.71733E-01   768   0.191E+00-0.123E-03
CGA:   4    -0.663301571587E+03   -0.29298E-01   -0.29298E-01   768   0.519E-01-0.153E-04
CGA:   5    -0.663310168749E+03   -0.85972E-02   -0.85969E-02   768   0.144E-01-0.812E-05
CGA:   6    -0.663313006895E+03   -0.28381E-02   -0.28383E-02   768   0.577E-02-0.753E-05
CGA:   7    -0.663314248839E+03   -0.12419E-02   -0.12420E-02   768   0.230E-02-0.252E-05
CGA:   8    -0.663314757064E+03   -0.50823E-03   -0.50842E-03   768   0.139E-02-0.457E-05
CGA:   9    -0.663314971674E+03   -0.21461E-03   -0.21466E-03   768   0.740E-03 0.841E-06
CGA:  10    -0.663315104099E+03   -0.13243E-03   -0.13242E-03   768   0.232E-03-0.694E-06
CGA:  11    -0.663315158287E+03   -0.54187E-04   -0.54162E-04   768   0.879E-04 0.490E-06
  65 F= -.66987792E+03 E0= -.66987089E+03  d E =-.397770E-02  mag=     0.9658
       N       E                     dE             d eps       ncg     rms          ort
SDA:   1    -0.663224413185E+03    0.90691E-01    0.00000E+00   768   0.256E+00 0.000E+00
CGA:   2    -0.663288322045E+03   -0.63909E-01   -0.63905E-01   768   0.112E+00 0.479E-04
CGA:   3    -0.663306121242E+03   -0.17799E-01   -0.17802E-01   768   0.482E-01 0.219E-04
CGA:   4    -0.663313408485E+03   -0.72872E-02   -0.72859E-02   768   0.134E-01-0.573E-05
CGA:   5    -0.663315535806E+03   -0.21273E-02   -0.21275E-02   768   0.382E-02 0.115E-05
CGA:   6    -0.663316191366E+03   -0.65556E-03   -0.65548E-03   768   0.188E-02-0.397E-05
CGA:   7    -0.663316488365E+03   -0.29700E-03   -0.29695E-03   768   0.847E-03-0.251E-05
CGA:   8    -0.663316642398E+03   -0.15403E-03   -0.15403E-03   768   0.365E-03-0.268E-05
CGA:   9    -0.663316723873E+03   -0.81474E-04   -0.81471E-04   768   0.183E-03 0.132E-07
  66 F= -.66987990E+03 E0= -.66987284E+03  d E =-.197486E-02  mag=     0.9664
       N       E                     dE             d eps       ncg     rms          ort
SDA:   1    -0.663235284064E+03    0.81358E-01    0.00000E+00   768   0.227E+00 0.000E+00
CGA:   2    -0.663291771776E+03   -0.56488E-01   -0.56484E-01   768   0.990E-01 0.444E-04
CGA:   3    -0.663307589059E+03   -0.15817E-01   -0.15819E-01   768   0.426E-01 0.127E-04
CGA:   4    -0.663314082349E+03   -0.64933E-02   -0.64924E-02   768   0.114E-01-0.514E-05
CGA:   5    -0.663315942133E+03   -0.18598E-02   -0.18599E-02   768   0.348E-02 0.576E-06
CGA:   6    -0.663316539589E+03   -0.59746E-03   -0.59739E-03   768   0.166E-02-0.380E-05
CGA:   7    -0.663316806837E+03   -0.26725E-03   -0.26720E-03   768   0.791E-03-0.244E-05
CGA:   8    -0.663316945291E+03   -0.13845E-03   -0.13844E-03   768   0.335E-03-0.248E-05
CGA:   9    -0.663317020940E+03   -0.75649E-04   -0.75647E-04   768   0.162E-03 0.126E-07
  67 F= -.66988056E+03 E0= -.66987349E+03  d E =-.264083E-02  mag=     0.9670
       N       E                     dE             d eps       ncg     rms          ort
SDA:   1    -0.663257250245E+03    0.59695E-01    0.00000E+00   768   0.167E+00 0.000E+00
CGA:   2    -0.663302356990E+03   -0.45107E-01   -0.45113E-01   768   0.586E-01-0.658E-04
CGA:   3    -0.663313518256E+03   -0.11161E-01   -0.11161E-01   768   0.246E-01 0.348E-05
CGA:   4    -0.663317035777E+03   -0.35175E-02   -0.35177E-02   768   0.628E-02 0.250E-05
CGA:   5    -0.663318073087E+03   -0.10373E-02   -0.10373E-02   768   0.159E-02 0.810E-06
CGA:   6    -0.663318396448E+03   -0.32336E-03   -0.32339E-03   768   0.614E-03-0.126E-05
CGA:   7    -0.663318517187E+03   -0.12074E-03   -0.12075E-03   768   0.207E-03-0.107E-05
CGA:   8    -0.663318570252E+03   -0.53064E-04   -0.53073E-04   768   0.104E-03-0.119E-06
  68 F= -.66988246E+03 E0= -.66987535E+03  d E =-.189167E-02  mag=     0.9669
       N       E                     dE             d eps       ncg     rms          ort
SDA:   1    -0.663219347371E+03    0.99170E-01    0.00000E+00   768   0.271E+00 0.000E+00
CGA:   2    -0.663292540848E+03   -0.73193E-01   -0.73209E-01   768   0.972E-01-0.155E-03
CGA:   3    -0.663310336373E+03   -0.17796E-01   -0.17797E-01   768   0.443E-01 0.530E-04
CGA:   4    -0.663316259137E+03   -0.59228E-02   -0.59206E-02   768   0.123E-01 0.102E-04
CGA:   5    -0.663318079872E+03   -0.18207E-02   -0.18208E-02   768   0.361E-02 0.219E-05
CGA:   6    -0.663318646699E+03   -0.56683E-03   -0.56679E-03   768   0.149E-02-0.734E-06
CGA:   7    -0.663318907760E+03   -0.26106E-03   -0.26105E-03   768   0.548E-03-0.118E-05
CGA:   8    -0.663319007327E+03   -0.99567E-04   -0.99562E-04   768   0.282E-03-0.104E-05
  69 F= -.66988331E+03 E0= -.66987616E+03  d E =-.274851E-02  mag=     0.9666
       N       E                     dE             d eps       ncg     rms          ort
SDA:   1    -0.663244464759E+03    0.74443E-01    0.00000E+00   768   0.205E+00 0.000E+00
CGA:   2    -0.663302149211E+03   -0.57684E-01   -0.57686E-01   768   0.682E-01-0.124E-04
[...]
CGA:  10    -0.663327817095E+03   -0.84765E-04   -0.84765E-04   768   0.221E-03-0.503E-07
  75 F= -.66989354E+03 E0= -.66988625E+03  d E =-.417370E-02  mag=     0.9721
       N       E                     dE             d eps       ncg     rms          ort
SDA:   1    -0.663183165123E+03    0.14457E+00    0.00000E+00   768   0.397E+00 0.000E+00
CGA:   2    -0.663290922900E+03   -0.10776E+00   -0.10778E+00   768   0.155E+00-0.238E-03
CGA:   3    -0.663316548704E+03   -0.25626E-01   -0.25632E-01   768   0.712E-01 0.124E-03
CGA:   4    -0.663326055209E+03   -0.95065E-02   -0.95051E-02   768   0.191E-01 0.217E-04
CGA:   5    -0.663328846719E+03   -0.27915E-02   -0.27916E-02   768   0.530E-02 0.179E-05
CGA:   6    -0.663329711432E+03   -0.86471E-03   -0.86465E-03   768   0.212E-02-0.261E-05
CGA:   7    -0.663330085362E+03   -0.37393E-03   -0.37393E-03   768   0.823E-03-0.607E-06
CGA:   8    -0.663330224662E+03   -0.13930E-03   -0.13930E-03   768   0.406E-03-0.274E-06
CGA:   9    -0.663330303328E+03   -0.78666E-04   -0.78648E-04   768   0.207E-03 0.116E-05
  76 F= -.66989627E+03 E0= -.66988900E+03  d E =-.273522E-02  mag=     0.9722
       N       E                     dE             d eps       ncg     rms          ort
SDA:   1    -0.662942557320E+03    0.38767E+00    0.00000E+00   768   0.105E+01 0.000E+00
CGA:   2    -0.663227998127E+03   -0.28544E+00   -0.28555E+00   768   0.399E+00-0.975E-03
CGA:   3    -0.663296859932E+03   -0.68862E-01   -0.68876E-01   768   0.175E+00 0.533E-03
CGA:   4    -0.663320659014E+03   -0.23799E-01   -0.23783E-01   768   0.471E-01 0.210E-04
CGA:   5    -0.663327729646E+03   -0.70706E-02   -0.70713E-02   768   0.135E-01 0.111E-04
CGA:   6    -0.663329819726E+03   -0.20901E-02   -0.20899E-02   768   0.579E-02-0.436E-05
CGA:   7    -0.663330802792E+03   -0.98307E-03   -0.98307E-03   768   0.204E-02-0.146E-06
CGA:   8    -0.663331178222E+03   -0.37543E-03   -0.37543E-03   768   0.990E-03-0.502E-06
CGA:   9    -0.663331372504E+03   -0.19428E-03   -0.19425E-03   768   0.563E-03 0.203E-05
CGA:  10    -0.663331471245E+03   -0.98741E-04   -0.98739E-04   768   0.260E-03-0.357E-06
  77 F= -.66989784E+03 E0= -.66989057E+03  d E =-.430172E-02  mag=     0.9718
       N       E                     dE             d eps       ncg     rms          ort
SDA:   1    -0.663097261033E+03    0.23411E+00    0.00000E+00   768   0.641E+00 0.000E+00
CGA:   2    -0.663269059112E+03   -0.17180E+00   -0.17182E+00   768   0.268E+00-0.156E-03
CGA:   3    -0.663309508000E+03   -0.40449E-01   -0.40471E-01   768   0.125E+00 0.209E-03
CGA:   4    -0.663326520649E+03   -0.17013E-01   -0.17014E-01   768   0.319E-01 0.480E-04
CGA:   5    -0.663331340401E+03   -0.48198E-02   -0.48201E-02   768   0.848E-02 0.375E-05
CGA:   6    -0.663332780879E+03   -0.14405E-02   -0.14404E-02   768   0.340E-02-0.719E-05
CGA:   7    -0.663333364770E+03   -0.58389E-03   -0.58388E-03   768   0.143E-02-0.218E-05
CGA:   8    -0.663333596628E+03   -0.23186E-03   -0.23184E-03   768   0.653E-03-0.106E-05
CGA:   9    -0.663333731677E+03   -0.13505E-03   -0.13501E-03   768   0.328E-03 0.138E-05
CGA:  10    -0.663333796123E+03   -0.64446E-04   -0.64453E-04   768   0.179E-03-0.411E-06
  78 F= -.66990044E+03 E0= -.66989318E+03  d E =-.259889E-02  mag=     0.9723
       N       E                     dE             d eps       ncg     rms          ort
SDA:   1    -0.661864710591E+03    0.14690E+01    0.00000E+00   768   0.399E+01 0.000E+00
CGA:   2    -0.662934564482E+03   -0.10699E+01   -0.10702E+01   768   0.166E+01-0.241E-02
CGA:   3    -0.663186999793E+03   -0.25244E+00   -0.25278E+00   768   0.765E+00 0.388E-02
CGA:   4    -0.663290677641E+03   -0.10368E+00   -0.10368E+00   768   0.200E+00 0.534E-03
CGA:   5    -0.663320901238E+03   -0.30224E-01   -0.30229E-01   768   0.532E-01 0.981E-04
CGA:   6    -0.663329734127E+03   -0.88329E-02   -0.88319E-02   768   0.213E-01-0.485E-04
CGA:   7    -0.663333435350E+03   -0.37012E-02   -0.37012E-02   768   0.853E-02 0.423E-06
CGA:   8    -0.663334832422E+03   -0.13971E-02   -0.13970E-02   768   0.402E-02-0.390E-05
CGA:   9    -0.663335637784E+03   -0.80536E-03   -0.80521E-03   768   0.199E-02 0.590E-05
CGA:  10    -0.663336028947E+03   -0.39116E-03   -0.39119E-03   768   0.104E-02-0.114E-05
CGA:  11    -0.663336209681E+03   -0.18073E-03   -0.18074E-03   768   0.488E-03 0.124E-05
CGA:  12    -0.663336300499E+03   -0.90819E-04   -0.90828E-04   768   0.192E-03-0.140E-05
  79 F= -.66990361E+03 E0= -.66989637E+03  d E =-.576682E-02  mag=     0.9735
       N       E                     dE             d eps       ncg     rms          ort
SDA:   1    -0.663241402674E+03    0.94807E-01    0.00000E+00   768   0.258E+00 0.000E+00
CGA:   2    -0.663311533360E+03   -0.70131E-01   -0.70113E-01   768   0.125E+00 0.182E-03
CGA:   3    -0.663327691262E+03   -0.16158E-01   -0.16153E-01   768   0.554E-01 0.702E-05
CGA:   4    -0.663335829173E+03   -0.81379E-02   -0.81393E-02   768   0.119E-01 0.259E-04
CGA:   5    -0.663337886295E+03   -0.20571E-02   -0.20571E-02   768   0.286E-02-0.370E-05
CGA:   6    -0.663338390631E+03   -0.50434E-03   -0.50432E-03   768   0.134E-02-0.563E-05
CGA:   7    -0.663338593292E+03   -0.20266E-03   -0.20257E-03   768   0.511E-03-0.298E-05
CGA:   8    -0.663338680293E+03   -0.87001E-04   -0.86993E-04   768   0.227E-03-0.112E-05
  80 F= -.66990604E+03 E0= -.66989876E+03  d E =-.243322E-02  mag=     0.9742
       N       E                     dE             d eps       ncg     rms          ort
SDA:   1    -0.663328915847E+03    0.96774E-02    0.00000E+00   768   0.268E-01 0.000E+00
CGA:   2    -0.663335947491E+03   -0.70316E-02   -0.70313E-02   768   0.143E-01 0.337E-05
CGA:   3    -0.663337692363E+03   -0.17449E-02   -0.17443E-02   768   0.581E-02-0.199E-05
CGA:   4    -0.663338588662E+03   -0.89630E-03   -0.89647E-03   768   0.118E-02 0.636E-05
CGA:   5    -0.663338819028E+03   -0.23037E-03   -0.23040E-03   768   0.336E-03-0.200E-05
CGA:   6    -0.663338875830E+03   -0.56802E-04   -0.56785E-04   768   0.178E-03-0.148E-05
  81 F= -.66990625E+03 E0= -.66989895E+03  d E =-.264441E-02  mag=     0.9744
       N       E                     dE             d eps       ncg     rms          ort
SDA:   1    -0.663291668691E+03    0.47150E-01    0.00000E+00   768   0.128E+00 0.000E+00
CGA:   2    -0.663327888523E+03   -0.36220E-01   -0.36224E-01   768   0.535E-01-0.272E-04
CGA:   3    -0.663335685485E+03   -0.77970E-02   -0.77947E-02   768   0.270E-01-0.127E-04
CGA:   4    -0.663339204900E+03   -0.35194E-02   -0.35210E-02   768   0.562E-02 0.138E-04
CGA:   5    -0.663340204453E+03   -0.99955E-03   -0.99955E-03   768   0.129E-02-0.182E-05
CGA:   6    -0.663340448952E+03   -0.24450E-03   -0.24451E-03   768   0.614E-03-0.125E-05
CGA:   7    -0.663340539842E+03   -0.90891E-04   -0.90848E-04   768   0.231E-03-0.130E-05
  82 F= -.66990803E+03 E0= -.66990068E+03  d E =-.178249E-02  mag=     0.9740
       N       E                     dE             d eps       ncg     rms          ort
SDA:   1    -0.663204651693E+03    0.13580E+00    0.00000E+00   768   0.357E+00 0.000E+00
CGA:   2    -0.663306822442E+03   -0.10217E+00   -0.10219E+00   768   0.138E+00-0.167E-03
CGA:   3    -0.663329488363E+03   -0.22666E-01   -0.22665E-01   768   0.687E-01-0.194E-04
CGA:   4    -0.663337739141E+03   -0.82508E-02   -0.82575E-02   768   0.163E-01 0.206E-04
CGA:   5    -0.663340531722E+03   -0.27926E-02   -0.27925E-02   768   0.354E-02-0.283E-05
CGA:   6    -0.663341237261E+03   -0.70554E-03   -0.70562E-03   768   0.164E-02-0.383E-05
CGA:   7    -0.663341480918E+03   -0.24366E-03   -0.24359E-03   768   0.654E-03-0.180E-05
CGA:   8    -0.663341593980E+03   -0.11306E-03   -0.11306E-03   768   0.317E-03-0.183E-06
CGA:   9    -0.663341661114E+03   -0.67135E-04   -0.67071E-04   768   0.147E-03 0.189E-05
  83 F= -.66990933E+03 E0= -.66990188E+03  d E =-.307898E-02  mag=     0.9729
       N       E                     dE             d eps       ncg     rms          ort
SDA:   1    -0.663327249097E+03    0.14345E-01    0.00000E+00   768   0.402E-01 0.000E+00
CGA:   2    -0.663338813416E+03   -0.11564E-01   -0.11566E-01   768   0.165E-01-0.179E-04
CGA:   3    -0.663341472142E+03   -0.26587E-02   -0.26588E-02   768   0.820E-02 0.366E-05
CGA:   4    -0.663342469279E+03   -0.99714E-03   -0.99772E-03   768   0.185E-02 0.773E-05
CGA:   5    -0.663342793261E+03   -0.32398E-03   -0.32397E-03   768   0.486E-03-0.127E-05
CGA:   6    -0.663342884911E+03   -0.91650E-04   -0.91660E-04   768   0.224E-03-0.148E-05
  84 F= -.66991062E+03 E0= -.66990319E+03  d E =-.129489E-02  mag=     0.9731
       N       E                     dE             d eps       ncg     rms          ort
SDA:   1    -0.663305867525E+03    0.36926E-01    0.00000E+00   768   0.973E-01 0.000E+00
CGA:   2    -0.663332768919E+03   -0.26901E-01   -0.26906E-01   768   0.512E-01-0.355E-04
CGA:   3    -0.663339202585E+03   -0.64337E-02   -0.64293E-02   768   0.216E-01 0.782E-06
CGA:   4    -0.663342443145E+03   -0.32406E-02   -0.32413E-02   768   0.482E-02 0.173E-04
CGA:   5    -0.663343311281E+03   -0.86814E-03   -0.86813E-03   768   0.126E-02-0.954E-06
CGA:   6    -0.663343540562E+03   -0.22928E-03   -0.22928E-03   768   0.599E-03-0.195E-05
CGA:   7    -0.663343633278E+03   -0.92716E-04   -0.92681E-04   768   0.260E-03-0.125E-05
  85 F= -.66991148E+03 E0= -.66990409E+03  d E =-.214852E-02  mag=     0.9737
       N       E                     dE             d eps       ncg     rms          ort
SDA:   1    -0.663327937397E+03    0.15603E-01    0.00000E+00   768   0.425E-01 0.000E+00
CGA:   2    -0.663340217703E+03   -0.12280E-01   -0.12278E-01   768   0.191E-01 0.161E-04
CGA:   3    -0.663342928934E+03   -0.27112E-02   -0.27107E-02   768   0.905E-02-0.227E-05
CGA:   4    -0.663344122304E+03   -0.11934E-02   -0.11938E-02   768   0.203E-02 0.763E-05
CGA:   5    -0.663344491950E+03   -0.36965E-03   -0.36965E-03   768   0.505E-03-0.149E-05
CGA:   6    -0.663344585374E+03   -0.93424E-04   -0.93435E-04   768   0.242E-03-0.229E-05
  86 F= -.66991249E+03 E0= -.66990514E+03  d E =-.100870E-02  mag=     0.9747
       N       E                     dE             d eps       ncg     rms          ort
SDA:   1    -0.663333080136E+03    0.11412E-01    0.00000E+00   768   0.303E-01 0.000E+00
CGA:   2    -0.663341420757E+03   -0.83406E-02   -0.83394E-02   768   0.176E-01 0.117E-04
CGA:   3    -0.663343455559E+03   -0.20348E-02   -0.20332E-02   768   0.650E-02-0.165E-06
CGA:   4    -0.663344529645E+03   -0.10741E-02   -0.10742E-02   768   0.143E-02 0.778E-05
CGA:   5    -0.663344794460E+03   -0.26482E-03   -0.26482E-03   768   0.384E-03-0.196E-05
CGA:   6    -0.663344862237E+03   -0.67776E-04   -0.67771E-04   768   0.193E-03-0.142E-05
  87 F= -.66991281E+03 E0= -.66990549E+03  d E =-.133101E-02  mag=     0.9756
       N       E                     dE             d eps       ncg     rms          ort
SDA:   1    -0.663332462970E+03    0.12331E-01    0.00000E+00   768   0.339E-01 0.000E+00
CGA:   2    -0.663342020203E+03   -0.95572E-02   -0.95577E-02   768   0.151E-01-0.347E-05
CGA:   3    -0.663344320734E+03   -0.23005E-02   -0.23007E-02   768   0.690E-02 0.103E-05
CGA:   4    -0.663345236290E+03   -0.91556E-03   -0.91568E-03   768   0.185E-02 0.347E-05
CGA:   5    -0.663345537171E+03   -0.30088E-03   -0.30086E-03   768   0.527E-03-0.130E-05
CGA:   6    -0.663345627417E+03   -0.90246E-04   -0.90238E-04   768   0.247E-03-0.955E-06
  88 F= -.66991361E+03 E0= -.66990630E+03  d E =-.801045E-03  mag=     0.9754
       N       E                     dE             d eps       ncg     rms          ort
SDA:   1    -0.663275563490E+03    0.69974E-01    0.00000E+00   768   0.182E+00 0.000E+00
CGA:   2    -0.663326702283E+03   -0.51139E-01   -0.51142E-01   768   0.816E-01-0.250E-04
CGA:   3    -0.663339399038E+03   -0.12697E-01   -0.12700E-01   768   0.346E-01 0.439E-04
CGA:   4    -0.663344224415E+03   -0.48254E-02   -0.48247E-02   768   0.979E-02 0.762E-05
CGA:   5    -0.663345704656E+03   -0.14802E-02   -0.14802E-02   768   0.305E-02-0.139E-05
CGA:   6    -0.663346198887E+03   -0.49423E-03   -0.49418E-03   768   0.130E-02-0.281E-05
CGA:   7    -0.663346430504E+03   -0.23162E-03   -0.23162E-03   768   0.545E-03-0.940E-06
CGA:   8    -0.663346530306E+03   -0.99802E-04   -0.99804E-04   768   0.281E-03-0.294E-06
  89 F= -.66991459E+03 E0= -.66990728E+03  d E =-.178271E-02  mag=     0.9744
       N       E                     dE             d eps       ncg     rms          ort
SDA:   1    -0.663321561407E+03    0.24869E-01    0.00000E+00   768   0.652E-01 0.000E+00
CGA:   2    -0.663340358361E+03   -0.18797E-01   -0.18799E-01   768   0.286E-01-0.214E-04
CGA:   3    -0.663345130670E+03   -0.47723E-02   -0.47721E-02   768   0.996E-02-0.497E-05
CGA:   4    -0.663346593855E+03   -0.14632E-02   -0.14633E-02   768   0.298E-02-0.197E-05
CGA:   5    -0.663347048936E+03   -0.45508E-03   -0.45512E-03   768   0.101E-02 0.186E-05
CGA:   6    -0.663347200339E+03   -0.15140E-03   -0.15144E-03   768   0.417E-03 0.107E-05
CGA:   7    -0.663347273358E+03   -0.73019E-04   -0.73021E-04   768   0.166E-03 0.478E-06
  90 F= -.66991549E+03 E0= -.66990814E+03  d E =-.896930E-03  mag=     0.9735
       N       E                     dE             d eps       ncg     rms          ort
SDA:   1    -0.663340256738E+03    0.69436E-02    0.00000E+00   768   0.179E-01 0.000E+00
CGA:   2    -0.663345441156E+03   -0.51844E-02   -0.51845E-02   768   0.780E-02-0.801E-06
CGA:   3    -0.663346746141E+03   -0.13050E-02   -0.13050E-02   768   0.287E-02-0.151E-05
CGA:   4    -0.663347136723E+03   -0.39058E-03   -0.39055E-03   768   0.978E-03-0.123E-05
CGA:   5    -0.663347298659E+03   -0.16194E-03   -0.16195E-03   768   0.239E-03 0.102E-05
CGA:   6    -0.663347345847E+03   -0.47188E-04   -0.47175E-04   768   0.131E-03 0.772E-06
  91 F= -.66991564E+03 E0= -.66990826E+03  d E =-.104948E-02  mag=     0.9730
       N       E                     dE             d eps       ncg     rms          ort
SDA:   1    -0.663335164134E+03    0.12135E-01    0.00000E+00   768   0.320E-01 0.000E+00
CGA:   2    -0.663344874204E+03   -0.97101E-02   -0.97097E-02   768   0.112E-01 0.214E-05
CGA:   3    -0.663346995356E+03   -0.21212E-02   -0.21211E-02   768   0.434E-02 0.165E-05
CGA:   4    -0.663347563374E+03   -0.56802E-03   -0.56801E-03   768   0.145E-02-0.132E-05
CGA:   5    -0.663347776854E+03   -0.21348E-03   -0.21346E-03   768   0.342E-03-0.471E-06
CGA:   6    -0.663347839525E+03   -0.62671E-04   -0.62673E-04   768   0.185E-03-0.749E-06
  92 F= -.66991621E+03 E0= -.66990880E+03  d E =-.565076E-03  mag=     0.9730
       N       E                     dE             d eps       ncg     rms          ort
SDA:   1    -0.663287056568E+03    0.60720E-01    0.00000E+00   768   0.154E+00 0.000E+00
CGA:   2    -0.663333831029E+03   -0.46774E-01   -0.46770E-01   768   0.544E-01 0.314E-04
CGA:   3    -0.663344414919E+03   -0.10584E-01   -0.10584E-01   768   0.175E-01 0.794E-05
CGA:   4    -0.663347165438E+03   -0.27505E-02   -0.27506E-02   768   0.531E-02 0.916E-06
CGA:   5    -0.663347960971E+03   -0.79553E-03   -0.79542E-03   768   0.140E-02-0.194E-05
CGA:   6    -0.663348248376E+03   -0.28740E-03   -0.28744E-03   768   0.592E-03-0.147E-05
CGA:   7    -0.663348337583E+03   -0.89207E-04   -0.89200E-04   768   0.289E-03-0.171E-06
  93 F= -.66991686E+03 E0= -.66990942E+03  d E =-.121776E-02  mag=     0.9730
       N       E                     dE             d eps       ncg     rms          ort
SDA:   1    -0.663101560610E+03    0.24669E+00    0.00000E+00   768   0.618E+00 0.000E+00
CGA:   2    -0.663288497533E+03   -0.18694E+00   -0.18691E+00   768   0.221E+00 0.217E-03
CGA:   3    -0.663330954260E+03   -0.42457E-01   -0.42455E-01   768   0.759E-01 0.174E-03
CGA:   4    -0.663341377798E+03   -0.10424E-01   -0.10418E-01   768   0.269E-01 0.112E-05
CGA:   5    -0.663345184009E+03   -0.38062E-02   -0.38064E-02   768   0.636E-02-0.595E-07
CGA:   6    -0.663346350149E+03   -0.11661E-02   -0.11661E-02   768   0.334E-02-0.275E-05
CGA:   7    -0.663346823800E+03   -0.47365E-03   -0.47362E-03   768   0.105E-02-0.626E-06
CGA:   8    -0.663347051805E+03   -0.22801E-03   -0.22800E-03   768   0.578E-03 0.442E-07
CGA:   9    -0.663347158630E+03   -0.10682E-03   -0.10682E-03   768   0.304E-03 0.114E-05
CGA:  10    -0.663347213237E+03   -0.54607E-04   -0.54606E-04   768   0.155E-03-0.273E-06
  94 F= -.66991604E+03 E0= -.66990851E+03  d E =-.395197E-03  mag=     0.9731
       N       E                     dE             d eps       ncg     rms          ort
SDA:   1    -0.663210969243E+03    0.13619E+00    0.00000E+00   768   0.346E+00 0.000E+00
CGA:   2    -0.663315789219E+03   -0.10482E+00   -0.10484E+00   768   0.122E+00-0.104E-03
CGA:   3    -0.663339718606E+03   -0.23929E-01   -0.23929E-01   768   0.398E-01 0.116E-04
CGA:   4    -0.663345531235E+03   -0.58126E-02   -0.58124E-02   768   0.130E-01 0.161E-05
CGA:   5    -0.663347447547E+03   -0.19163E-02   -0.19166E-02   768   0.288E-02 0.416E-05
CGA:   6    -0.663348083787E+03   -0.63624E-03   -0.63615E-03   768   0.101E-02 0.275E-05
CGA:   7    -0.663348263907E+03   -0.18012E-03   -0.18012E-03   768   0.451E-03 0.273E-06
CGA:   8    -0.663348343844E+03   -0.79937E-04   -0.79933E-04   768   0.283E-03-0.487E-06
  95 F= -.66991694E+03 E0= -.66990946E+03  d E =-.130114E-02  mag=     0.9728
       N       E                     dE             d eps       ncg     rms          ort
SDA:   1    -0.663320048224E+03    0.28216E-01    0.00000E+00   768   0.761E-01 0.000E+00
CGA:   2    -0.663340107270E+03   -0.20059E-01   -0.20060E-01   768   0.379E-01-0.476E-05
CGA:   3    -0.663345959869E+03   -0.58526E-02   -0.58542E-02   768   0.161E-01 0.158E-04
CGA:   4    -0.663348193578E+03   -0.22337E-02   -0.22335E-02   768   0.449E-02 0.634E-05
CGA:   5    -0.663348903955E+03   -0.71038E-03   -0.71038E-03   768   0.137E-02-0.127E-05
CGA:   6    -0.663349134627E+03   -0.23067E-03   -0.23063E-03   768   0.649E-03-0.244E-05
CGA:   7    -0.663349242234E+03   -0.10761E-03   -0.10760E-03   768   0.290E-03-0.463E-06
CGA:   8    -0.663349295710E+03   -0.53475E-04   -0.53474E-04   768   0.133E-03 0.372E-06
  96 F= -.66991792E+03 E0= -.66991048E+03  d E =-.973989E-03  mag=     0.9730
       N       E                     dE             d eps       ncg     rms          ort
SDA:   1    -0.663320188903E+03    0.29053E-01    0.00000E+00   768   0.768E-01 0.000E+00
CGA:   2    -0.663340235103E+03   -0.20046E-01   -0.20047E-01   768   0.392E-01-0.629E-05
CGA:   3    -0.663346132499E+03   -0.58974E-02   -0.58992E-02   768   0.169E-01 0.161E-04
CGA:   4    -0.663348480336E+03   -0.23478E-02   -0.23476E-02   768   0.436E-02 0.670E-05
CGA:   5    -0.663349239484E+03   -0.75915E-03   -0.75915E-03   768   0.157E-02-0.111E-05
CGA:   6    -0.663349490785E+03   -0.25130E-03   -0.25124E-03   768   0.762E-03-0.223E-05
CGA:   7    -0.663349622164E+03   -0.13138E-03   -0.13138E-03   768   0.336E-03-0.438E-06
CGA:   8    -0.663349685067E+03   -0.62904E-04   -0.62901E-04   768   0.159E-03 0.413E-06
  97 F= -.66991832E+03 E0= -.66991093E+03  d E =-.138312E-02  mag=     0.9731
       N       E                     dE             d eps       ncg     rms          ort
SDA:   1    -0.663324601779E+03    0.25020E-01    0.00000E+00   768   0.655E-01 0.000E+00
CGA:   2    -0.663343810088E+03   -0.19208E-01   -0.19213E-01   768   0.256E-01-0.352E-04
CGA:   3    -0.663348497802E+03   -0.46877E-02   -0.46878E-02   768   0.934E-02 0.826E-05
CGA:   4    -0.663349755597E+03   -0.12578E-02   -0.12577E-02   768   0.300E-02 0.348E-05
CGA:   5    -0.663350238667E+03   -0.48307E-03   -0.48309E-03   768   0.758E-03 0.644E-06
CGA:   6    -0.663350376562E+03   -0.13789E-03   -0.13790E-03   768   0.412E-03 0.301E-06
CGA:   7    -0.663350435593E+03   -0.59031E-04   -0.59055E-04   768   0.149E-03 0.577E-06
  98 F= -.66991917E+03 E0= -.66991181E+03  d E =-.847620E-03  mag=     0.9724
