       N       E                     dE             d eps       ncg     rms          rms(c)
DAV:   1     0.250110645764E+04    0.25011E+04   -0.11213E+05  4400   0.107E+03
DAV:   2    -0.248470158176E+03   -0.27496E+04   -0.26243E+04  5480   0.279E+02
DAV:   3    -0.702690743345E+03   -0.45422E+03   -0.45076E+03  4576   0.120E+02
DAV:   4    -0.718958086804E+03   -0.16267E+02   -0.16131E+02  4664   0.279E+01
DAV:   5    -0.719491617727E+03   -0.53353E+00   -0.53244E+00  5272   0.424E+00    0.476E+01
DAV:   6    -0.719685102915E+03   -0.19349E+00   -0.89012E+01  4840   0.279E+01    0.745E+01
DAV:   7    -0.673589268580E+03    0.46096E+02   -0.63680E+01  5008   0.537E+01    0.268E+01
DAV:   8    -0.670221514221E+03    0.33678E+01   -0.37163E+01  4912   0.136E+01    0.264E+01
DAV:   9    -0.664063334244E+03    0.61582E+01   -0.24005E+01  4624   0.138E+01    0.202E+01
DAV:  10    -0.662219466500E+03    0.18439E+01   -0.21375E+01  5176   0.126E+01    0.117E+01
DAV:  11    -0.661513218017E+03    0.70625E+00   -0.15161E+00  5384   0.334E+00    0.700E+00
DAV:  12    -0.661795547743E+03   -0.28233E+00   -0.59148E-01  4712   0.183E+00    0.651E+00
DAV:  13    -0.661957048620E+03   -0.16150E+00   -0.38829E-01  4656   0.145E+00    0.472E+00
DAV:  14    -0.661934849129E+03    0.22199E-01   -0.11245E-01  4968   0.942E-01    0.360E+00
DAV:  15    -0.661976790455E+03   -0.41941E-01   -0.93672E-02  4632   0.702E-01    0.320E+00
DAV:  16    -0.661963088060E+03    0.13702E-01   -0.25803E-02  4808   0.400E-01    0.242E+00
DAV:  17    -0.661942718835E+03    0.20369E-01   -0.12150E-02  5048   0.327E-01    0.180E+00
DAV:  18    -0.661932668220E+03    0.10051E-01   -0.43991E-03  5152   0.188E-01    0.148E+00
DAV:  19    -0.661921176810E+03    0.11491E-01   -0.95736E-03  5088   0.262E-01    0.954E-01
DAV:  20    -0.661916519583E+03    0.46572E-02   -0.33557E-03  4848   0.189E-01    0.535E-01
DAV:  21    -0.661915949324E+03    0.57026E-03   -0.98390E-04  4408   0.754E-02    0.464E-01
DAV:  22    -0.661916197904E+03   -0.24858E-03   -0.75369E-04  4160   0.695E-02    0.465E-01
DAV:  23    -0.661915206202E+03    0.99170E-03   -0.19703E-03  4808   0.108E-01    0.300E-01
DAV:  24    -0.661914963231E+03    0.24297E-03   -0.28593E-04  3408   0.518E-02    0.229E-01
DAV:  25    -0.661914533334E+03    0.42990E-03   -0.21786E-04  3312   0.557E-02    0.139E-01
DAV:  26    -0.661914496104E+03    0.37229E-04   -0.17974E-04  3304   0.370E-02
   1 F= -.66834000E+03 E0= -.66834000E+03  d E =0.000000E+00  mag=    -1.0058
