       N       E                     dE             d eps       ncg     rms          rms(c)
DAV:   1     0.232523236600E+04    0.23252E+04   -0.87665E+04  3880   0.105E+03
DAV:   2     0.183514763357E+03   -0.21417E+04   -0.20406E+04  4912   0.244E+02
DAV:   3    -0.405109165983E+03   -0.58862E+03   -0.58291E+03  4256   0.138E+02
DAV:   4    -0.436807311119E+03   -0.31698E+02   -0.30676E+02  4080   0.423E+01
DAV:   5    -0.438578968679E+03   -0.17717E+01   -0.17489E+01  4960   0.897E+00    0.316E+01
DAV:   6    -0.421767703474E+03    0.16811E+02   -0.71444E+01  4712   0.189E+01    0.179E+01
DAV:   7    -0.421165364960E+03    0.60234E+00   -0.16205E+01  4256   0.137E+01    0.131E+01
DAV:   8    -0.420703650536E+03    0.46171E+00   -0.15038E+01  4280   0.103E+01    0.987E+00
DAV:   9    -0.420975746421E+03   -0.27210E+00   -0.24018E+01  4872   0.803E+00    0.716E+00
DAV:  10    -0.419892022597E+03    0.10837E+01   -0.47320E+00  4776   0.692E+00    0.343E+00
DAV:  11    -0.419755274783E+03    0.13675E+00   -0.17736E+00  4472   0.416E+00    0.277E+00
DAV:  12    -0.419603608592E+03    0.15167E+00   -0.12819E+00  4152   0.241E+00    0.125E+00
DAV:  13    -0.419595338873E+03    0.82697E-02   -0.18457E-01  4312   0.119E+00    0.809E-01
DAV:  14    -0.419591384117E+03    0.39548E-02   -0.71844E-02  4040   0.586E-01    0.609E-01
DAV:  15    -0.419594471723E+03   -0.30876E-02   -0.13462E-01  4608   0.526E-01    0.727E-01
DAV:  16    -0.419588487007E+03    0.59847E-02   -0.97605E-02  4472   0.431E-01    0.270E-01
DAV:  17    -0.419588645305E+03   -0.15830E-03   -0.64565E-03  3928   0.171E-01    0.123E-01
DAV:  18    -0.419588893526E+03   -0.24822E-03   -0.17074E-03  4160   0.682E-02    0.146E-01
DAV:  19    -0.419588715822E+03    0.17770E-03   -0.23734E-04  2160   0.253E-02    0.130E-01
DAV:  20    -0.419588433649E+03    0.28217E-03   -0.23301E-03  2896   0.392E-02    0.736E-02
DAV:  21    -0.419588663992E+03   -0.23034E-03   -0.47723E-04  2472   0.425E-02    0.640E-02
DAV:  22    -0.419588618845E+03    0.45147E-04   -0.74430E-04  2120   0.381E-02
   1 F= -.42279212E+03 E0= -.42279212E+03  d E =0.000000E+00  mag=     0.0000
