       N       E                     dE             d eps       ncg     rms          rms(c)
DAV:   1     0.261084737276E+04    0.26108E+04   -0.10031E+05  4072   0.111E+03
DAV:   2     0.948748014389E+02   -0.25160E+04   -0.24037E+04  4912   0.278E+02
DAV:   3    -0.492412704890E+03   -0.58729E+03   -0.58302E+03  4108   0.147E+02
DAV:   4    -0.519426699376E+03   -0.27014E+02   -0.26346E+02  4392   0.428E+01
DAV:   5    -0.520523947428E+03   -0.10972E+01   -0.10833E+01  5056   0.736E+00    0.401E+01
DAV:   6    -0.493792828362E+03    0.26731E+02   -0.56666E+01  4376   0.229E+01    0.243E+01
DAV:   7    -0.489797680726E+03    0.39951E+01   -0.37238E+01  4240   0.151E+01    0.157E+01
DAV:   8    -0.488352791805E+03    0.14449E+01   -0.18456E+01  4176   0.120E+01    0.109E+01
DAV:   9    -0.487778761736E+03    0.57403E+00   -0.61307E+00  4192   0.689E+00    0.476E+00
DAV:  10    -0.487667775581E+03    0.11099E+00   -0.63207E+00  4904   0.619E+00    0.301E+00
DAV:  11    -0.487505860406E+03    0.16192E+00   -0.12008E+00  4208   0.316E+00    0.176E+00
DAV:  12    -0.487469507754E+03    0.36353E-01   -0.62988E-01  4480   0.191E+00    0.141E+00
DAV:  13    -0.487569380915E+03   -0.99873E-01   -0.20323E+00  4392   0.220E+00    0.217E+00
DAV:  14    -0.487445586066E+03    0.12379E+00   -0.28332E-01  4272   0.129E+00    0.111E+00
DAV:  15    -0.487444906329E+03    0.67974E-03   -0.23072E-01  4296   0.797E-01    0.652E-01
DAV:  16    -0.487449052104E+03   -0.41458E-02   -0.16267E-01  4056   0.571E-01    0.694E-01
DAV:  17    -0.487445001854E+03    0.40502E-02   -0.50757E-02  4168   0.311E-01    0.439E-01
DAV:  18    -0.487445926325E+03   -0.92447E-03   -0.24355E-02  4312   0.152E-01    0.326E-01
DAV:  19    -0.487446180683E+03   -0.25436E-03   -0.11964E-03  3400   0.605E-02    0.340E-01
DAV:  20    -0.487445678143E+03    0.50254E-03   -0.16738E-02  3920   0.126E-01    0.312E-01
DAV:  21    -0.487446193952E+03   -0.51581E-03   -0.10475E-02  3544   0.107E-01    0.277E-01
DAV:  22    -0.487446324075E+03   -0.13012E-03   -0.34523E-03  2568   0.500E-02    0.372E-01
DAV:  23    -0.487445592335E+03    0.73174E-03   -0.35170E-03  2648   0.498E-02    0.310E-01
DAV:  24    -0.487445940645E+03   -0.34831E-03   -0.18216E-02  2912   0.907E-02    0.372E-01
DAV:  25    -0.487445672354E+03    0.26829E-03   -0.35855E-03  2536   0.728E-02    0.229E-01
DAV:  26    -0.487445755885E+03   -0.83530E-04   -0.74518E-04  2448   0.367E-02
   1 F= -.49134872E+03 E0= -.49134872E+03  d E =0.000000E+00  mag=    -0.0297
