 vasp.5.4.4.18Apr17-6-g9f103f2a35 (build Jan 14 2022 15:04:31) complex          
  
 executed on             LinuxIFC date 2023.04.05  11:31:14
 running on   48 total cores
 distrk:  each k-point on   48 cores,    1 groups
 distr:  one band on NCORES_PER_BAND=  12 cores,    4 groups


--------------------------------------------------------------------------------------------------------


 INCAR:
 POTCAR:    PAW_PBE C 08Apr2002                   
 POTCAR:    PAW_PBE N 08Apr2002                   
 POTCAR:    PAW_PBE Ge_d 03Jul2007                
 POTCAR:    PAW_PBE C 08Apr2002                   
   SHA256 =  253f7b50bb8d59471dbedb8285d89021f4a42ed1a2c5d38a03a736e69125dd95 C/
   COPYR  = (c) Copyright 08Apr2002 Georg Kresse                                
   COPYR  = This file is part of the software VASP. Any use, copying, and all ot
   COPYR  = If you do not have a valid VASP license, you may not use, copy or di
   VRHFIN =C: s2p2                                                              
   LEXCH  = PE                                                                  
   EATOM  =   147.1560 eV,   10.8157 Ry                                         
                                                                                
   TITEL  = PAW_PBE C 08Apr2002                                                 
   LULTRA =        F    use ultrasoft PP ?                                      
   IUNSCR =        1    unscreen: 0-lin 1-nonlin 2-no                           
   RPACOR =    1.200    partial core radius                                     
   POMASS =   12.011; ZVAL   =    4.000    mass and valenz                      
   RCORE  =    1.500    outmost cutoff radius                                   
   RWIGS  =    1.630; RWIGS  =    0.863    wigner-seitz radius (au A)           
   ENMAX  =  400.000; ENMIN  =  300.000 eV                                      
   ICORE  =        2    local potential                                         
   LCOR   =        T    correct aug charges                                     
   LPAW   =        T    paw PP                                                  
   EAUG   =  644.873                                                            
   DEXC   =    0.000                                                            
   RMAX   =    1.529    core radius for proj-oper                               
   RAUG   =    1.300    factor for augmentation sphere                          
   RDEP   =    1.501    radius for radial grids                                 
   RDEPT  =    1.300    core radius for aug-charge                              
                                                                                
   Atomic configuration                                                         
    4 entries                                                                   
     n  l   j            E        occ.                                          
     1  0  0.50      -273.3789   2.0000                                         
     2  0  0.50       -13.7508   2.0000                                         
     2  1  0.50        -5.2854   2.0000                                         
     3  2  1.50        -5.4423   0.0000                                         
   Description                                                                  
     l       E           TYP  RCUT    TYP  RCUT                                 
     0    -13.7508458     23  1.200                                             
     0     -8.2022199     23  1.200                                             
     1     -5.2854383     23  1.500                                             
     1     34.0145650     23  1.500                                             
     2     -5.4423304      7  1.500                                             
  local pseudopotential read in
  partial core-charges read in
  partial kinetic energy density read in
  atomic valenz-charges read in
  non local Contribution for L=           0  read in
    real space projection operators read in
  non local Contribution for L=           0  read in
    real space projection operators read in
  non local Contribution for L=           1  read in
    real space projection operators read in
  non local Contribution for L=           1  read in
    real space projection operators read in
    PAW grid and wavefunctions read in
 
   number of l-projection  operators is LMAX  =           4
   number of lm-projection operators is LMMAX =           8
 
 POTCAR:    PAW_PBE N 08Apr2002                   
   SHA256 =  e053789ff3a61a86a1b75d8a110fcc91f86041011e7b0817c7c99e4e8a6349d7 N/
   COPYR  = (c) Copyright 08Apr2002 Georg Kresse                                
   COPYR  = This file is part of the software VASP. Any use, copying, and all ot
   COPYR  = If you do not have a valid VASP license, you may not use, copy or di
   VRHFIN =N: s2p3                                                              
   LEXCH  = PE                                                                  
   EATOM  =   264.5486 eV,   19.4438 Ry                                         
                                                                                
   TITEL  = PAW_PBE N 08Apr2002                                                 
   LULTRA =        F    use ultrasoft PP ?                                      
   IUNSCR =        1    unscreen: 0-lin 1-nonlin 2-no                           
   RPACOR =    1.200    partial core radius                                     
   POMASS =   14.001; ZVAL   =    5.000    mass and valenz                      
   RCORE  =    1.500    outmost cutoff radius                                   
   RWIGS  =    1.400; RWIGS  =    0.741    wigner-seitz radius (au A)           
   ENMAX  =  400.000; ENMIN  =  300.000 eV                                      
   ICORE  =        2    local potential                                         
   LCOR   =        T    correct aug charges                                     
   LPAW   =        T    paw PP                                                  
   EAUG   =  627.112                                                            
   DEXC   =    0.000                                                            
   RMAX   =    1.529    core radius for proj-oper                               
   RAUG   =    1.300    factor for augmentation sphere                          
   RDEP   =    1.514    radius for radial grids                                 
   RDEPT  =    1.338    core radius for aug-charge                              
                                                                                
   Atomic configuration                                                         
    4 entries                                                                   
     n  l   j            E        occ.                                          
     1  0  0.50      -384.7179   2.0000                                         
     2  0  0.50       -18.5828   2.0000                                         
     2  1  0.50        -7.0898   3.0000                                         
     3  2  1.50        -6.8029   0.0000                                         
   Description                                                                  
     l       E           TYP  RCUT    TYP  RCUT                                 
     0    -18.5828119     23  1.200                                             
     0    -13.5018863     23  1.200                                             
     1     -7.0897853     23  1.500                                             
     1      9.5240782     23  1.500                                             
     2     -6.8029130      7  1.500                                             
  local pseudopotential read in
  partial core-charges read in
  partial kinetic energy density read in
  atomic valenz-charges read in
  non local Contribution for L=           0  read in
    real space projection operators read in
  non local Contribution for L=           0  read in
    real space projection operators read in
  non local Contribution for L=           1  read in
    real space projection operators read in
  non local Contribution for L=           1  read in
    real space projection operators read in
    PAW grid and wavefunctions read in
 
   number of l-projection  operators is LMAX  =           4
   number of lm-projection operators is LMMAX =           8
 
 POTCAR:    PAW_PBE Ge_d 03Jul2007                
   SHA256 =  944b26c40d2d7c4f4eb1ff3a2e8dbfdd7129146276cd341854bfd5c0e57780ed Ge
   COPYR  = (c) Copyright 03Jul2007 Georg Kresse                                
   COPYR  = This file is part of the software VASP. Any use, copying, and all ot
   COPYR  = If you do not have a valid VASP license, you may not use, copy or di
   VRHFIN =Ge: 3d4s4p                                                           
   LEXCH  = PE                                                                  
   EATOM  =  2596.2402 eV,  190.8183 Ry                                         
                                                                                
   TITEL  = PAW_PBE Ge_d 03Jul2007                                              
   LULTRA =        F    use ultrasoft PP ?                                      
   IUNSCR =        1    unscreen: 0-lin 1-nonlin 2-no                           
   RPACOR =    2.000    partial core radius                                     
   POMASS =   72.610; ZVAL   =   14.000    mass and valenz                      
   RCORE  =    2.300    outmost cutoff radius                                   
   RWIGS  =    2.300; RWIGS  =    1.217    wigner-seitz radius (au A)           
   ENMAX  =  310.294; ENMIN  =  232.720 eV                                      
   ICORE  =        3    local potential                                         
   LCOR   =        T    correct aug charges                                     
   LPAW   =        T    paw PP                                                  
   EAUG   =  531.356                                                            
   DEXC   =    0.000                                                            
   RMAX   =    2.342    core radius for proj-oper                               
   RAUG   =    1.300    factor for augmentation sphere                          
   RDEP   =    2.318    radius for radial grids                                 
   RDEPT  =    1.783    core radius for aug-charge                              
                                                                                
   Atomic configuration                                                         
    9 entries                                                                   
     n  l   j            E        occ.                                          
     1  0  0.50    -10959.8463   2.0000                                         
     2  0  0.50     -1371.6056   2.0000                                         
     2  1  1.50     -1198.4791   6.0000                                         
     3  0  0.50      -168.4733   2.0000                                         
     3  1  1.50      -115.6019   6.0000                                         
     3  2  2.50       -29.3106  10.0000                                         
     4  0  0.50       -11.7309   2.0000                                         
     4  1  0.50        -3.8952   2.0000                                         
     4  3  2.50        -4.0817   0.0000                                         
   Description                                                                  
     l       E           TYP  RCUT    TYP  RCUT                                 
     2    -29.3105938     23  2.200                                             
     2    -13.6058260     23  2.200                                             
     0    -11.7309493     23  2.300                                             
     0     -7.4578696     23  2.300                                             
     1     -3.8952261     23  2.300                                             
     1      6.1178114     23  2.300                                             
     3     -1.3605826     23  2.300                                             
  local pseudopotential read in
  partial core-charges read in
  partial kinetic energy density read in
  atomic valenz-charges read in
  non local Contribution for L=           2  read in
    real space projection operators read in
  non local Contribution for L=           2  read in
    real space projection operators read in
  non local Contribution for L=           0  read in
    real space projection operators read in
  non local Contribution for L=           0  read in
    real space projection operators read in
  non local Contribution for L=           1  read in
    real space projection operators read in
  non local Contribution for L=           1  read in
    real space projection operators read in
    PAW grid and wavefunctions read in
 
   number of l-projection  operators is LMAX  =           6
   number of lm-projection operators is LMMAX =          18
 

 ----------------------------------------------------------------------------- 
|                                                                             |
|  ADVICE TO THIS USER RUNNING 'VASP/VAMP'   (HEAR YOUR MASTER'S VOICE ...):  |
|                                                                             |
|      You have a (more or less) 'large supercell' and for larger cells       |
|      it might be more efficient to use real space projection opertators     |
|      So try LREAL= Auto  in the INCAR   file.                               |
|      Mind:          For very  accurate calculation you might also keep the  |
|      reciprocal projection scheme          (i.e. LREAL=.FALSE.)             |
|                                                                             |
 ----------------------------------------------------------------------------- 

  PAW_PBE C 08Apr2002                   :
 energy of atom  1       EATOM= -147.1560
 kinetic energy error for atom=    0.0132 (will be added to EATOM!!)
  PAW_PBE N 08Apr2002                   :
 energy of atom  2       EATOM= -264.5486
 kinetic energy error for atom=    0.0298 (will be added to EATOM!!)
  PAW_PBE Ge_d 03Jul2007                :
 energy of atom  3       EATOM=-2596.2402
 kinetic energy error for atom=    0.0090 (will be added to EATOM!!)
 
 
 POSCAR: POSCAR-c3n4                             
  positions in cartesian coordinates
  No initial velocities read in
 exchange correlation table for  LEXCH =        8
   RHO(1)=    0.500       N(1)  =     2000
   RHO(2)=  100.500       N(2)  =     4000

 VTST: version 3.2, (02/03/18)

 CHAIN: initializing optimizer
 
 OPT: Using VASP Dynamics algorithm
 CHAIN: Read ICHAIN            0
 
 POSCAR: POSCAR-c3n4                             
  positions in cartesian coordinates
  No initial velocities read in
 


--------------------------------------------------------------------------------------------------------


 ion  position               nearest neighbor table
   1  0.106  0.214  0.426-  26 1.26  46 1.26  25 1.33
   2  0.288  0.399  0.433-  29 1.24  35 1.30  25 1.35
   3  0.104  0.392  0.427-  44 1.24  39 1.30  25 1.34
   4  0.447  0.064  0.506-  30 1.24  27 1.26  48 1.32
   5  0.453  0.401  0.413-  28 1.25  29 1.26  56 1.34
   6  0.112  0.053  0.449-  26 1.24  31 1.25  32 1.32
   7  0.096  0.712  0.484-  54 1.25  34 1.28  33 1.32
   8  0.284  0.890  0.501-  27 1.26  37 1.27  33 1.33
   9  0.109  0.895  0.498-  31 1.25  52 1.26  33 1.35
  10  0.448  0.548  0.502-  38 1.24  56 1.27  35 1.28
  11  0.445  0.885  0.489-  37 1.26  36 1.26  48 1.30
  12  0.087  0.542  0.481-  34 1.24  40 1.27  39 1.28
  13  0.616  0.223  0.473-  42 1.27  30 1.27  41 1.32
  14  0.780  0.390  0.400-  45 1.27  51 1.28  41 1.32
  15  0.610  0.394  0.435-  28 1.26  55 1.26  41 1.36
  16  0.940  0.052  0.461-  46 1.24  43 1.25  32 1.31
  17  0.941  0.387  0.394-  45 1.24  44 1.26  40 1.34
  18  0.623  0.066  0.512-  42 1.25  47 1.26  48 1.32
  19  0.613  0.711  0.531-  50 1.25  38 1.28  49 1.32
  20  0.790  0.897  0.523-  43 1.25  53 1.26  49 1.36
  21  0.609  0.892  0.521-  47 1.26  36 1.27  49 1.35
  22  0.938  0.563  0.421-  51 1.23  54 1.27  40 1.34
  23  0.954  0.902  0.535-  52 1.26  53 1.26  32 1.31
  24  0.621  0.555  0.490-  55 1.24  50 1.25  56 1.33
  25  0.167  0.335  0.425-   1 1.33   3 1.34   2 1.35
  26  0.165  0.161  0.421-   6 1.24   1 1.26
  27  0.336  0.002  0.522-   8 1.26   4 1.26
  28  0.512  0.352  0.392-   5 1.25  15 1.26
  29  0.345  0.361  0.390-   2 1.24   5 1.26
  30  0.506  0.177  0.493-   4 1.24  13 1.27
  31  0.159  0.988  0.447-   9 1.25   6 1.25
  32  0.002  0.002  0.483-  16 1.31  23 1.31   6 1.32
  33  0.165  0.831  0.500-   7 1.32   8 1.33   9 1.35
  34  0.134  0.645  0.518-  12 1.24   7 1.28
  35  0.334  0.491  0.492-  10 1.28   2 1.30  57 1.94
  36  0.503  0.831  0.490-  11 1.26  21 1.27
  37  0.333  0.829  0.479-  11 1.26   8 1.27
  38  0.499  0.648  0.545-  10 1.24  19 1.28
  39  0.142  0.484  0.485-  12 1.28   3 1.30  57 1.95
  40  0.988  0.496  0.436-  12 1.27  22 1.34  17 1.34
  41  0.667  0.330  0.429-  13 1.32  14 1.32  15 1.36
  42  0.680  0.178  0.495-  18 1.25  13 1.27
  43  0.827  0.986  0.468-  20 1.25  16 1.25
  44  0.011  0.348  0.379-   3 1.24  17 1.26
  45  0.830  0.330  0.380-  17 1.24  14 1.27
  46  0.993  0.161  0.435-  16 1.24   1 1.26
  47  0.669  0.005  0.539-  21 1.26  18 1.26
  48  0.505  0.004  0.498-  11 1.30  18 1.32   4 1.32
  49  0.668  0.832  0.534-  19 1.32  21 1.35  20 1.36
  50  0.675  0.666  0.512-  19 1.25  24 1.25
  51  0.832  0.507  0.396-  22 1.23  14 1.28
  52  0.016  0.853  0.549-  23 1.26   9 1.26
  53  0.849  0.860  0.566-  20 1.26  23 1.26
  54  0.004  0.677  0.435-   7 1.25  22 1.27
  55  0.668  0.491  0.484-  24 1.24  15 1.26
  56  0.506  0.502  0.467-  10 1.27  24 1.33   5 1.34
  57  0.287  0.593  0.558-  35 1.94  39 1.95
 

IMPORTANT INFORMATION: All symmetrisations will be switched off!
NOSYMM: (Re-)initialisation of all symmetry stuff for point group C_1.

 
 
 KPOINTS: K-Points                                

Automatic generation of k-mesh.
Space group operators:
 irot       det(A)        alpha          n_x          n_y          n_z        tau_x        tau_y        tau_z
    1     1.000000     0.000001     1.000000     0.000000     0.000000     0.000000     0.000000     0.000000
 
 Subroutine IBZKPT returns following result:
 ===========================================
 
 Found      5 irreducible k-points:
 
 Following reciprocal coordinates:
            Coordinates               Weight
  0.000000  0.000000  0.000000      1.000000
  0.333333  0.000000  0.000000      2.000000
  0.000000  0.333333  0.000000      2.000000
  0.333333  0.333333  0.000000      2.000000
 -0.333333  0.333333  0.000000      2.000000
 
 Following cartesian coordinates:
            Coordinates               Weight
  0.000000  0.000000  0.000000      1.000000
  0.024277  0.014368  0.000000      2.000000
  0.000396  0.028736  0.000000      2.000000
  0.024673  0.043104  0.000000      2.000000
 -0.023881  0.014368  0.000000      2.000000
 
 TETIRR: Found     24 inequivalent tetrahedra from       54


--------------------------------------------------------------------------------------------------------




 Dimension of arrays:
   k-points           NKPTS =      5   k-points in BZ     NKDIM =      5   number of bands    NBANDS=    168
   number of dos      NEDOS =   4000   number of ions     NIONS =     57
   non local maximal  LDIM  =      6   non local SUM 2l+1 LMDIM =     18
   total plane-waves  NPLWV = 352800
   max r-space proj   IRMAX =      1   max aug-charges    IRDMAX=   6129
   dimension x,y,z NGX =    70 NGY =   70 NGZ =   72
   dimension x,y,z NGXF=   140 NGYF=  140 NGZF=  144
   support grid    NGXF=   140 NGYF=  140 NGZF=  144
   ions per type =              24  32   1
   NGX,Y,Z   is equivalent  to a cutoff of   8.94,  9.11,  8.49 a.u.
   NGXF,Y,Z  is equivalent  to a cutoff of  17.88, 18.22, 16.98 a.u.

 SYSTEM =  unknown system                          
 POSCAR =  POSCAR-c3n4                             

 Startparameter for this run:
   NWRITE =      2    write-flag & timer
   PREC   = normal    normal or accurate (medium, high low for compatibility)
   ISTART =      0    job   : 0-new  1-cont  2-samecut
   ICHARG =      2    charge: 1-file 2-atom 10-const
   ISPIN  =      2    spin polarized calculation?
   LNONCOLLINEAR =      F non collinear calculations
   LSORBIT =      F    spin-orbit coupling
   INIWAV =      1    electr: 0-lowe 1-rand  2-diag
   LASPH  =      F    aspherical Exc in radial PAW
   METAGGA=      F    non-selfconsistent MetaGGA calc.

 Electronic Relaxation 1
   ENCUT  =  440.0 eV  32.34 Ry    5.69 a.u.  22.26 21.85 24.12*2*pi/ulx,y,z
   ENINI  =  440.0     initial cutoff
   ENAUG  =  644.9 eV  augmentation charge cutoff
   NELM   =    100;   NELMIN=  2; NELMDL= -5     # of ELM steps 
   EDIFF  = 0.1E-03   stopping-criterion for ELM
   LREAL  =      F    real-space projection
   NLSPLINE    = F    spline interpolate recip. space projectors
   LCOMPAT=      F    compatible to vasp.4.4
   GGA_COMPAT  = T    GGA compatible to vasp.4.4-vasp.4.6
   LMAXPAW     = -100 max onsite density
   LMAXMIX     =    2 max onsite mixed and CHGCAR
   VOSKOWN=      0    Vosko Wilk Nusair interpolation
   ROPT   =    0.00000   0.00000   0.00000
 Ionic relaxation
   EDIFFG = -.1E-01   stopping-criterion for IOM
   NSW    =      0    number of steps for IOM
   NBLOCK =      1;   KBLOCK =      1    inner block; outer block 
   IBRION =     -1    ionic relax: 0-MD 1-quasi-New 2-CG
   NFREE  =      0    steps in history (QN), initial steepest desc. (CG)
   ISIF   =      2    stress and relaxation
   IWAVPR =     10    prediction:  0-non 1-charg 2-wave 3-comb
   ISYM   =      0    0-nonsym 1-usesym 2-fastsym
   LCORR  =      T    Harris-Foulkes like correction to forces

   POTIM  = 0.5000    time-step for ionic-motion
   TEIN   =    0.0    initial temperature
   TEBEG  =    0.0;   TEEND  =   0.0 temperature during run
   SMASS  =  -3.00    Nose mass-parameter (am)
   estimated Nose-frequenzy (Omega)   =  0.10E-29 period in steps =****** mass=  -0.387E-26a.u.
   SCALEE = 1.0000    scale energy and forces
   NPACO  =    256;   APACO  = 16.0  distance and # of slots for P.C.
   PSTRESS=    0.0 pullay stress

  Mass of Ions in am
   POMASS =  12.01 14.00 72.61
  Ionic Valenz
   ZVAL   =   4.00  5.00 14.00
  Atomic Wigner-Seitz radii
   RWIGS  =  -1.00 -1.00 -1.00
  virtual crystal weights 
   VCA    =   1.00  1.00  1.00
   NELECT =     270.0000    total number of electrons
   NUPDOWN=      -1.0000    fix difference up-down

 DOS related values:
   EMIN   = -14.00;   EMAX   =  6.00  energy-range for DOS
   EFERMI =   0.00
   ISMEAR =    -5;   SIGMA  =   0.20  broadening in eV -4-tet -1-fermi 0-gaus

 Electronic relaxation 2 (details)
   IALGO  =     38    algorithm
   LDIAG  =      T    sub-space diagonalisation (order eigenvalues)
   LSUBROT=      F    optimize rotation matrix (better conditioning)
   TURBO    =      0    0=normal 1=particle mesh
   IRESTART =      0    0=no restart 2=restart with 2 vectors
   NREBOOT  =      0    no. of reboots
   NMIN     =      0    reboot dimension
   EREF     =   0.00    reference energy to select bands
   IMIX   =      4    mixing-type and parameters
     AMIX     =   0.25;   BMIX     =  0.00
     AMIX_MAG =   1.00;   BMIX_MAG =  0.00
     AMIN     =   0.10
     WC   =   100.;   INIMIX=   1;  MIXPRE=   1;  MAXMIX= -45

 Intra band minimization:
   WEIMIN = 0.0000     energy-eigenvalue tresh-hold
   EBREAK =  0.15E-06  absolut break condition
   DEPER  =   0.30     relativ break condition  

   TIME   =   0.40     timestep for ELM

  volume/ion in A,a.u.               =      35.10       236.86
  Fermi-wavevector in a.u.,A,eV,Ry     =   0.839730  1.586859  9.594095  0.705146
  Thomas-Fermi vector in A             =   1.953996
 
 Write flags
   LWAVE        =      F    write WAVECAR
   LDOWNSAMPLE  =      F    k-point downsampling of WAVECAR
   LCHARG       =      F    write CHGCAR
   LVTOT        =      F    write LOCPOT, total local potential
   LVHAR        =      F    write LOCPOT, Hartree potential only
   LELF         =      F    write electronic localiz. function (ELF)
   LORBIT       =     11    0 simple, 1 ext, 2 COOP (PROOUT), +10 PAW based schemes


 Dipole corrections
   LMONO  =      F    monopole corrections only (constant potential shift)
   LDIPOL =      F    correct potential (dipole corrections)
   IDIPOL =      0    1-x, 2-y, 3-z, 4-all directions 
   EPSILON=  1.0000000 bulk dielectric constant

 Exchange correlation treatment:
   GGA     =    --    GGA type
   LEXCH   =     8    internal setting for exchange type
   VOSKOWN=      0    Vosko Wilk Nusair interpolation
   LHFCALC =     F    Hartree Fock is set to
   LHFONE  =     F    Hartree Fock one center treatment
   AEXX    =    0.0000 exact exchange contribution

 Linear response parameters
   LEPSILON=     F    determine dielectric tensor
   LRPA    =     F    only Hartree local field effects (RPA)
   LNABLA  =     F    use nabla operator in PAW spheres
   LVEL    =     F    velocity operator in full k-point grid
   LINTERFAST=   F  fast interpolation
   KINTER  =     0    interpolate to denser k-point grid
   CSHIFT  =0.1000    complex shift for real part using Kramers Kronig
   OMEGAMAX=  -1.0    maximum frequency
   DEG_THRESHOLD= 0.2000000E-02 threshold for treating states as degnerate
   RTIME   =   -0.100 relaxation time in fs
  (WPLASMAI=    0.000 imaginary part of plasma frequency in eV, 0.658/RTIME)
   DFIELD  = 0.0000000 0.0000000 0.0000000 field for delta impulse in time
 
 Orbital magnetization related:
   ORBITALMAG=     F  switch on orbital magnetization
   LCHIMAG   =     F  perturbation theory with respect to B field
   DQ        =  0.001000  dq finite difference perturbation B field
   LLRAUG    =     F  two centre corrections for induced B field



--------------------------------------------------------------------------------------------------------


 Static calculation
 charge density and potential will be updated during run
 spin polarized calculation
 Variant of blocked Davidson
 Davidson routine will perform the subspace rotation
 perform sub-space diagonalisation
    after iterative eigenvector-optimisation
 modified Broyden-mixing scheme, WC =      100.0
 initial mixing is a Kerker type mixing with AMIX =  0.2500 and BMIX =      0.0001
 Hartree-type preconditioning will be used
 using additional bands           33
 reciprocal scheme for non local part
 use partial core corrections
 calculate Harris-corrections to forces 
   (improved forces if not selfconsistent)
 use gradient corrections 
 use of overlap-Matrix (Vanderbilt PP)
 Fermi weights with tetrahedron method with Bloechl corrections


--------------------------------------------------------------------------------------------------------


  energy-cutoff  :      440.00
  volume of cell :     2000.64
      direct lattice vectors                 reciprocal lattice vectors
    13.012818781 -0.179296046  0.000000000     0.077479116  0.045855441  0.000000000
    -6.506409390 10.993479534  0.000000000     0.001263631  0.091710882  0.000000000
     0.000000000  0.000000000 14.100000000     0.000000000  0.000000000  0.070921986

  length of vectors
    13.014053930 12.774582397 14.100000000     0.090031855  0.091719587  0.070921986


 
 k-points in units of 2pi/SCALE and weight: K-Points                                
   0.00000000  0.00000000  0.00000000       0.111
   0.02427679  0.01436804  0.00000000       0.222
   0.00039594  0.02873608  0.00000000       0.222
   0.02467273  0.04310411  0.00000000       0.222
  -0.02388085  0.01436804  0.00000000       0.222
 
 k-points in reciprocal lattice and weights: K-Points                                
   0.00000000  0.00000000  0.00000000       0.111
   0.33333333  0.00000000  0.00000000       0.222
   0.00000000  0.33333333  0.00000000       0.222
   0.33333333  0.33333333  0.00000000       0.222
  -0.33333333  0.33333333  0.00000000       0.222
 
 position of ions in fractional coordinates (direct lattice) 
   0.10567936  0.21351909  0.42646415
   0.28750403  0.39866334  0.43315811
   0.10379301  0.39177313  0.42728737
   0.44732828  0.06383887  0.50569377
   0.45258916  0.40124889  0.41252546
   0.11203481  0.05273921  0.44868132
   0.09638015  0.71191070  0.48390127
   0.28433946  0.89006364  0.50120122
   0.10941441  0.89537413  0.49812536
   0.44792521  0.54827090  0.50190381
   0.44544784  0.88520183  0.48897001
   0.08690842  0.54210436  0.48067119
   0.61614813  0.22292684  0.47270451
   0.78023735  0.38968276  0.39988272
   0.61037743  0.39432339  0.43546161
   0.93951642  0.05229783  0.46070020
   0.94071854  0.38652888  0.39388003
   0.62278394  0.06558106  0.51203168
   0.61322902  0.71118454  0.53124878
   0.78984871  0.89727295  0.52288011
   0.60944297  0.89248269  0.52132702
   0.93832005  0.56283419  0.42050954
   0.95436023  0.90171878  0.53466451
   0.62130548  0.55465507  0.48986027
   0.16668926  0.33545237  0.42502835
   0.16473950  0.16097029  0.42095206
   0.33626584  0.00180669  0.52215766
   0.51175722  0.35246859  0.39238613
   0.34471728  0.36074551  0.38975287
   0.50565751  0.17673507  0.49315170
   0.15873210  0.98821904  0.44665654
   0.00214731  0.00186372  0.48284181
   0.16462634  0.83083069  0.50025956
   0.13400723  0.64526801  0.51778798
   0.33371346  0.49116238  0.49155062
   0.50288345  0.83078126  0.48972341
   0.33307237  0.82932770  0.47937372
   0.49902190  0.64803204  0.54483375
   0.14173676  0.48364631  0.48511610
   0.98839512  0.49595573  0.43598798
   0.66736443  0.33015381  0.42931770
   0.67970142  0.17802103  0.49523771
   0.82720183  0.98622484  0.46784919
   0.01097216  0.34809993  0.37880244
   0.83047981  0.33016544  0.37952861
   0.99296173  0.16101876  0.43513088
   0.66886761  0.00524437  0.53948092
   0.50484899  0.00388347  0.49830916
   0.66830364  0.83227641  0.53419919
   0.67536455  0.66551462  0.51246466
   0.83211404  0.50666912  0.39574663
   0.01584380  0.85299492  0.54867721
   0.84924332  0.85956436  0.56604968
   0.00424175  0.67726383  0.43455477
   0.66753141  0.49127771  0.48382075
   0.50565566  0.50179634  0.46716125
   0.28676550  0.59288202  0.55779478
 
 position of ions in cartesian coordinates  (Angst):
  -0.01405620  2.32836981  6.01314454
   1.14737090  4.33114892  6.10752940
  -1.19839681  4.28834022  6.02475193
   5.40564004  0.62160709  7.13028210
   3.27877110  4.32997405  5.81660899
   1.11474580  0.55970006  6.32640663
  -3.37780506  7.80909515  6.82300793
  -2.09106059  9.73391545  7.06693724
  -4.40188083  9.82365962  7.02356755
   2.26149470  5.94709371  7.07684369
   0.03704655  9.65158118  6.89447707
  -2.39622945  5.94403090  6.77746373
   6.56737067  2.34026874  6.66513355
   7.61765163  4.14407601  5.63834634
   5.37710142  4.22554790  6.14000874
  11.88548588  0.40648351  6.49587285
   9.72648478  4.08063025  5.55370845
   7.67747733  0.60930129  7.21964665
   3.35258039  7.70844317  7.49060776
   4.44013295  9.72253510  7.37260948
   2.12371314  9.70221943  7.35071101
   8.54815909  6.01926911  5.92918452
   6.55196513  9.74191396  7.53876964
   4.47612270  5.98619158  6.90702976
  -0.01349331  3.65790206  5.99289971
   1.09638670  1.74008641  5.93542403
   4.36401133 -0.04042935  7.36242296
   4.36609908  3.78310015  5.53264450
   2.13858549  3.90404195  5.49551552
   5.43011877  1.85227104  6.95343894
  -4.36420566 10.83550577  6.29785725
   0.01581645  0.02010376  6.80806957
  -3.26347179  9.10420330  7.05365984
  -2.45456604  7.06971367  7.30081047
   1.14684932  5.33975003  6.93086373
   1.13852824  9.04301171  6.90510015
  -1.06173516  9.05747852  6.75916949
   2.27731981  7.03465432  7.68215590
  -1.30240613  5.29154292  6.84013704
   9.63491559  5.27506386  6.14743048
   6.53617654  3.50988338  6.05337959
   7.68655375  1.83520276  6.98285170
   4.34744500 10.69372856  6.59667355
  -2.12210193  3.82486214  5.34111441
   8.65869172  3.48076526  5.35135341
  11.87357702  1.59212232  6.13534534
   8.66973107 -0.06227149  7.60668092
   6.54424100 -0.04782458  7.02615915
   3.28138318  9.02978946  7.53220863
   4.45828589  7.19523118  7.22575168
   7.53155243  5.42086187  5.58002748
  -5.34376171  9.37454149  7.73634870
   5.45837179  9.29733728  7.98130048
  -4.35135867  7.44472556  6.12722226
   5.49001130  5.28116572  6.82187254
   3.31511302  5.42582578  6.58697359
  -0.12590569  6.46642048  7.86490644
 


--------------------------------------------------------------------------------------------------------


 k-point  1 :   0.0000 0.0000 0.0000  plane waves:   41921
 k-point  2 :   0.3333 0.0000 0.0000  plane waves:   41903
 k-point  3 :   0.0000 0.3333 0.0000  plane waves:   41888
 k-point  4 :   0.3333 0.3333 0.0000  plane waves:   41918
 k-point  5 :  -0.3333 0.3333 0.0000  plane waves:   41954

 maximum and minimum number of plane-waves per node :      3513     3455

 maximum number of plane-waves:     41954
 maximum index in each direction: 
   IXMAX=   22   IYMAX=   21   IZMAX=   24
   IXMIN=  -22   IYMIN=  -22   IZMIN=  -24


 parallel 3D FFT for wavefunctions:
    minimum data exchange during FFTs selected (reduces bandwidth)
 parallel 3D FFT for charge:
    minimum data exchange during FFTs selected (reduces bandwidth)


 total amount of memory used by VASP MPI-rank0    75588. kBytes
=======================================================================

   base      :      30000. kBytes
   nonl-proj :      10752. kBytes
   fftplans  :       2997. kBytes
   grid      :       7815. kBytes
   one-center:        155. kBytes
   wavefun   :      23869. kBytes
 
     INWAV:  cpu time    0.0000: real time    0.0002
 Broyden mixing: mesh for mixing (old mesh)
   NGX = 45   NGY = 43   NGZ = 49
  (NGX  =140   NGY  =140   NGZ  =144)
  gives a total of  94815 points

 initial charge density was supplied:
 charge density of overlapping atoms calculated
 number of electron     270.0000000 magnetization       1.0000000
 keeping initial charge density in first step


--------------------------------------------------------------------------------------------------------


 Maximum index for augmentation-charges          211 (set IRDMAX)


--------------------------------------------------------------------------------------------------------


 First call to EWALD:  gamma=   0.141
 Maximum number of real-space cells 3x 3x 3
 Maximum number of reciprocal cells 3x 3x 3

    FEWALD:  cpu time    0.0038: real time    0.0040


--------------------------------------- Iteration      1(   1)  ---------------------------------------


    POTLOK:  cpu time    0.0952: real time    0.1197
    SETDIJ:  cpu time    0.0097: real time    0.0105
     EDDAV:  cpu time    6.0760: real time    6.2556
 BZINTS: Fermi energy: 10.160458;270.000000 electrons
         Band energy:***********;  BLOECHL correction: -0.029020
       DOS:  cpu time    0.1912: real time    0.1914
    --------------------------------------------
      LOOP:  cpu time    6.3721: real time    6.5772

 eigenvalue-minimisations  :  3928
 total energy-change (2. order) : 0.2673450E+04  (-0.1072548E+05)
 number of electron     270.0000000 magnetization       1.0000000
 augmentation part      270.0000000 magnetization       1.0000000

 Free energy of the ion-electron system (eV)
  ---------------------------------------------------
  alpha Z        PSCENC =       173.70136391
  Ewald energy   TEWEN  =     29131.20699335
  -Hartree energ DENC   =    -40289.49016658
  -exchange      EXHF   =         0.00000000
  -V(xc)+E(xc)   XCENC  =      1053.38430192
  PAW double counting   =     10998.91041168   -11485.61342155
  entropy T*S    EENTRO =         0.00000000
  eigenvalues    EBANDS =     -1500.91008267
  atomic energy  EATOM  =     14592.26033195
  Solvation  Ediel_sol  =         0.00000000
  ---------------------------------------------------
  free energy    TOTEN  =      2673.44973202 eV

  energy without entropy =     2673.44973202  energy(sigma->0) =     2673.44973202


--------------------------------------------------------------------------------------------------------




--------------------------------------- Iteration      1(   2)  ---------------------------------------


     EDDAV:  cpu time    8.1757: real time    8.4561
 BZINTS: Fermi energy:  0.133690;270.000000 electrons
         Band energy:***********;  BLOECHL correction:  0.000000
       DOS:  cpu time    0.0047: real time    0.0047
    --------------------------------------------
      LOOP:  cpu time    8.1804: real time    8.4608

 eigenvalue-minimisations  :  4632
 total energy-change (2. order) :-0.2702211E+04  (-0.2593709E+04)
 number of electron     270.0000000 magnetization       1.0000000
 augmentation part      270.0000000 magnetization       1.0000000

 Free energy of the ion-electron system (eV)
  ---------------------------------------------------
  alpha Z        PSCENC =       173.70136391
  Ewald energy   TEWEN  =     29131.20699335
  -Hartree energ DENC   =    -40289.49016658
  -exchange      EXHF   =         0.00000000
  -V(xc)+E(xc)   XCENC  =      1053.38430192
  PAW double counting   =     10998.91041168   -11485.61342155
  entropy T*S    EENTRO =         0.00000000
  eigenvalues    EBANDS =     -4203.12135005
  atomic energy  EATOM  =     14592.26033195
  Solvation  Ediel_sol  =         0.00000000
  ---------------------------------------------------
  free energy    TOTEN  =       -28.76153536 eV

  energy without entropy =      -28.76153536  energy(sigma->0) =      -28.76153536


--------------------------------------------------------------------------------------------------------




--------------------------------------- Iteration      1(   3)  ---------------------------------------


     EDDAV:  cpu time    7.4118: real time    7.5818
 BZINTS: Fermi energy: -3.535587;270.000000 electrons
         Band energy:***********;  BLOECHL correction: -0.009854
       DOS:  cpu time    0.0106: real time    0.0106
    --------------------------------------------
      LOOP:  cpu time    7.4223: real time    7.5924

 eigenvalue-minimisations  :  3984
 total energy-change (2. order) :-0.4649423E+03  (-0.4606453E+03)
 number of electron     270.0000000 magnetization       1.0000000
 augmentation part      270.0000000 magnetization       1.0000000

 Free energy of the ion-electron system (eV)
  ---------------------------------------------------
  alpha Z        PSCENC =       173.70136391
  Ewald energy   TEWEN  =     29131.20699335
  -Hartree energ DENC   =    -40289.49016658
  -exchange      EXHF   =         0.00000000
  -V(xc)+E(xc)   XCENC  =      1053.38430192
  PAW double counting   =     10998.91041168   -11485.61342155
  entropy T*S    EENTRO =         0.00000000
  eigenvalues    EBANDS =     -4668.06367001
  atomic energy  EATOM  =     14592.26033195
  Solvation  Ediel_sol  =         0.00000000
  ---------------------------------------------------
  free energy    TOTEN  =      -493.70385532 eV

  energy without entropy =     -493.70385532  energy(sigma->0) =     -493.70385532


--------------------------------------------------------------------------------------------------------




--------------------------------------- Iteration      1(   4)  ---------------------------------------


     EDDAV:  cpu time    7.6821: real time    7.8956
 BZINTS: Fermi energy: -3.931233;270.000000 electrons
         Band energy:***********;  BLOECHL correction:  0.000000
       DOS:  cpu time    0.0039: real time    0.0039
    --------------------------------------------
      LOOP:  cpu time    7.6859: real time    7.8994

 eigenvalue-minimisations  :  4152
 total energy-change (2. order) :-0.1669394E+02  (-0.1629818E+02)
 number of electron     270.0000000 magnetization       1.0000000
 augmentation part      270.0000000 magnetization       1.0000000

 Free energy of the ion-electron system (eV)
  ---------------------------------------------------
  alpha Z        PSCENC =       173.70136391
  Ewald energy   TEWEN  =     29131.20699335
  -Hartree energ DENC   =    -40289.49016658
  -exchange      EXHF   =         0.00000000
  -V(xc)+E(xc)   XCENC  =      1053.38430192
  PAW double counting   =     10998.91041168   -11485.61342155
  entropy T*S    EENTRO =         0.00000000
  eigenvalues    EBANDS =     -4684.75761217
  atomic energy  EATOM  =     14592.26033195
  Solvation  Ediel_sol  =         0.00000000
  ---------------------------------------------------
  free energy    TOTEN  =      -510.39779748 eV

  energy without entropy =     -510.39779748  energy(sigma->0) =     -510.39779748


--------------------------------------------------------------------------------------------------------




--------------------------------------- Iteration      1(   5)  ---------------------------------------


     EDDAV:  cpu time    8.0765: real time    8.3141
 BZINTS: Fermi energy: -3.961240;270.000000 electrons
         Band energy:***********;  BLOECHL correction:  0.000000
       DOS:  cpu time    0.0041: real time    0.0041
    CHARGE:  cpu time    0.1021: real time    0.1070
    MIXING:  cpu time    0.0039: real time    0.0040
    --------------------------------------------
      LOOP:  cpu time    8.1866: real time    8.4291

 eigenvalue-minimisations  :  4704
 total energy-change (2. order) :-0.6327845E+00  (-0.6265847E+00)
 number of electron     269.9999923 magnetization       0.0000000
 augmentation part       20.9798965 magnetization      -0.0000488

 Broyden mixing:
  rms(total) = 0.47746E+01    rms(broyden)= 0.47721E+01
  rms(prec ) = 0.53021E+01
  weight for this iteration     100.00

 Free energy of the ion-electron system (eV)
  ---------------------------------------------------
  alpha Z        PSCENC =       173.70136391
  Ewald energy   TEWEN  =     29131.20699335
  -Hartree energ DENC   =    -40289.49016658
  -exchange      EXHF   =         0.00000000
  -V(xc)+E(xc)   XCENC  =      1053.38430192
  PAW double counting   =     10998.91041168   -11485.61342155
  entropy T*S    EENTRO =         0.00000000
  eigenvalues    EBANDS =     -4685.39039665
  atomic energy  EATOM  =     14592.26033195
  Solvation  Ediel_sol  =         0.00000000
  ---------------------------------------------------
  free energy    TOTEN  =      -511.03058196 eV

  energy without entropy =     -511.03058196  energy(sigma->0) =     -511.03058196


--------------------------------------------------------------------------------------------------------




--------------------------------------- Iteration      1(   6)  ---------------------------------------


    POTLOK:  cpu time    0.0679: real time    0.0721
    SETDIJ:  cpu time    0.0099: real time    0.0099
     EDDAV:  cpu time    6.9723: real time    7.1211
 BZINTS: Fermi energy: -3.124781;270.000000 electrons
         Band energy:***********;  BLOECHL correction:  0.000000
       DOS:  cpu time    0.0036: real time    0.0037
    CHARGE:  cpu time    0.1047: real time    0.1085
    MIXING:  cpu time    0.0023: real time    0.0031
    --------------------------------------------
      LOOP:  cpu time    7.1607: real time    7.3185

 eigenvalue-minimisations  :  4448
 total energy-change (2. order) : 0.3589073E+02  (-0.5124059E+01)
 number of electron     269.9999928 magnetization      -0.0000000
 augmentation part       19.9434311 magnetization       0.0075525

 Broyden mixing:
  rms(total) = 0.31211E+01    rms(broyden)= 0.31209E+01
  rms(prec ) = 0.33685E+01
  weight for this iteration     100.00

 eigenvalues of (default mixing * dielectric matrix)
  average eigenvalue GAMMA=   1.7038
  1.7038

 Free energy of the ion-electron system (eV)
  ---------------------------------------------------
  alpha Z        PSCENC =       173.70136391
  Ewald energy   TEWEN  =     29131.20699335
  -Hartree energ DENC   =    -40698.40448219
  -exchange      EXHF   =         0.00000000
  -V(xc)+E(xc)   XCENC  =      1070.70314934
  PAW double counting   =     15485.46150212   -15975.92040871
  entropy T*S    EENTRO =         0.00000000
  eigenvalues    EBANDS =     -4254.14830159
  atomic energy  EATOM  =     14592.26033195
  Solvation  Ediel_sol  =         0.00000000
  ---------------------------------------------------
  free energy    TOTEN  =      -475.13985182 eV

  energy without entropy =     -475.13985182  energy(sigma->0) =     -475.13985182


--------------------------------------------------------------------------------------------------------




--------------------------------------- Iteration      1(   7)  ---------------------------------------


    POTLOK:  cpu time    0.0857: real time    0.0905
    SETDIJ:  cpu time    0.0097: real time    0.0097
     EDDAV:  cpu time    6.5431: real time    6.6757
 BZINTS: Fermi energy: -2.185796;270.000000 electrons
         Band energy:***********;  BLOECHL correction:  0.000000
       DOS:  cpu time    0.0037: real time    0.0037
    CHARGE:  cpu time    0.1022: real time    0.1036
    MIXING:  cpu time    0.0026: real time    0.0027
    --------------------------------------------
      LOOP:  cpu time    6.7470: real time    6.8859

 eigenvalue-minimisations  :  4032
 total energy-change (2. order) : 0.1086981E+02  (-0.6118415E+01)
 number of electron     269.9999938 magnetization      -0.0000000
 augmentation part       19.2512309 magnetization      -0.0017443

 Broyden mixing:
  rms(total) = 0.18274E+01    rms(broyden)= 0.18269E+01
  rms(prec ) = 0.19625E+01
  weight for this iteration     100.00

 eigenvalues of (default mixing * dielectric matrix)
  average eigenvalue GAMMA=   1.6683
  0.9604  2.3761

 Free energy of the ion-electron system (eV)
  ---------------------------------------------------
  alpha Z        PSCENC =       173.70136391
  Ewald energy   TEWEN  =     29131.20699335
  -Hartree energ DENC   =    -41147.04947117
  -exchange      EXHF   =         0.00000000
  -V(xc)+E(xc)   XCENC  =      1088.33940669
  PAW double counting   =     23281.00612982   -23777.63763732
  entropy T*S    EENTRO =         0.00000000
  eigenvalues    EBANDS =     -3806.09715502
  atomic energy  EATOM  =     14592.26033195
  Solvation  Ediel_sol  =         0.00000000
  ---------------------------------------------------
  free energy    TOTEN  =      -464.27003778 eV

  energy without entropy =     -464.27003778  energy(sigma->0) =     -464.27003778


--------------------------------------------------------------------------------------------------------




--------------------------------------- Iteration      1(   8)  ---------------------------------------


    POTLOK:  cpu time    0.0867: real time    0.0913
    SETDIJ:  cpu time    0.0084: real time    0.0084
     EDDAV:  cpu time    6.4453: real time    6.5331
 BZINTS: Fermi energy: -1.584396;270.000000 electrons
         Band energy:***********;  BLOECHL correction:  0.000000
       DOS:  cpu time    0.0037: real time    0.0037
    CHARGE:  cpu time    0.1030: real time    0.1047
    MIXING:  cpu time    0.0024: real time    0.0024
    --------------------------------------------
      LOOP:  cpu time    6.6495: real time    6.7436

 eigenvalue-minimisations  :  3984
 total energy-change (2. order) : 0.2073364E+01  (-0.1244821E+01)
 number of electron     269.9999938 magnetization       0.0000000
 augmentation part       19.0291809 magnetization      -0.0002742

 Broyden mixing:
  rms(total) = 0.13020E+01    rms(broyden)= 0.13019E+01
  rms(prec ) = 0.13639E+01
  weight for this iteration     100.00

 eigenvalues of (default mixing * dielectric matrix)
  average eigenvalue GAMMA=   1.7669
  3.1960  1.3742  0.7306

 Free energy of the ion-electron system (eV)
  ---------------------------------------------------
  alpha Z        PSCENC =       173.70136391
  Ewald energy   TEWEN  =     29131.20699335
  -Hartree energ DENC   =    -41262.36003616
  -exchange      EXHF   =         0.00000000
  -V(xc)+E(xc)   XCENC  =      1093.09880710
  PAW double counting   =     27682.57775748   -28182.16909667
  entropy T*S    EENTRO =         0.00000000
  eigenvalues    EBANDS =     -3690.51279461
  atomic energy  EATOM  =     14592.26033195
  Solvation  Ediel_sol  =         0.00000000
  ---------------------------------------------------
  free energy    TOTEN  =      -462.19667365 eV

  energy without entropy =     -462.19667365  energy(sigma->0) =     -462.19667365


--------------------------------------------------------------------------------------------------------




--------------------------------------- Iteration      1(   9)  ---------------------------------------


    POTLOK:  cpu time    0.0860: real time    0.0907
    SETDIJ:  cpu time    0.0098: real time    0.0098
     EDDAV:  cpu time    7.7854: real time    7.9068
 BZINTS: Fermi energy: -1.504376;270.000000 electrons
         Band energy:***********;  BLOECHL correction:  0.000000
       DOS:  cpu time    0.0037: real time    0.0037
    CHARGE:  cpu time    0.1018: real time    0.1028
    MIXING:  cpu time    0.0022: real time    0.0022
    --------------------------------------------
      LOOP:  cpu time    7.9889: real time    8.1160

 eigenvalue-minimisations  :  5024
 total energy-change (2. order) :-0.2742012E+00  (-0.1088507E+01)
 number of electron     269.9999935 magnetization       0.0000000
 augmentation part       19.1297465 magnetization       0.0004545

 Broyden mixing:
  rms(total) = 0.68248E+00    rms(broyden)= 0.68216E+00
  rms(prec ) = 0.86122E+00
  weight for this iteration     100.00

 eigenvalues of (default mixing * dielectric matrix)
  average eigenvalue GAMMA=   1.6963
  3.7094  1.5359  0.7700  0.7700

 Free energy of the ion-electron system (eV)
  ---------------------------------------------------
  alpha Z        PSCENC =       173.70136391
  Ewald energy   TEWEN  =     29131.20699335
  -Hartree energ DENC   =    -41302.75426116
  -exchange      EXHF   =         0.00000000
  -V(xc)+E(xc)   XCENC  =      1094.83408346
  PAW double counting   =     33227.66886095   -33732.19492008
  entropy T*S    EENTRO =         0.00000000
  eigenvalues    EBANDS =     -3647.19332719
  atomic energy  EATOM  =     14592.26033195
  Solvation  Ediel_sol  =         0.00000000
  ---------------------------------------------------
  free energy    TOTEN  =      -462.47087480 eV

  energy without entropy =     -462.47087480  energy(sigma->0) =     -462.47087480


--------------------------------------------------------------------------------------------------------




--------------------------------------- Iteration      1(  10)  ---------------------------------------


    POTLOK:  cpu time    0.0869: real time    0.0912
    SETDIJ:  cpu time    0.0096: real time    0.0096
     EDDAV:  cpu time    7.3490: real time    7.4697
 BZINTS: Fermi energy: -1.179295;270.000000 electrons
         Band energy:***********;  BLOECHL correction:  0.000000
       DOS:  cpu time    0.0035: real time    0.0036
    CHARGE:  cpu time    0.1035: real time    0.1039
    MIXING:  cpu time    0.0025: real time    0.0025
    --------------------------------------------
      LOOP:  cpu time    7.5550: real time    7.6805

 eigenvalue-minimisations  :  4856
 total energy-change (2. order) : 0.7465995E+00  (-0.6359523E+00)
 number of electron     269.9999936 magnetization      -0.0000000
 augmentation part       19.1127705 magnetization       0.0005706

 Broyden mixing:
  rms(total) = 0.33186E+00    rms(broyden)= 0.33136E+00
  rms(prec ) = 0.38504E+00
  weight for this iteration     100.00

 eigenvalues of (default mixing * dielectric matrix)
  average eigenvalue GAMMA=   1.5885
  3.9401  1.7311  1.0343  0.6185  0.6185

 Free energy of the ion-electron system (eV)
  ---------------------------------------------------
  alpha Z        PSCENC =       173.70136391
  Ewald energy   TEWEN  =     29131.20699335
  -Hartree energ DENC   =    -41310.89928827
  -exchange      EXHF   =         0.00000000
  -V(xc)+E(xc)   XCENC  =      1095.59686981
  PAW double counting   =     35609.03955780   -36113.50109587
  entropy T*S    EENTRO =         0.00000000
  eigenvalues    EBANDS =     -3639.12900803
  atomic energy  EATOM  =     14592.26033195
  Solvation  Ediel_sol  =         0.00000000
  ---------------------------------------------------
  free energy    TOTEN  =      -461.72427535 eV

  energy without entropy =     -461.72427535  energy(sigma->0) =     -461.72427535


--------------------------------------------------------------------------------------------------------




--------------------------------------- Iteration      1(  11)  ---------------------------------------


    POTLOK:  cpu time    0.0844: real time    0.0897
    SETDIJ:  cpu time    0.0319: real time    0.0323
     EDDAV:  cpu time    7.4977: real time    7.5999
 BZINTS: Fermi energy: -1.295574;270.000000 electrons
         Band energy:***********;  BLOECHL correction:  0.000000
       DOS:  cpu time    0.0038: real time    0.0038
    CHARGE:  cpu time    0.1018: real time    0.1029
    MIXING:  cpu time    0.0024: real time    0.0025
    --------------------------------------------
      LOOP:  cpu time    7.7220: real time    7.8311

 eigenvalue-minimisations  :  4800
 total energy-change (2. order) : 0.7186627E-01  (-0.1360936E+00)
 number of electron     269.9999936 magnetization      -0.0000000
 augmentation part       19.1061467 magnetization       0.0002223

 Broyden mixing:
  rms(total) = 0.19125E+00    rms(broyden)= 0.19112E+00
  rms(prec ) = 0.23457E+00
  weight for this iteration     100.00

 eigenvalues of (default mixing * dielectric matrix)
  average eigenvalue GAMMA=   1.5183
  3.9199  1.8170  1.2496  0.9447  0.5895  0.5895

 Free energy of the ion-electron system (eV)
  ---------------------------------------------------
  alpha Z        PSCENC =       173.70136391
  Ewald energy   TEWEN  =     29131.20699335
  -Hartree energ DENC   =    -41288.53775293
  -exchange      EXHF   =         0.00000000
  -V(xc)+E(xc)   XCENC  =      1095.06955764
  PAW double counting   =     36700.06015119   -37203.89608114
  entropy T*S    EENTRO =         0.00000000
  eigenvalues    EBANDS =     -3661.51697305
  atomic energy  EATOM  =     14592.26033195
  Solvation  Ediel_sol  =         0.00000000
  ---------------------------------------------------
  free energy    TOTEN  =      -461.65240908 eV

  energy without entropy =     -461.65240908  energy(sigma->0) =     -461.65240908


--------------------------------------------------------------------------------------------------------




--------------------------------------- Iteration      1(  12)  ---------------------------------------


    POTLOK:  cpu time    0.0860: real time    0.0904
    SETDIJ:  cpu time    0.0098: real time    0.0099
     EDDAV:  cpu time    7.0101: real time    7.0972
 BZINTS: Fermi energy: -1.350588;270.000000 electrons
         Band energy:***********;  BLOECHL correction:  0.000000
       DOS:  cpu time    0.0038: real time    0.0038
    CHARGE:  cpu time    0.1018: real time    0.1030
    MIXING:  cpu time    0.0025: real time    0.0025
    --------------------------------------------
      LOOP:  cpu time    7.2139: real time    7.3068

 eigenvalue-minimisations  :  4576
 total energy-change (2. order) : 0.4645590E-01  (-0.8011520E-01)
 number of electron     269.9999937 magnetization      -0.0000000
 augmentation part       19.0996328 magnetization       0.0000341

 Broyden mixing:
  rms(total) = 0.12750E+00    rms(broyden)= 0.12734E+00
  rms(prec ) = 0.16291E+00
  weight for this iteration     100.00

 eigenvalues of (default mixing * dielectric matrix)
  average eigenvalue GAMMA=   1.5123
  3.8801  2.2944  1.4514  0.9061  0.9061  0.5738  0.5738

 Free energy of the ion-electron system (eV)
  ---------------------------------------------------
  alpha Z        PSCENC =       173.70136391
  Ewald energy   TEWEN  =     29131.20699335
  -Hartree energ DENC   =    -41268.88904332
  -exchange      EXHF   =         0.00000000
  -V(xc)+E(xc)   XCENC  =      1094.46479408
  PAW double counting   =     36924.70548275   -37427.94806152
  entropy T*S    EENTRO =         0.00000000
  eigenvalues    EBANDS =     -3681.10781438
  atomic energy  EATOM  =     14592.26033195
  Solvation  Ediel_sol  =         0.00000000
  ---------------------------------------------------
  free energy    TOTEN  =      -461.60595318 eV

  energy without entropy =     -461.60595318  energy(sigma->0) =     -461.60595318


--------------------------------------------------------------------------------------------------------




--------------------------------------- Iteration      1(  13)  ---------------------------------------


    POTLOK:  cpu time    0.0871: real time    0.0907
    SETDIJ:  cpu time    0.0097: real time    0.0097
     EDDAV:  cpu time    6.4757: real time    6.5925
 BZINTS: Fermi energy: -1.390598;270.000000 electrons
         Band energy:***********;  BLOECHL correction:  0.000000
       DOS:  cpu time    0.0041: real time    0.0041
    CHARGE:  cpu time    0.1009: real time    0.1013
    MIXING:  cpu time    0.0028: real time    0.0028
    --------------------------------------------
      LOOP:  cpu time    6.6803: real time    6.8012

 eigenvalue-minimisations  :  4048
 total energy-change (2. order) : 0.3142074E-01  (-0.2630382E-01)
 number of electron     269.9999936 magnetization      -0.0000000
 augmentation part       19.1098867 magnetization      -0.0000498

 Broyden mixing:
  rms(total) = 0.52406E-01    rms(broyden)= 0.52307E-01
  rms(prec ) = 0.59084E-01
  weight for this iteration     100.00

 eigenvalues of (default mixing * dielectric matrix)
  average eigenvalue GAMMA=   1.4888
  3.8607  2.5508  1.5666  0.9256  0.9256  0.9337  0.5736  0.5736

 Free energy of the ion-electron system (eV)
  ---------------------------------------------------
  alpha Z        PSCENC =       173.70136391
  Ewald energy   TEWEN  =     29131.20699335
  -Hartree energ DENC   =    -41253.02547108
  -exchange      EXHF   =         0.00000000
  -V(xc)+E(xc)   XCENC  =      1093.92842924
  PAW double counting   =     37077.64338060   -37580.78008602
  entropy T*S    EENTRO =         0.00000000
  eigenvalues    EBANDS =     -3696.50947440
  atomic energy  EATOM  =     14592.26033195
  Solvation  Ediel_sol  =         0.00000000
  ---------------------------------------------------
  free energy    TOTEN  =      -461.57453244 eV

  energy without entropy =     -461.57453244  energy(sigma->0) =     -461.57453244


--------------------------------------------------------------------------------------------------------




--------------------------------------- Iteration      1(  14)  ---------------------------------------


    POTLOK:  cpu time    0.1117: real time    0.1172
    SETDIJ:  cpu time    0.0096: real time    0.0096
     EDDAV:  cpu time    6.6267: real time    6.7563
 BZINTS: Fermi energy: -1.405601;270.000000 electrons
         Band energy:***********;  BLOECHL correction:  0.000000
       DOS:  cpu time    0.0037: real time    0.0037
    CHARGE:  cpu time    0.1003: real time    0.1007
    MIXING:  cpu time    0.0029: real time    0.0029
    --------------------------------------------
      LOOP:  cpu time    6.8549: real time    6.9904

 eigenvalue-minimisations  :  3800
 total energy-change (2. order) :-0.7253400E-03  (-0.4886266E-02)
 number of electron     269.9999937 magnetization      -0.0000000
 augmentation part       19.1131805 magnetization      -0.0000213

 Broyden mixing:
  rms(total) = 0.30790E-01    rms(broyden)= 0.30776E-01
  rms(prec ) = 0.34410E-01
  weight for this iteration     100.00

 eigenvalues of (default mixing * dielectric matrix)
  average eigenvalue GAMMA=   1.4447
  3.8388  2.5720  1.5380  1.1041  1.1041  0.8470  0.8470  0.5755  0.5755

 Free energy of the ion-electron system (eV)
  ---------------------------------------------------
  alpha Z        PSCENC =       173.70136391
  Ewald energy   TEWEN  =     29131.20699335
  -Hartree energ DENC   =    -41249.64248088
  -exchange      EXHF   =         0.00000000
  -V(xc)+E(xc)   XCENC  =      1093.80525982
  PAW double counting   =     37143.80294092   -37646.85477837
  entropy T*S    EENTRO =         0.00000000
  eigenvalues    EBANDS =     -3699.85488848
  atomic energy  EATOM  =     14592.26033195
  Solvation  Ediel_sol  =         0.00000000
  ---------------------------------------------------
  free energy    TOTEN  =      -461.57525778 eV

  energy without entropy =     -461.57525778  energy(sigma->0) =     -461.57525778


--------------------------------------------------------------------------------------------------------




--------------------------------------- Iteration      1(  15)  ---------------------------------------


    POTLOK:  cpu time    0.0866: real time    0.0889
    SETDIJ:  cpu time    0.0097: real time    0.0098
     EDDAV:  cpu time    7.3612: real time    7.4598
 BZINTS: Fermi energy: -1.404351;270.000000 electrons
         Band energy:***********;  BLOECHL correction:  0.000000
       DOS:  cpu time    0.0036: real time    0.0036
    CHARGE:  cpu time    0.1417: real time    0.1429
    MIXING:  cpu time    0.0029: real time    0.0029
    --------------------------------------------
      LOOP:  cpu time    7.6057: real time    7.7079

 eigenvalue-minimisations  :  4728
 total energy-change (2. order) : 0.6686365E-03  (-0.6984386E-03)
 number of electron     269.9999936 magnetization      -0.0000000
 augmentation part       19.1139064 magnetization      -0.0000144

 Broyden mixing:
  rms(total) = 0.20759E-01    rms(broyden)= 0.20755E-01
  rms(prec ) = 0.21378E-01
  weight for this iteration     100.00

 eigenvalues of (default mixing * dielectric matrix)
  average eigenvalue GAMMA=   1.4854
  3.7432  2.6380  2.0905  1.3394  1.3394  0.8654  0.8654  0.8185  0.5770  0.5770

 Free energy of the ion-electron system (eV)
  ---------------------------------------------------
  alpha Z        PSCENC =       173.70136391
  Ewald energy   TEWEN  =     29131.20699335
  -Hartree energ DENC   =    -41250.88181515
  -exchange      EXHF   =         0.00000000
  -V(xc)+E(xc)   XCENC  =      1093.82765006
  PAW double counting   =     37156.19684245   -37659.33551687
  entropy T*S    EENTRO =         0.00000000
  eigenvalues    EBANDS =     -3698.55043884
  atomic energy  EATOM  =     14592.26033195
  Solvation  Ediel_sol  =         0.00000000
  ---------------------------------------------------
  free energy    TOTEN  =      -461.57458914 eV

  energy without entropy =     -461.57458914  energy(sigma->0) =     -461.57458914


--------------------------------------------------------------------------------------------------------




--------------------------------------- Iteration      1(  16)  ---------------------------------------


    POTLOK:  cpu time    0.0882: real time    0.0921
    SETDIJ:  cpu time    0.0096: real time    0.0097
     EDDAV:  cpu time    6.6703: real time    6.8191
 BZINTS: Fermi energy: -1.399350;270.000000 electrons
         Band energy:***********;  BLOECHL correction:  0.000000
       DOS:  cpu time    0.0036: real time    0.0037
    CHARGE:  cpu time    0.1014: real time    0.1024
    MIXING:  cpu time    0.0032: real time    0.0032
    --------------------------------------------
      LOOP:  cpu time    6.8764: real time    7.0301

 eigenvalue-minimisations  :  4352
 total energy-change (2. order) : 0.6235259E-05  (-0.1576674E-03)
 number of electron     269.9999936 magnetization       0.0000000
 augmentation part       19.1134327 magnetization      -0.0000109

 Broyden mixing:
  rms(total) = 0.12074E-01    rms(broyden)= 0.12073E-01
  rms(prec ) = 0.12368E-01
  weight for this iteration     100.00

 eigenvalues of (default mixing * dielectric matrix)
  average eigenvalue GAMMA=   1.5395
  3.5566  3.5566  2.3154  1.2994  1.2272  1.2272  0.8724  0.8724  0.8529  0.5773
  0.5773

 Free energy of the ion-electron system (eV)
  ---------------------------------------------------
  alpha Z        PSCENC =       173.70136391
  Ewald energy   TEWEN  =     29131.20699335
  -Hartree energ DENC   =    -41252.12347520
  -exchange      EXHF   =         0.00000000
  -V(xc)+E(xc)   XCENC  =      1093.85484384
  PAW double counting   =     37152.97460746   -37656.13335898
  entropy T*S    EENTRO =         0.00000000
  eigenvalues    EBANDS =     -3697.31588924
  atomic energy  EATOM  =     14592.26033195
  Solvation  Ediel_sol  =         0.00000000
  ---------------------------------------------------
  free energy    TOTEN  =      -461.57458290 eV

  energy without entropy =     -461.57458290  energy(sigma->0) =     -461.57458290


--------------------------------------------------------------------------------------------------------




--------------------------------------- Iteration      1(  17)  ---------------------------------------


    POTLOK:  cpu time    0.0861: real time    0.0909
    SETDIJ:  cpu time    0.0101: real time    0.0102
     EDDAV:  cpu time    5.1106: real time    5.2530
 BZINTS: Fermi energy: -1.395599;270.000000 electrons
         Band energy:***********;  BLOECHL correction:  0.000000
       DOS:  cpu time    0.0041: real time    0.0041
    --------------------------------------------
      LOOP:  cpu time    5.2109: real time    5.3582

 eigenvalue-minimisations  :  2464
 total energy-change (2. order) :-0.1206071E-04  (-0.2014711E-04)
 number of electron     269.9999936 magnetization       0.0000000
 augmentation part       19.1134327 magnetization      -0.0000109

 Free energy of the ion-electron system (eV)
  ---------------------------------------------------
  alpha Z        PSCENC =       173.70136391
  Ewald energy   TEWEN  =     29131.20699335
  -Hartree energ DENC   =    -41252.33462101
  -exchange      EXHF   =         0.00000000
  -V(xc)+E(xc)   XCENC  =      1093.85858851
  PAW double counting   =     37163.15760653   -37666.31102079
  entropy T*S    EENTRO =         0.00000000
  eigenvalues    EBANDS =     -3697.11383741
  atomic energy  EATOM  =     14592.26033195
  Solvation  Ediel_sol  =         0.00000000
  ---------------------------------------------------
  free energy    TOTEN  =      -461.57459496 eV

  energy without entropy =     -461.57459496  energy(sigma->0) =     -461.57459496


--------------------------------------------------------------------------------------------------------




 average (electrostatic) potential at core
  the test charge radii are     0.6991  0.7089  0.9911
  (the norm of the test charge is              1.0000)
       1 -59.7646       2 -60.1611       3 -60.1613       4 -59.8558       5 -59.8438
       6 -59.8750       7 -59.9725       8 -59.7869       9 -59.6915      10 -60.6274
      11 -60.0217      12 -60.6102      13 -59.7733      14 -59.7685      15 -59.5133
      16 -59.8896      17 -59.8677      18 -59.8271      19 -60.0798      20 -59.7584
      21 -59.7887      22 -59.9652      23 -59.9048      24 -59.9281      25 -73.9269
      26 -71.5152      27 -71.5037      28 -71.7432      29 -71.8568      30 -71.5960
      31 -71.5484      32 -74.5243      33 -73.5122      34 -72.0713      35 -73.2175
      36 -71.6779      37 -71.6897      38 -72.1354      39 -73.1632      40 -74.6562
      41 -73.6769      42 -71.6840      43 -71.5766      44 -71.8938      45 -71.9034
      46 -71.5481      47 -71.5539      48 -74.3946      49 -73.7118      50 -71.8627
      51 -71.7525      52 -71.5233      53 -71.4733      54 -71.8110      55 -71.7421
      56 -74.6945      57 -81.0610
 
 
 
 E-fermi :  -1.3956     XC(G=0):  -3.2997     alpha+bet : -2.7099


 spin component 1

 k-point     1 :       0.0000    0.0000    0.0000
  band No.  band energies     occupation 
      1     -27.6511      1.00000
      2     -27.5305      1.00000
      3     -27.2661      1.00000
      4     -27.1722      1.00000
      5     -26.4545      1.00000
      6     -26.4246      1.00000
      7     -26.3740      1.00000
      8     -26.3521      1.00000
      9     -26.2823      1.00000
     10     -26.0817      1.00000
     11     -25.9849      1.00000
     12     -25.9370      1.00000
     13     -24.9680      1.00000
     14     -24.9462      1.00000
     15     -24.8579      1.00000
     16     -24.7755      1.00000
     17     -24.7152      1.00000
     18     -24.5824      1.00000
     19     -23.7635      1.00000
     20     -23.5245      1.00000
     21     -23.5125      1.00000
     22     -22.6546      1.00000
     23     -22.5925      1.00000
     24     -22.3122      1.00000
     25     -22.1746      1.00000
     26     -22.1358      1.00000
     27     -22.1085      1.00000
     28     -22.0132      1.00000
     29     -21.9601      1.00000
     30     -21.7358      1.00000
     31     -21.6829      1.00000
     32     -21.5672      1.00000
     33     -21.0983      1.00000
     34     -20.9873      1.00000
     35     -20.8555      1.00000
     36     -20.6862      1.00000
     37     -20.3772      1.00000
     38     -18.0201      1.00000
     39     -17.9421      1.00000
     40     -17.7987      1.00000
     41     -17.5822      1.00000
     42     -17.4377      1.00000
     43     -17.3977      1.00000
     44     -16.9426      1.00000
     45     -16.7049      1.00000
     46     -16.0196      1.00000
     47     -15.8600      1.00000
     48     -15.8180      1.00000
     49     -15.5718      1.00000
     50     -15.4820      1.00000
     51     -15.4017      1.00000
     52     -14.8859      1.00000
     53     -14.7649      1.00000
     54     -14.3732      1.00000
     55     -14.3346      1.00000
     56     -14.2684      1.00000
     57     -14.1157      1.00000
     58     -14.0497      1.00000
     59     -13.9576      1.00000
     60     -13.8756      1.00000
     61     -13.7728      1.00000
     62     -13.7063      1.00000
     63     -12.8811      1.00000
     64     -12.8432      1.00000
     65     -12.6428      1.00000
     66     -12.5189      1.00000
     67     -12.4400      1.00000
     68     -12.3523      1.00000
     69     -12.2949      1.00000
     70     -12.2358      1.00000
     71     -12.1324      1.00000
     72     -12.0003      1.00000
     73     -11.7955      1.00000
     74     -11.7447      1.00000
     75     -11.5963      1.00000
     76     -11.5666      1.00000
     77     -11.3065      1.00000
     78     -10.9735      1.00000
     79     -10.8202      1.00000
     80     -10.5762      1.00000
     81     -10.3717      1.00000
     82     -10.2542      1.00000
     83     -10.1392      1.00000
     84      -9.9185      1.00000
     85      -9.7369      1.00000
     86      -9.6482      1.00000
     87      -9.5297      1.00000
     88      -9.4569      1.00000
     89      -9.3560      1.00000
     90      -9.2486      1.00000
     91      -8.9258      1.00000
     92      -8.2977      1.00000
     93      -8.1955      1.00000
     94      -8.1028      1.00000
     95      -7.9214      1.00000
     96      -7.7417      1.00000
     97      -7.5533      1.00000
     98      -7.4889      1.00000
     99      -7.4041      1.00000
    100      -7.2839      1.00000
    101      -7.2799      1.00000
    102      -7.1730      1.00000
    103      -7.1554      1.00000
    104      -7.0753      1.00000
    105      -6.9910      1.00000
    106      -6.8984      1.00000
    107      -6.7165      1.00000
    108      -6.5753      1.00000
    109      -6.3082      1.00000
    110      -6.0919      1.00000
    111      -5.9243      1.00000
    112      -5.8435      1.00000
    113      -5.7166      1.00000
    114      -5.5591      1.00000
    115      -5.4044      1.00000
    116      -5.2725      1.00000
    117      -5.2024      1.00000
    118      -5.1503      1.00000
    119      -5.1172      1.00000
    120      -4.9992      1.00000
    121      -4.9002      1.00000
    122      -4.7721      1.00000
    123      -4.5931      1.00000
    124      -4.4801      1.00000
    125      -4.4237      1.00000
    126      -4.2272      1.00000
    127      -4.1095      1.00000
    128      -3.9994      1.00000
    129      -3.9079      1.00000
    130      -3.8198      1.00000
    131      -3.6080      1.00000
    132      -3.5593      1.00000
    133      -3.3985      1.00000
    134      -3.2979      1.00000
    135      -1.5458      1.00000
    136      -1.1981      0.00000
    137      -0.9993      0.00000
    138      -0.6505      0.00000
    139      -0.4624      0.00000
    140      -0.3519      0.00000
    141      -0.2447      0.00000
    142       0.0579      0.00000
    143       0.1933      0.00000
    144       0.4919      0.00000
    145       0.5603      0.00000
    146       0.9046      0.00000
    147       1.0955      0.00000
    148       1.1177      0.00000
    149       1.7721      0.00000
    150       1.7997      0.00000
    151       1.9547      0.00000
    152       2.1473      0.00000
    153       2.2040      0.00000
    154       2.3835      0.00000
    155       2.4804      0.00000
    156       2.5400      0.00000
    157       2.5891      0.00000
    158       2.6534      0.00000
    159       2.7258      0.00000
    160       2.8159      0.00000
    161       2.8866      0.00000
    162       3.0356      0.00000
    163       3.1208      0.00000
    164       3.1649      0.00000
    165       3.1988      0.00000
    166       3.2621      0.00000
    167       3.3821      0.00000
    168       3.4688      0.00000

 k-point     2 :       0.3333    0.0000    0.0000
  band No.  band energies     occupation 
      1     -27.6299      1.00000
      2     -27.5511      1.00000
      3     -27.2647      1.00000
      4     -27.1914      1.00000
      5     -26.4605      1.00000
      6     -26.4191      1.00000
      7     -26.3747      1.00000
      8     -26.3473      1.00000
      9     -26.2823      1.00000
     10     -26.0546      1.00000
     11     -25.9554      1.00000
     12     -25.8212      1.00000
     13     -25.4241      1.00000
     14     -24.9235      1.00000
     15     -24.8576      1.00000
     16     -24.7502      1.00000
     17     -24.6978      1.00000
     18     -24.2273      1.00000
     19     -23.8147      1.00000
     20     -23.5295      1.00000
     21     -23.4363      1.00000
     22     -22.7077      1.00000
     23     -22.5189      1.00000
     24     -22.4281      1.00000
     25     -22.3060      1.00000
     26     -22.2883      1.00000
     27     -22.2022      1.00000
     28     -22.0378      1.00000
     29     -22.0260      1.00000
     30     -21.6151      1.00000
     31     -21.5828      1.00000
     32     -21.3711      1.00000
     33     -21.1633      1.00000
     34     -20.8954      1.00000
     35     -20.8260      1.00000
     36     -20.5978      1.00000
     37     -20.4461      1.00000
     38     -17.9796      1.00000
     39     -17.9746      1.00000
     40     -17.7700      1.00000
     41     -17.6356      1.00000
     42     -17.4696      1.00000
     43     -17.3271      1.00000
     44     -17.2112      1.00000
     45     -17.0028      1.00000
     46     -15.8814      1.00000
     47     -15.7979      1.00000
     48     -15.6819      1.00000
     49     -15.5992      1.00000
     50     -15.2007      1.00000
     51     -15.0374      1.00000
     52     -14.8850      1.00000
     53     -14.6514      1.00000
     54     -14.4559      1.00000
     55     -14.3264      1.00000
     56     -14.2896      1.00000
     57     -14.2519      1.00000
     58     -14.1382      1.00000
     59     -13.9798      1.00000
     60     -13.8672      1.00000
     61     -13.7684      1.00000
     62     -13.6487      1.00000
     63     -13.2780      1.00000
     64     -13.0285      1.00000
     65     -12.8870      1.00000
     66     -12.7285      1.00000
     67     -12.5228      1.00000
     68     -12.3925      1.00000
     69     -12.2981      1.00000
     70     -12.1512      1.00000
     71     -12.0701      1.00000
     72     -11.8779      1.00000
     73     -11.7420      1.00000
     74     -11.7115      1.00000
     75     -11.3610      1.00000
     76     -11.2434      1.00000
     77     -11.1603      1.00000
     78     -10.8978      1.00000
     79     -10.6724      1.00000
     80     -10.5810      1.00000
     81     -10.3772      1.00000
     82     -10.2938      1.00000
     83     -10.2178      1.00000
     84     -10.0236      1.00000
     85      -9.7943      1.00000
     86      -9.7145      1.00000
     87      -9.6104      1.00000
     88      -9.4956      1.00000
     89      -9.4210      1.00000
     90      -9.3278      1.00000
     91      -8.6727      1.00000
     92      -8.2926      1.00000
     93      -8.2240      1.00000
     94      -8.1182      1.00000
     95      -7.9216      1.00000
     96      -7.7740      1.00000
     97      -7.5271      1.00000
     98      -7.5046      1.00000
     99      -7.4236      1.00000
    100      -7.3411      1.00000
    101      -7.2947      1.00000
    102      -7.2084      1.00000
    103      -7.1241      1.00000
    104      -7.0590      1.00000
    105      -6.9771      1.00000
    106      -6.9418      1.00000
    107      -6.7403      1.00000
    108      -6.4785      1.00000
    109      -6.2613      1.00000
    110      -6.0605      1.00000
    111      -5.9401      1.00000
    112      -5.8313      1.00000
    113      -5.7558      1.00000
    114      -5.6338      1.00000
    115      -5.4668      1.00000
    116      -5.3107      1.00000
    117      -5.1912      1.00000
    118      -5.1329      1.00000
    119      -5.0321      1.00000
    120      -5.0074      1.00000
    121      -4.8231      1.00000
    122      -4.7812      1.00000
    123      -4.5807      1.00000
    124      -4.4875      1.00000
    125      -4.3629      1.00000
    126      -4.2842      1.00000
    127      -4.1439      1.00000
    128      -3.9252      1.00000
    129      -3.8816      1.00000
    130      -3.7809      1.00000
    131      -3.6553      1.00000
    132      -3.5693      1.00000
    133      -3.4583      1.00000
    134      -3.3793      1.00000
    135      -1.4426      1.00000
    136      -1.1876      0.00000
    137      -0.8560      0.00000
    138      -0.6782      0.00000
    139      -0.4204      0.00000
    140      -0.2685      0.00000
    141      -0.2047      0.00000
    142      -0.0959      0.00000
    143       0.0658      0.00000
    144       0.4718      0.00000
    145       0.5166      0.00000
    146       0.8110      0.00000
    147       0.9104      0.00000
    148       1.2616      0.00000
    149       1.5894      0.00000
    150       1.8078      0.00000
    151       1.9101      0.00000
    152       2.1721      0.00000
    153       2.3069      0.00000
    154       2.3965      0.00000
    155       2.4984      0.00000
    156       2.6162      0.00000
    157       2.7219      0.00000
    158       2.7526      0.00000
    159       2.8252      0.00000
    160       2.8742      0.00000
    161       2.9648      0.00000
    162       3.0017      0.00000
    163       3.0519      0.00000
    164       3.1383      0.00000
    165       3.1938      0.00000
    166       3.2915      0.00000
    167       3.3689      0.00000
    168       3.4210      0.00000

 k-point     3 :       0.0000    0.3333    0.0000
  band No.  band energies     occupation 
      1     -27.6403      1.00000
      2     -27.5300      1.00000
      3     -27.2942      1.00000
      4     -27.1733      1.00000
      5     -26.4545      1.00000
      6     -26.4253      1.00000
      7     -26.3739      1.00000
[...]
   -.143E+02 0.334E+02 0.135E+03   0.134E+02 -.336E+02 -.135E+03   0.281E+01 0.455E+00 0.586E+00   0.220E-01 0.436E-02 0.755E-02
   0.733E+02 -.598E+02 -.923E+02   -.765E+02 0.613E+02 0.930E+02   0.309E+01 -.166E+01 -.275E+00   0.449E-02 -.144E-01 0.330E-02
   -.149E+02 0.568E+02 0.212E+03   0.152E+02 -.597E+02 -.215E+03   -.418E+00 0.332E+01 0.190E+01   -.127E-01 0.155E-01 0.137E-01
   -.683E+02 -.195E+02 0.102E+03   0.715E+02 0.209E+02 -.103E+03   -.308E+01 -.154E+01 0.119E+01   -.714E-02 0.253E-02 0.644E-02
   0.430E+02 -.292E+02 -.359E+02   -.433E+02 0.282E+02 0.359E+02   0.586E+00 0.246E+01 0.853E+00   0.723E-02 0.819E-02 0.207E-02
   0.269E+02 -.171E+02 -.522E+02   -.254E+02 0.177E+02 0.520E+02   -.280E+01 -.185E+01 0.437E+00   -.118E-02 -.881E-02 0.557E-02
   -.816E+01 -.134E+01 -.635E+02   0.646E+01 0.172E+01 0.636E+02   0.314E+01 -.158E+01 0.299E+00   0.423E-02 -.125E-02 0.158E-02
   -.261E+02 0.190E+02 -.766E+02   0.245E+02 -.174E+02 0.780E+02   0.110E+01 -.186E+01 -.120E+01   -.105E-02 -.567E-02 -.338E-02
   -.365E+01 0.230E+02 0.504E+02   0.364E+01 -.267E+02 -.502E+02   0.783E-01 0.338E+01 -.646E+00   0.169E-02 -.584E-02 0.994E-02
   0.345E+02 0.173E+02 -.689E+02   -.328E+02 -.155E+02 0.704E+02   -.125E+01 -.226E+01 -.824E+00   0.135E-01 0.594E-02 0.345E-02
   -.410E+01 -.174E+02 -.158E+02   0.435E+01 0.153E+02 0.158E+02   -.129E+00 0.344E+01 -.660E+00   -.789E-02 -.121E-02 0.626E-03
   0.405E+02 0.306E+02 0.205E+03   -.392E+02 -.300E+02 -.205E+03   -.294E+01 -.137E+01 -.839E+00   -.655E-02 0.257E-02 0.663E-02
   -.135E+02 0.236E+02 0.925E+02   0.121E+02 -.234E+02 -.923E+02   0.312E+01 -.131E+01 -.512E+00   -.212E-01 0.759E-02 0.416E-02
   0.708E+02 -.182E+02 0.702E+02   -.741E+02 0.196E+02 -.710E+02   0.311E+01 -.162E+01 0.618E+00   0.103E-01 -.596E-02 0.745E-02
   0.297E+01 0.807E+02 0.228E+03   -.257E+01 -.837E+02 -.230E+03   -.402E-01 0.319E+01 0.183E+01   0.123E-01 0.103E-01 0.704E-02
   -.699E+02 -.631E+02 -.105E+03   0.732E+02 0.647E+02 0.106E+03   -.305E+01 -.162E+01 -.477E+00   -.699E-02 -.179E-01 0.403E-02
   -.361E+02 -.283E+02 -.150E+03   0.358E+02 0.275E+02 0.150E+03   -.312E+00 0.245E+01 0.929E+00   -.697E-02 -.264E-02 -.357E-02
   0.117E+02 -.293E+01 -.116E+03   -.101E+02 0.329E+01 0.116E+03   -.321E+01 -.150E+01 0.545E+00   -.778E-02 -.690E-02 0.101E-02
   -.297E+02 -.124E+02 -.949E+02   0.285E+02 0.131E+02 0.946E+02   0.280E+01 -.196E+01 0.938E+00   0.483E-02 -.146E-01 0.579E-02
   0.779E+02 -.752E+02 0.147E+03   -.804E+02 0.779E+02 -.148E+03   0.310E+01 -.219E+01 0.209E+00   0.128E-01 0.857E-02 0.747E-02
   -.114E+02 0.467E+02 -.200E+03   0.115E+02 -.503E+02 0.203E+03   -.546E-01 0.363E+01 -.156E+01   -.338E-02 0.905E-02 -.571E-02
   -.904E+02 -.275E+02 -.642E+02   0.934E+02 0.288E+02 0.656E+02   -.340E+01 -.106E+01 -.121E+01   -.256E-01 -.705E-02 -.272E-02
   -.153E+02 0.394E+02 0.180E+03   0.158E+02 -.404E+02 -.183E+03   -.348E+00 0.121E+01 0.280E+01   0.253E-01 0.121E-01 0.133E-01
   -.213E+03 -.363E+02 0.241E+03   0.248E+03 0.551E+02 -.255E+03   -.311E+02 -.165E+02 0.125E+02   0.297E-03 0.137E-01 0.846E-02
   0.172E+03 -.167E+03 -.255E+03   -.206E+03 0.185E+03 0.268E+03   0.306E+02 -.163E+02 -.108E+02   -.210E-03 -.117E-01 0.574E-02
   0.552E+01 0.187E+03 0.424E+03   -.264E+01 -.220E+03 -.450E+03   -.229E+01 0.289E+02 0.223E+02   -.197E-01 0.159E-01 0.108E-01
   -.387E+02 0.153E+03 0.448E+03   0.364E+02 -.183E+03 -.477E+03   0.217E+01 0.272E+02 0.251E+02   -.434E-03 0.169E-01 0.171E-01
   0.212E+03 -.108E+03 -.120E+03   -.245E+03 0.131E+03 0.121E+03   0.297E+02 -.196E+02 -.571E-01   -.120E-01 -.246E-02 0.332E-02
   -.160E+03 -.877E+02 0.272E+03   0.194E+03 0.985E+02 -.295E+03   -.301E+02 -.967E+01 0.195E+02   -.219E-02 -.206E-02 0.526E-02
   -.485E+01 -.203E+01 -.259E+02   0.513E+01 0.187E+01 0.272E+02   -.193E+00 0.658E-01 -.104E+01   -.903E-03 0.452E-03 0.422E-02
   0.169E+02 -.239E+02 -.104E+03   -.171E+02 0.248E+02 0.109E+03   0.233E+00 -.755E+00 -.399E+01   0.639E-02 -.115E-02 0.517E-02
   -.413E+01 -.663E+02 -.326E+03   0.285E+02 0.817E+02 0.353E+03   -.219E+02 -.136E+02 -.233E+02   0.231E-01 0.468E-02 0.472E-02
   0.109E+02 0.719E+02 -.819E+02   -.331E+02 -.677E+02 0.937E+02   0.191E+02 -.416E+01 -.105E+02   -.332E-02 0.148E-01 0.111E-01
   -.175E+02 0.126E+03 0.133E+03   0.208E+02 -.164E+03 -.145E+03   -.264E+01 0.338E+02 0.984E+01   -.166E-02 -.202E-01 0.118E-01
   -.532E+00 0.123E+03 0.148E+03   -.179E+01 -.161E+03 -.160E+03   0.180E+01 0.336E+02 0.993E+01   0.853E-02 -.162E-01 0.126E-01
   0.467E+02 -.649E+02 -.357E+03   -.760E+02 0.809E+02 0.378E+03   0.264E+02 -.141E+02 -.177E+02   -.193E-01 -.176E-01 -.677E-02
   -.389E+01 0.822E+02 -.116E+03   0.241E+02 -.787E+02 0.132E+03   -.175E+02 -.358E+01 -.142E+02   0.338E-01 0.208E-01 0.184E-01
   0.526E+02 0.193E+02 0.806E+02   -.576E+02 -.228E+02 -.804E+02   0.402E+01 0.284E+01 -.388E+00   0.160E-01 0.149E-01 0.112E-01
   0.156E+02 0.421E+02 0.160E+03   -.178E+02 -.439E+02 -.165E+03   0.195E+01 0.160E+01 0.404E+01   -.289E-01 0.648E-02 0.457E-02
   -.209E+03 -.114E+03 -.131E+03   0.243E+03 0.136E+03 0.133E+03   -.300E+02 -.187E+02 -.891E+00   0.225E-02 -.120E-01 0.920E-02
   0.164E+03 -.747E+02 0.211E+03   -.200E+03 0.851E+02 -.231E+03   0.312E+02 -.935E+01 0.166E+02   0.638E-03 -.157E-01 0.924E-02
   0.104E+02 0.176E+03 0.463E+03   -.545E+01 -.207E+03 -.490E+03   -.458E+01 0.281E+02 0.229E+02   0.245E-01 -.775E-03 0.803E-03
   0.293E+01 0.257E+03 0.385E+03   -.485E+01 -.296E+03 -.398E+03   0.121E+01 0.339E+02 0.108E+02   0.434E-02 -.940E-02 -.170E-02
   0.214E+03 -.378E+02 0.146E+03   -.250E+03 0.579E+02 -.153E+03   0.316E+02 -.177E+02 0.610E+01   0.137E-01 0.290E-02 0.926E-02
   -.156E+03 -.171E+03 -.313E+03   0.189E+03 0.190E+03 0.330E+03   -.292E+02 -.161E+02 -.139E+02   0.215E-02 -.218E-01 0.668E-02
   0.851E+00 -.350E+02 -.137E+02   -.736E+00 0.364E+02 0.110E+02   -.145E+00 -.113E+01 0.219E+01   -.958E-03 -.186E-01 0.789E-02
   -.163E+02 -.273E+02 -.203E+03   0.160E+02 0.296E+02 0.209E+03   0.149E+00 -.202E+01 -.534E+01   -.457E-02 -.551E-02 0.128E-02
   -.245E+03 -.718E+02 -.993E+02   0.280E+03 0.925E+02 0.100E+03   -.306E+02 -.183E+02 -.103E+01   -.183E-01 -.460E-02 -.305E-02
   0.194E+03 -.161E+03 0.327E+03   -.229E+03 0.179E+03 -.336E+03   0.308E+02 -.162E+02 0.667E+01   -.102E-01 0.133E-01 0.472E-02
   -.335E+00 0.163E+03 -.412E+03   0.547E+01 -.195E+03 0.439E+03   -.439E+01 0.284E+02 -.228E+02   0.323E-02 0.500E-02 -.226E-02
   -.376E+02 0.125E+03 -.464E+03   0.360E+02 -.155E+03 0.494E+03   0.136E+01 0.267E+02 -.261E+02   -.126E-01 0.335E-02 -.493E-02
   0.205E+03 -.140E+03 0.253E+03   -.233E+03 0.165E+03 -.268E+03   0.242E+02 -.226E+02 0.123E+02   0.818E-02 0.153E-01 0.528E-02
   -.184E+03 -.802E+02 -.199E+03   0.220E+03 0.901E+02 0.216E+03   -.320E+02 -.931E+01 -.141E+02   -.268E-01 -.275E-03 0.121E-02
   -.495E+02 0.224E+02 0.475E+02   0.530E+02 -.253E+02 -.504E+02   -.279E+01 0.217E+01 0.214E+01   -.169E-01 -.127E-02 0.198E-02
   0.496E+02 -.123E+03 -.107E+04   -.511E+02 0.142E+03 0.109E+04   0.130E+01 -.181E+02 -.226E+02   0.594E-01 -.625E-02 -.686E-01
 -----------------------------------------------------------------------------------------------
   0.300E+01 -.383E+01 0.200E+01   -.284E-13 -.142E-12 0.227E-12   -.306E+01 0.385E+01 -.219E+01   0.541E-01 -.861E-02 0.217E+00
 
 
 POSITION                                       TOTAL-FORCE (eV/Angst)
 -----------------------------------------------------------------------------------
     -0.01406      2.32837      6.01314        -0.023854      1.828943     -0.618388
      1.14737      4.33115      6.10753        -2.011499      0.213540      0.000994
     -1.19840      4.28834      6.02475         1.934354      0.211340      0.206338
      5.40564      0.62161      7.13028        -0.132902     -0.171151      0.386306
      3.27877      4.32997      5.81661        -0.104891      0.425013     -0.357363
      1.11475      0.55970      6.32641         0.076038     -0.120866     -0.194351
     -3.37781      7.80910      6.82301         0.364618      1.449413      0.882735
     -2.09106      9.73392      7.06694        -1.383670     -1.274518      0.216137
     -4.40188      9.82366      7.02357         1.462968     -1.209550      0.339048
      2.26149      5.94709      7.07684        -0.439504     -0.224176      0.241988
      0.03705      9.65158      6.89448         0.071177     -0.392355     -0.456041
     -2.39623      5.94403      6.77746         0.356830     -0.416251      0.637693
      6.56737      2.34027      6.66513         0.111321      1.411596     -0.724534
      7.61765      4.14408      5.63835        -1.616593     -0.694552     -0.376026
      5.37710      4.22555      6.14001         1.664763     -1.102609     -0.241565
     11.88549      0.40648      6.49587        -0.147539     -0.218195     -0.195515
      9.72648      4.08063      5.55371         0.362822      0.280397     -0.476132
      7.67748      0.60930      7.21965         0.265293     -0.059673      0.366365
      3.35258      7.70844      7.49061        -0.632170      1.763077      0.866054
      4.44013      9.72254      7.37261        -1.680140     -1.158364      0.859871
      2.12371      9.70222      7.35071         1.596996     -1.331433      0.602870
      8.54816      6.01927      5.92918         0.527643      0.582268     -0.145136
      6.55197      9.74191      7.53877         0.002953     -0.040723      0.572111
      4.47612      5.98619      6.90703        -0.344550      0.237501      0.196687
     -0.01349      3.65790      5.99290         0.162277      0.235459     -0.304112
      1.09639      1.74009      5.93542         3.887260      2.274663     -1.879438
      4.36401     -0.04043      7.36242        -3.793385      2.192937      2.382267
      4.36610      3.78310      5.53264         0.580367     -3.625738     -3.588486
      2.13859      3.90404      5.49552        -0.160777     -2.975059     -3.943829
      5.43012      1.85227      6.95344        -3.814669      3.207087      0.579969
     -4.36421     10.83551      6.29786         3.831216      1.130562     -3.218214
      0.01582      0.02010      6.80807         0.090196     -0.095259      0.231002
     -3.26347      9.10420      7.05366         0.130973      0.064938      0.684014
     -2.45457      7.06971      7.30081         2.348456      1.869066      3.873121
      1.14685      5.33975      6.93086        -3.062364      0.076909      1.333512
      1.13853      9.04301      6.90510         0.608753     -4.353196     -1.877167
     -1.06174      9.05748      6.75917        -0.530621     -4.333942     -1.881986
      2.27732      7.03465      7.68216        -2.946857      1.923344      3.393366
     -1.30241      5.29154      6.84014         2.788852     -0.032599      2.148401
      9.63492      5.27506      6.14743        -0.938394     -0.634103     -0.208621
      6.53618      3.50988      6.05338        -0.278025     -0.179181     -0.813966
      7.68655      1.83520      6.98285         3.894838      3.097795      0.361993
      4.34745     10.69373      6.59667        -4.003332      1.011386     -2.979078
     -2.12210      3.82486      5.34111         0.437217     -3.143584     -3.942174
      8.65869      3.48077      5.35135        -0.703830     -4.690641     -2.138362
     11.87358      1.59212      6.13535        -4.023744      2.549980     -0.988539
      8.66973     -0.06227      7.60668         3.446725      2.245666      2.760602
      6.54424     -0.04782      7.02616        -0.028905      0.297230     -0.458330
      3.28138      9.02979      7.53221        -0.200317      0.227080      0.939867
      4.45829      7.19523      7.22575         4.244888      2.313913      0.110616
      7.53155      5.42086      5.58003        -4.498414      1.537543     -2.214235
     -5.34376      9.37454      7.73635         0.752135     -3.530986      3.505834
      5.45837      9.29734      7.98130        -0.235887     -2.841351      4.156318
     -4.35136      7.44473      6.12722        -3.367412      2.916666     -2.217584
      5.49001      5.28117      6.82187         4.519753      0.569589      2.344820
      3.31511      5.42583      6.58697         0.720560     -0.651215     -0.704772
     -0.12591      6.46642      7.86491        -0.137998      1.356367      1.963044
 -----------------------------------------------------------------------------------
    total drift:                               -0.004167      0.003455      0.021265


--------------------------------------------------------------------------------------------------------



  FREE ENERGIE OF THE ION-ELECTRON SYSTEM (eV)
  ---------------------------------------------------
  free  energy   TOTEN  =      -465.69313314 eV

  energy  without entropy=     -465.69313314  energy(sigma->0) =     -465.69313314
 


--------------------------------------------------------------------------------------------------------


    POTLOK:  cpu time    0.0962: real time    0.0966


--------------------------------------------------------------------------------------------------------


 stress matrix after NEB project (eV)
    248.73158     -4.59198      6.85625
     -4.59198    221.81639     12.19841
      6.85625     12.19841     45.17971
  FORCES: max atom, RMS     5.244292    3.332469
  FORCE total and by dimension   25.159588    4.690641
  Stress total and by dimension  336.964246  248.731577
     LOOP+:  cpu time  128.5043: real time  131.1706
    4ORBIT:  cpu time    0.0000: real time    0.0000
 


 total charge     
 
# of ion       s       p       d       tot
------------------------------------------
    1        0.910   1.944   0.000   2.853
    2        0.894   1.926   0.000   2.820
    3        0.898   1.934   0.000   2.831
    4        0.923   1.957   0.000   2.880
    5        0.911   1.952   0.000   2.862
    6        0.927   1.968   0.000   2.896
    7        0.910   1.937   0.000   2.847
    8        0.908   1.930   0.000   2.838
    9        0.914   1.933   0.000   2.847
   10        0.929   1.993   0.000   2.922
   11        0.924   1.961   0.000   2.885
   12        0.934   2.004   0.000   2.939
   13        0.907   1.930   0.000   2.838
   14        0.903   1.933   0.000   2.836
   15        0.900   1.934   0.000   2.835
   16        0.929   1.974   0.000   2.903
   17        0.914   1.963   0.000   2.876
   18        0.919   1.954   0.000   2.873
   19        0.908   1.934   0.000   2.842
   20        0.911   1.929   0.000   2.840
   21        0.904   1.922   0.000   2.826
   22        0.919   1.958   0.000   2.877
   23        0.919   1.944   0.000   2.863
   24        0.924   1.976   0.000   2.900
   25        1.245   2.912   0.000   4.158
   26        1.299   2.833   0.000   4.132
   27        1.295   2.828   0.000   4.124
   28        1.297   2.797   0.000   4.094
   29        1.297   2.821   0.000   4.118
   30        1.294   2.824   0.000   4.118
   31        1.305   2.824   0.000   4.130
   32        1.271   2.951   0.000   4.222
   33        1.257   2.929   0.000   4.187
   34        1.293   2.838   0.000   4.131
   35        1.271   2.845   0.000   4.116
   36        1.291   2.821   0.000   4.113
   37        1.290   2.821   0.000   4.111
   38        1.289   2.828   0.000   4.118
   39        1.272   2.851   0.000   4.124
   40        1.271   2.968   0.000   4.239
   41        1.253   2.912   0.000   4.165
   42        1.292   2.813   0.000   4.104
   43        1.303   2.832   0.000   4.135
   44        1.297   2.821   0.000   4.118
   45        1.296   2.801   0.000   4.097
   46        1.299   2.839   0.000   4.138
   47        1.295   2.819   0.000   4.114
   48        1.268   2.954   0.000   4.222
   49        1.251   2.895   0.000   4.146
   50        1.299   2.833   0.000   4.132
   51        1.295   2.821   0.000   4.116
   52        1.295   2.806   0.000   4.101
   53        1.295   2.810   0.000   4.105
   54        1.292   2.816   0.000   4.107
   55        1.304   2.817   0.000   4.121
   56        1.269   2.960   0.000   4.229
   57        1.324   0.871  10.102  12.297
--------------------------------------------------
tot         64.402 138.903  10.102 213.408
 


 magnetization (x)
 
# of ion       s       p       d       tot
------------------------------------------
    1        0.000  -0.000   0.000  -0.000
    2        0.000   0.000   0.000   0.000
    3       -0.000  -0.000   0.000  -0.000
    4       -0.000  -0.000   0.000  -0.000
    5        0.000   0.000   0.000   0.000
    6        0.000  -0.000   0.000  -0.000
    7       -0.000  -0.000   0.000  -0.000
    8       -0.000  -0.000   0.000  -0.000
    9       -0.000  -0.000   0.000  -0.000
   10       -0.000  -0.000   0.000  -0.000
   11        0.000   0.000   0.000   0.000
   12        0.000   0.000   0.000   0.000
   13       -0.000  -0.000   0.000  -0.000
   14       -0.000  -0.000   0.000  -0.000
   15        0.000   0.000   0.000   0.000
   16        0.000   0.000   0.000   0.000
   17       -0.000  -0.000   0.000  -0.000
   18       -0.000  -0.000   0.000  -0.000
   19        0.000   0.000   0.000   0.000
   20        0.000   0.000   0.000   0.000
   21       -0.000  -0.000   0.000  -0.000
   22       -0.000  -0.000   0.000  -0.000
   23        0.000   0.000   0.000   0.000
   24        0.000   0.000   0.000   0.000
   25       -0.000   0.000   0.000   0.000
   26        0.000  -0.000   0.000  -0.000
   27       -0.000  -0.000   0.000  -0.000
   28       -0.000  -0.000   0.000  -0.000
   29       -0.000  -0.000   0.000  -0.000
   30        0.000  -0.000   0.000  -0.000
   31        0.000  -0.000   0.000  -0.000
   32        0.000   0.000   0.000   0.000
   33       -0.000   0.000   0.000   0.000
   34       -0.000  -0.000   0.000  -0.000
   35        0.000   0.000   0.000   0.000
   36        0.000  -0.000   0.000  -0.000
   37        0.000  -0.000   0.000  -0.000
   38        0.000   0.000   0.000   0.000
   39        0.000  -0.000   0.000   0.000
   40        0.000  -0.000   0.000  -0.000
   41       -0.000   0.000   0.000   0.000
   42        0.000   0.000   0.000   0.000
   43        0.000  -0.000   0.000  -0.000
   44        0.000   0.000   0.000   0.000
   45       -0.000   0.000   0.000   0.000
   46        0.000  -0.000   0.000  -0.000
   47       -0.000  -0.000   0.000  -0.000
   48       -0.000  -0.000   0.000  -0.000
   49        0.000   0.000   0.000   0.000
   50       -0.000  -0.000   0.000  -0.000
   51       -0.000  -0.000   0.000  -0.000
   52       -0.000  -0.000   0.000  -0.000
   53       -0.000  -0.000   0.000  -0.000
   54        0.000   0.000   0.000   0.000
   55        0.000   0.000   0.000   0.000
   56        0.000   0.000   0.000   0.000
   57        0.000   0.000  -0.000   0.000
--------------------------------------------------
tot          0.000  -0.000  -0.000  -0.000
 
 BZINTS: Fermi energy: -1.395599;270.000000 electrons
         Band energy:***********;  BLOECHL correction:  0.000000

 total amount of memory used by VASP MPI-rank0    75588. kBytes
=======================================================================

   base      :      30000. kBytes
   nonl-proj :      10752. kBytes
   fftplans  :       2997. kBytes
   grid      :       7815. kBytes
   one-center:        155. kBytes
   wavefun   :      23869. kBytes
 
  
  
 General timing and accounting informations for this job:
 ========================================================
  
                  Total CPU time used (sec):      140.977
                            User time (sec):      134.922
                          System time (sec):        6.055
                         Elapsed time (sec):      152.089
  
                   Maximum memory used (kb):      440012.
                   Average memory used (kb):           0.
  
                          Minor page faults:       799393
                          Major page faults:            0
                 Voluntary context switches:         8022
