 vasp.5.4.4.18Apr17-6-g9f103f2a35 (build Jan 14 2022 15:04:31) complex          
  
 executed on             LinuxIFC date 2023.01.27  22:54:35
 running on   48 total cores
 distrk:  each k-point on   48 cores,    1 groups
 distr:  one band on NCORES_PER_BAND=  12 cores,    4 groups


--------------------------------------------------------------------------------------------------------


 INCAR:
 POTCAR:    PAW_PBE C 08Apr2002                   
 POTCAR:    PAW_PBE N 08Apr2002                   
 POTCAR:    PAW_PBE C 08Apr2002                   
 POTCAR:    PAW_PBE Cr_pv 02Aug2007               
 POTCAR:    PAW_PBE C 08Apr2002                   
 POTCAR:    PAW_PBE O 08Apr2002                   
 POTCAR:    PAW_PBE C 08Apr2002                   
   SHA256 =  253f7b50bb8d59471dbedb8285d89021f4a42ed1a2c5d38a03a736e69125dd95 C/
   COPYR  = (c) Copyright 08Apr2002 Georg Kresse                                
   COPYR  = This file is part of the software VASP. Any use, copying, and all ot
   COPYR  = If you do not have a valid VASP license, you may not use, copy or di
   VRHFIN =C: s2p2                                                              
   LEXCH  = PE                                                                  
   EATOM  =   147.1560 eV,   10.8157 Ry                                         
                                                                                
   TITEL  = PAW_PBE C 08Apr2002                                                 
   LULTRA =        F    use ultrasoft PP ?                                      
   IUNSCR =        1    unscreen: 0-lin 1-nonlin 2-no                           
   RPACOR =    1.200    partial core radius                                     
   POMASS =   12.011; ZVAL   =    4.000    mass and valenz                      
   RCORE  =    1.500    outmost cutoff radius                                   
   RWIGS  =    1.630; RWIGS  =    0.863    wigner-seitz radius (au A)           
   ENMAX  =  400.000; ENMIN  =  300.000 eV                                      
   ICORE  =        2    local potential                                         
   LCOR   =        T    correct aug charges                                     
   LPAW   =        T    paw PP                                                  
   EAUG   =  644.873                                                            
   DEXC   =    0.000                                                            
   RMAX   =    1.529    core radius for proj-oper                               
   RAUG   =    1.300    factor for augmentation sphere                          
   RDEP   =    1.501    radius for radial grids                                 
   RDEPT  =    1.300    core radius for aug-charge                              
                                                                                
   Atomic configuration                                                         
    4 entries                                                                   
     n  l   j            E        occ.                                          
     1  0  0.50      -273.3789   2.0000                                         
     2  0  0.50       -13.7508   2.0000                                         
     2  1  0.50        -5.2854   2.0000                                         
     3  2  1.50        -5.4423   0.0000                                         
   Description                                                                  
     l       E           TYP  RCUT    TYP  RCUT                                 
     0    -13.7508458     23  1.200                                             
     0     -8.2022199     23  1.200                                             
     1     -5.2854383     23  1.500                                             
     1     34.0145650     23  1.500                                             
     2     -5.4423304      7  1.500                                             
  local pseudopotential read in
  partial core-charges read in
  partial kinetic energy density read in
  atomic valenz-charges read in
  non local Contribution for L=           0  read in
    real space projection operators read in
  non local Contribution for L=           0  read in
    real space projection operators read in
  non local Contribution for L=           1  read in
    real space projection operators read in
  non local Contribution for L=           1  read in
    real space projection operators read in
    PAW grid and wavefunctions read in
 
   number of l-projection  operators is LMAX  =           4
   number of lm-projection operators is LMMAX =           8
 
 POTCAR:    PAW_PBE N 08Apr2002                   
   SHA256 =  e053789ff3a61a86a1b75d8a110fcc91f86041011e7b0817c7c99e4e8a6349d7 N/
   COPYR  = (c) Copyright 08Apr2002 Georg Kresse                                
   COPYR  = This file is part of the software VASP. Any use, copying, and all ot
   COPYR  = If you do not have a valid VASP license, you may not use, copy or di
   VRHFIN =N: s2p3                                                              
   LEXCH  = PE                                                                  
   EATOM  =   264.5486 eV,   19.4438 Ry                                         
                                                                                
   TITEL  = PAW_PBE N 08Apr2002                                                 
   LULTRA =        F    use ultrasoft PP ?                                      
   IUNSCR =        1    unscreen: 0-lin 1-nonlin 2-no                           
   RPACOR =    1.200    partial core radius                                     
   POMASS =   14.001; ZVAL   =    5.000    mass and valenz                      
   RCORE  =    1.500    outmost cutoff radius                                   
   RWIGS  =    1.400; RWIGS  =    0.741    wigner-seitz radius (au A)           
   ENMAX  =  400.000; ENMIN  =  300.000 eV                                      
   ICORE  =        2    local potential                                         
   LCOR   =        T    correct aug charges                                     
   LPAW   =        T    paw PP                                                  
   EAUG   =  627.112                                                            
   DEXC   =    0.000                                                            
   RMAX   =    1.529    core radius for proj-oper                               
   RAUG   =    1.300    factor for augmentation sphere                          
   RDEP   =    1.514    radius for radial grids                                 
   RDEPT  =    1.338    core radius for aug-charge                              
                                                                                
   Atomic configuration                                                         
    4 entries                                                                   
     n  l   j            E        occ.                                          
     1  0  0.50      -384.7179   2.0000                                         
     2  0  0.50       -18.5828   2.0000                                         
     2  1  0.50        -7.0898   3.0000                                         
     3  2  1.50        -6.8029   0.0000                                         
   Description                                                                  
     l       E           TYP  RCUT    TYP  RCUT                                 
     0    -18.5828119     23  1.200                                             
     0    -13.5018863     23  1.200                                             
     1     -7.0897853     23  1.500                                             
     1      9.5240782     23  1.500                                             
     2     -6.8029130      7  1.500                                             
  local pseudopotential read in
  partial core-charges read in
  partial kinetic energy density read in
  atomic valenz-charges read in
  non local Contribution for L=           0  read in
    real space projection operators read in
  non local Contribution for L=           0  read in
    real space projection operators read in
  non local Contribution for L=           1  read in
    real space projection operators read in
  non local Contribution for L=           1  read in
    real space projection operators read in
    PAW grid and wavefunctions read in
 
   number of l-projection  operators is LMAX  =           4
   number of lm-projection operators is LMMAX =           8
 
 POTCAR:    PAW_PBE C 08Apr2002                   
   SHA256 =  253f7b50bb8d59471dbedb8285d89021f4a42ed1a2c5d38a03a736e69125dd95 C/
   COPYR  = (c) Copyright 08Apr2002 Georg Kresse                                
   COPYR  = This file is part of the software VASP. Any use, copying, and all ot
   COPYR  = If you do not have a valid VASP license, you may not use, copy or di
   VRHFIN =C: s2p2                                                              
   LEXCH  = PE                                                                  
   EATOM  =   147.1560 eV,   10.8157 Ry                                         
                                                                                
   TITEL  = PAW_PBE C 08Apr2002                                                 
   LULTRA =        F    use ultrasoft PP ?                                      
   IUNSCR =        1    unscreen: 0-lin 1-nonlin 2-no                           
   RPACOR =    1.200    partial core radius                                     
   POMASS =   12.011; ZVAL   =    4.000    mass and valenz                      
   RCORE  =    1.500    outmost cutoff radius                                   
   RWIGS  =    1.630; RWIGS  =    0.863    wigner-seitz radius (au A)           
   ENMAX  =  400.000; ENMIN  =  300.000 eV                                      
   ICORE  =        2    local potential                                         
   LCOR   =        T    correct aug charges                                     
   LPAW   =        T    paw PP                                                  
   EAUG   =  644.873                                                            
   DEXC   =    0.000                                                            
   RMAX   =    1.529    core radius for proj-oper                               
   RAUG   =    1.300    factor for augmentation sphere                          
   RDEP   =    1.501    radius for radial grids                                 
   RDEPT  =    1.300    core radius for aug-charge                              
                                                                                
   Atomic configuration                                                         
    4 entries                                                                   
     n  l   j            E        occ.                                          
     1  0  0.50      -273.3789   2.0000                                         
     2  0  0.50       -13.7508   2.0000                                         
     2  1  0.50        -5.2854   2.0000                                         
     3  2  1.50        -5.4423   0.0000                                         
   Description                                                                  
     l       E           TYP  RCUT    TYP  RCUT                                 
     0    -13.7508458     23  1.200                                             
     0     -8.2022199     23  1.200                                             
     1     -5.2854383     23  1.500                                             
     1     34.0145650     23  1.500                                             
     2     -5.4423304      7  1.500                                             
  local pseudopotential read in
  partial core-charges read in
  partial kinetic energy density read in
  atomic valenz-charges read in
  non local Contribution for L=           0  read in
    real space projection operators read in
  non local Contribution for L=           0  read in
    real space projection operators read in
  non local Contribution for L=           1  read in
    real space projection operators read in
  non local Contribution for L=           1  read in
    real space projection operators read in
    PAW grid and wavefunctions read in
 
   number of l-projection  operators is LMAX  =           4
   number of lm-projection operators is LMMAX =           8
 
 POTCAR:    PAW_PBE Cr_pv 02Aug2007               
   SHA256 =  c9a7df34d3cdbacf1090e328ef39c0b420964e11c23f63548d1ac9dd218cdba0 Cr
   COPYR  = (c) Copyright 02Aug2007 Georg Kresse                                
   COPYR  = This file is part of the software VASP. Any use, copying, and all ot
   COPYR  = If you do not have a valid VASP license, you may not use, copy or di
   VRHFIN =Cr : p6d5s1                                                          
   LEXCH  = PE                                                                  
   EATOM  =  1647.9177 eV,  121.1185 Ry                                         
                                                                                
   TITEL  = PAW_PBE Cr_pv 02Aug2007                                             
   LULTRA =        F    use ultrasoft PP ?                                      
   IUNSCR =        1    unscreen: 0-lin 1-nonlin 2-no                           
   RPACOR =    2.080    partial core radius                                     
   POMASS =   51.996; ZVAL   =   12.000    mass and valenz                      
   RCORE  =    2.300    outmost cutoff radius                                   
   RWIGS  =    2.500; RWIGS  =    1.323    wigner-seitz radius (au A)           
   ENMAX  =  265.681; ENMIN  =  199.261 eV                                      
   ICORE  =        3    local potential                                         
   LCOR   =        T    correct aug charges                                     
   LPAW   =        T    paw PP                                                  
   EAUG   =  519.424                                                            
   DEXC   =    0.000                                                            
   RMAX   =    2.356    core radius for proj-oper                               
   RAUG   =    1.300    factor for augmentation sphere                          
   RDEP   =    2.447    radius for radial grids                                 
   RDEPT  =    1.882    core radius for aug-charge                              
                                                                                
   Atomic configuration                                                         
    8 entries                                                                   
     n  l   j            E        occ.                                          
     1  0  0.50     -5880.4963   2.0000                                         
     2  0  0.50      -667.0865   2.0000                                         
     2  1  1.50      -560.6250   6.0000                                         
     3  0  0.50       -73.9860   2.0000                                         
     3  1  1.50       -45.4378   6.0000                                         
     3  2  2.50        -2.9137   5.0000                                         
     4  0  0.50        -4.0071   1.0000                                         
     4  3  2.50        -1.3606   0.0000                                         
   Description                                                                  
     l       E           TYP  RCUT    TYP  RCUT                                 
     1    -45.4377911     23  2.000                                             
     1      1.3605826     23  2.000                                             
     2     -2.9136672     23  2.300                                             
     2     -4.2742498     23  2.300                                             
     0     -4.0071320     23  2.300                                             
     0      9.4498803     23  2.300                                             
     3      2.7211652     23  2.300                                             
  local pseudopotential read in
  partial core-charges read in
  partial kinetic energy density read in
  atomic valenz-charges read in
  non local Contribution for L=           1  read in
    real space projection operators read in
  non local Contribution for L=           1  read in
    real space projection operators read in
  non local Contribution for L=           2  read in
    real space projection operators read in
  non local Contribution for L=           2  read in
    real space projection operators read in
  non local Contribution for L=           0  read in
    real space projection operators read in
  non local Contribution for L=           0  read in
    real space projection operators read in
    PAW grid and wavefunctions read in
 
   number of l-projection  operators is LMAX  =           6
   number of lm-projection operators is LMMAX =          18
 
 POTCAR:    PAW_PBE C 08Apr2002                   
   SHA256 =  253f7b50bb8d59471dbedb8285d89021f4a42ed1a2c5d38a03a736e69125dd95 C/
   COPYR  = (c) Copyright 08Apr2002 Georg Kresse                                
   COPYR  = This file is part of the software VASP. Any use, copying, and all ot
   COPYR  = If you do not have a valid VASP license, you may not use, copy or di
   VRHFIN =C: s2p2                                                              
   LEXCH  = PE                                                                  
   EATOM  =   147.1560 eV,   10.8157 Ry                                         
                                                                                
   TITEL  = PAW_PBE C 08Apr2002                                                 
   LULTRA =        F    use ultrasoft PP ?                                      
   IUNSCR =        1    unscreen: 0-lin 1-nonlin 2-no                           
   RPACOR =    1.200    partial core radius                                     
   POMASS =   12.011; ZVAL   =    4.000    mass and valenz                      
   RCORE  =    1.500    outmost cutoff radius                                   
   RWIGS  =    1.630; RWIGS  =    0.863    wigner-seitz radius (au A)           
   ENMAX  =  400.000; ENMIN  =  300.000 eV                                      
   ICORE  =        2    local potential                                         
   LCOR   =        T    correct aug charges                                     
   LPAW   =        T    paw PP                                                  
   EAUG   =  644.873                                                            
   DEXC   =    0.000                                                            
   RMAX   =    1.529    core radius for proj-oper                               
   RAUG   =    1.300    factor for augmentation sphere                          
   RDEP   =    1.501    radius for radial grids                                 
   RDEPT  =    1.300    core radius for aug-charge                              
                                                                                
   Atomic configuration                                                         
    4 entries                                                                   
     n  l   j            E        occ.                                          
     1  0  0.50      -273.3789   2.0000                                         
     2  0  0.50       -13.7508   2.0000                                         
     2  1  0.50        -5.2854   2.0000                                         
     3  2  1.50        -5.4423   0.0000                                         
   Description                                                                  
     l       E           TYP  RCUT    TYP  RCUT                                 
     0    -13.7508458     23  1.200                                             
     0     -8.2022199     23  1.200                                             
     1     -5.2854383     23  1.500                                             
     1     34.0145650     23  1.500                                             
     2     -5.4423304      7  1.500                                             
  local pseudopotential read in
  partial core-charges read in
  partial kinetic energy density read in
  atomic valenz-charges read in
  non local Contribution for L=           0  read in
    real space projection operators read in
  non local Contribution for L=           0  read in
    real space projection operators read in
  non local Contribution for L=           1  read in
    real space projection operators read in
  non local Contribution for L=           1  read in
    real space projection operators read in
    PAW grid and wavefunctions read in
 
   number of l-projection  operators is LMAX  =           4
   number of lm-projection operators is LMMAX =           8
 
 POTCAR:    PAW_PBE O 08Apr2002                   
   SHA256 =  818f92134a0a090dccd8ba1447fa70422a3b330e708bb4f08108d8ae51209ddf O/
   COPYR  = (c) Copyright 08Apr2002 Georg Kresse                                
   COPYR  = This file is part of the software VASP. Any use, copying, and all ot
   COPYR  = If you do not have a valid VASP license, you may not use, copy or di
   VRHFIN =O: s2p4                                                              
   LEXCH  = PE                                                                  
   EATOM  =   432.3788 eV,   31.7789 Ry                                         
                                                                                
   TITEL  = PAW_PBE O 08Apr2002                                                 
   LULTRA =        F    use ultrasoft PP ?                                      
   IUNSCR =        1    unscreen: 0-lin 1-nonlin 2-no                           
   RPACOR =    1.200    partial core radius                                     
   POMASS =   16.000; ZVAL   =    6.000    mass and valenz                      
   RCORE  =    1.520    outmost cutoff radius                                   
   RWIGS  =    1.550; RWIGS  =    0.820    wigner-seitz radius (au A)           
   ENMAX  =  400.000; ENMIN  =  300.000 eV                                      
   ICORE  =        2    local potential                                         
   LCOR   =        T    correct aug charges                                     
   LPAW   =        T    paw PP                                                  
   EAUG   =  605.392                                                            
   DEXC   =    0.000                                                            
   RMAX   =    1.553    core radius for proj-oper                               
   RAUG   =    1.300    factor for augmentation sphere                          
   RDEP   =    1.550    radius for radial grids                                 
   RDEPT  =    1.329    core radius for aug-charge                              
                                                                                
   Atomic configuration                                                         
    4 entries                                                                   
     n  l   j            E        occ.                                          
     1  0  0.50      -514.6923   2.0000                                         
     2  0  0.50       -23.9615   2.0000                                         
     2  1  0.50        -9.0305   4.0000                                         
     3  2  1.50        -9.5241   0.0000                                         
   Description                                                                  
     l       E           TYP  RCUT    TYP  RCUT                                 
     0    -23.9615318     23  1.200                                             
     0     -9.5240782     23  1.200                                             
     1     -9.0304911     23  1.520                                             
     1      8.1634956     23  1.520                                             
     2     -9.5240782      7  1.500                                             
  local pseudopotential read in
  partial core-charges read in
  partial kinetic energy density read in
  kinetic energy density of atom read in
  atomic valenz-charges read in
  non local Contribution for L=           0  read in
    real space projection operators read in
  non local Contribution for L=           0  read in
    real space projection operators read in
  non local Contribution for L=           1  read in
    real space projection operators read in
  non local Contribution for L=           1  read in
    real space projection operators read in
    PAW grid and wavefunctions read in
 
   number of l-projection  operators is LMAX  =           4
   number of lm-projection operators is LMMAX =           8
 

 ----------------------------------------------------------------------------- 
|                                                                             |
|  ADVICE TO THIS USER RUNNING 'VASP/VAMP'   (HEAR YOUR MASTER'S VOICE ...):  |
|                                                                             |
|      You have a (more or less) 'large supercell' and for larger cells       |
|      it might be more efficient to use real space projection opertators     |
|      So try LREAL= Auto  in the INCAR   file.                               |
|      Mind:          For very  accurate calculation you might also keep the  |
|      reciprocal projection scheme          (i.e. LREAL=.FALSE.)             |
|                                                                             |
 ----------------------------------------------------------------------------- 

  PAW_PBE C 08Apr2002                   :
 energy of atom  1       EATOM= -147.1560
 kinetic energy error for atom=    0.0132 (will be added to EATOM!!)
  PAW_PBE N 08Apr2002                   :
 energy of atom  2       EATOM= -264.5486
 kinetic energy error for atom=    0.0298 (will be added to EATOM!!)
  PAW_PBE C 08Apr2002                   :
 energy of atom  3       EATOM= -147.1560
 kinetic energy error for atom=    0.0132 (will be added to EATOM!!)
  PAW_PBE Cr_pv 02Aug2007               :
 energy of atom  4       EATOM=-1647.9177
 kinetic energy error for atom=    0.0134 (will be added to EATOM!!)
  PAW_PBE C 08Apr2002                   :
 energy of atom  5       EATOM= -147.1560
 kinetic energy error for atom=    0.0132 (will be added to EATOM!!)
  PAW_PBE O 08Apr2002                   :
 energy of atom  6       EATOM= -432.3788
 kinetic energy error for atom=    0.0458 (will be added to EATOM!!)
 
 
 POSCAR: POSCAR-clean                            
  positions in cartesian coordinates
  No initial velocities read in
 exchange correlation table for  LEXCH =        8
   RHO(1)=    0.500       N(1)  =     2000
   RHO(2)=  100.500       N(2)  =     4000

 VTST: version 3.2, (02/03/18)

 CHAIN: initializing optimizer
 
 OPT: Using VASP Dynamics algorithm
 CHAIN: Read ICHAIN            0
 
 POSCAR: POSCAR-clean                            
  positions in cartesian coordinates
  No initial velocities read in
 


--------------------------------------------------------------------------------------------------------


 ion  position               nearest neighbor table
   1  1.000  1.000  0.484-   2 1.42  60 1.42  70 1.43
   2  0.056  0.111  0.484-   1 1.42  13 1.42  15 1.44
   3  0.168  0.002  0.483-   4 1.42  62 1.42  60 1.43
   4  0.224  0.113  0.484-   3 1.42  15 1.42  17 1.43
   5  0.335  0.002  0.484-   6 1.42  64 1.43  62 1.43
   6  0.391  0.114  0.484-   5 1.42  17 1.43  19 1.43
   7  0.500  0.000  0.484-   8 1.42  64 1.42  66 1.43
   8  0.556  0.111  0.484-   7 1.42  21 1.42  19 1.43
   9  0.666  0.998  0.484-  66 1.42  10 1.42  68 1.44
  10  0.722  0.110  0.484-  23 1.42   9 1.42  21 1.44
  11  0.832  0.998  0.484-  12 1.42  70 1.43  68 1.43
  12  0.888  0.109  0.484-  11 1.42  23 1.43  13 1.43
  13  0.999  0.166  0.484-  14 1.42   2 1.42  12 1.43
  14  0.055  0.277  0.484-  13 1.42  25 1.43  27 1.43
  15  0.168  0.168  0.484-  16 1.42   4 1.42   2 1.44
  16  0.223  0.280  0.486-  15 1.42  27 1.43  29 1.45
  17  0.336  0.170  0.485-  18 1.42   6 1.43   4 1.43
  18  0.392  0.281  0.488-  17 1.42  29 1.44  31 1.44
  19  0.502  0.169  0.484-  20 1.42   8 1.43   6 1.43
  20  0.558  0.280  0.486-  33 1.41  19 1.42  31 1.44
  21  0.666  0.166  0.484-  22 1.42   8 1.42  10 1.44
  22  0.722  0.277  0.484-  33 1.41  21 1.42  35 1.42
  23  0.833  0.165  0.484-  24 1.42  10 1.42  12 1.43
  24  0.888  0.276  0.484-  23 1.42  25 1.43  35 1.43
  25  0.999  0.332  0.484-  26 1.42  14 1.43  24 1.43
  26  0.055  0.444  0.485-  39 1.42  37 1.42  25 1.42
  27  0.166  0.333  0.486-  28 1.42  16 1.43  14 1.43
  28  0.220  0.444  0.488-  41 1.41  27 1.42  39 1.42
  29  0.336  0.338  0.489-  30 1.41  18 1.44  16 1.45
  30  0.388  0.448  0.495-  41 1.41  29 1.41  71 1.97
  31  0.504  0.339  0.490-  32 1.42  18 1.44  20 1.44
  32  0.561  0.449  0.498-  43 1.41  31 1.42  71 2.01
  33  0.668  0.333  0.486-  34 1.40  20 1.41  22 1.41
  34  0.724  0.443  0.487-  43 1.40  33 1.40  45 1.42
  35  0.833  0.333  0.484-  36 1.42  22 1.42  24 1.43
  36  0.890  0.444  0.484-  45 1.41  37 1.42  35 1.42
  37  0.000  0.500  0.484-  36 1.42  26 1.42  38 1.42
  38  0.056  0.611  0.484-  47 1.42  49 1.42  37 1.42
  39  0.165  0.500  0.486-  26 1.42  28 1.42  40 1.42
  40  0.221  0.611  0.486-  49 1.42  51 1.42  39 1.42
  41  0.329  0.499  0.491-  28 1.41  30 1.41  42 1.43
  42  0.386  0.612  0.491-  53 1.41  51 1.41  41 1.43
  43  0.670  0.498  0.491-  34 1.40  32 1.41  44 1.43
  44  0.727  0.611  0.491-  57 1.41  55 1.41  43 1.43
  45  0.835  0.499  0.485-  36 1.41  34 1.42  46 1.42
  46  0.890  0.611  0.485-  57 1.42  47 1.42  45 1.42
  47  0.001  0.667  0.484-  38 1.42  46 1.42  48 1.42
  48  0.056  0.779  0.484-  47 1.42  59 1.42  61 1.43
  49  0.166  0.667  0.485-  40 1.42  38 1.42  50 1.42
  50  0.222  0.779  0.484-  49 1.42  61 1.42  63 1.43
  51  0.331  0.667  0.488-  42 1.41  52 1.42  40 1.42
  52  0.388  0.778  0.486-  51 1.42  65 1.43  63 1.43
  53  0.495  0.663  0.494-  42 1.41  54 1.41  71 1.98
  54  0.553  0.774  0.489-  53 1.41  67 1.43  65 1.44
  55  0.667  0.661  0.496-  44 1.41  56 1.42  71 2.01
  56  0.720  0.772  0.490-  55 1.42  67 1.44  69 1.45
  57  0.836  0.667  0.487-  44 1.41  58 1.42  46 1.42
  58  0.890  0.778  0.486-  57 1.42  69 1.42  59 1.43
  59  0.001  0.834  0.484-  60 1.42  48 1.42  58 1.43
  60  0.057  0.945  0.484-  59 1.42   1 1.42   3 1.43
  61  0.167  0.835  0.484-  50 1.42  62 1.42  48 1.43
  62  0.223  0.946  0.483-  61 1.42   3 1.42   5 1.43
  63  0.333  0.835  0.484-  64 1.42  50 1.43  52 1.43
  64  0.389  0.946  0.484-  63 1.42   7 1.42   5 1.43
  65  0.499  0.832  0.486-  66 1.42  52 1.43  54 1.44
  66  0.555  0.943  0.484-  65 1.42   9 1.42   7 1.43
  67  0.665  0.830  0.488-  68 1.42  54 1.43  56 1.44
  68  0.721  0.941  0.485-  67 1.42  11 1.43   9 1.44
  69  0.832  0.831  0.486-  58 1.42  70 1.43  56 1.45
  70  0.888  0.943  0.484-  11 1.43  69 1.43   1 1.43
  71  0.525  0.556  0.542-  30 1.97  53 1.98  32 2.01  55 2.01
  72  0.525  0.556  0.940-  73 1.16
  73  0.475  0.499  0.997-  72 1.16
 

IMPORTANT INFORMATION: All symmetrisations will be switched off!
NOSYMM: (Re-)initialisation of all symmetry stuff for point group C_1.

 
 
 KPOINTS: K-Points                                

Automatic generation of k-mesh.
Space group operators:
 irot       det(A)        alpha          n_x          n_y          n_z        tau_x        tau_y        tau_z
    1     1.000000     0.000000     1.000000     0.000000     0.000000     0.000000     0.000000     0.000000
 
 Subroutine IBZKPT returns following result:
 ===========================================
 
 Found      5 irreducible k-points:
 
 Following reciprocal coordinates:
            Coordinates               Weight
  0.000000  0.000000  0.000000      1.000000
  0.333333 -0.000000  0.000000      2.000000
 -0.000000  0.333333  0.000000      2.000000
  0.333333  0.333333  0.000000      2.000000
 -0.333333  0.333333  0.000000      2.000000
 
 Following cartesian coordinates:
            Coordinates               Weight
  0.000000  0.000000  0.000000      1.000000
  0.022434  0.013073  0.000000      2.000000
  0.000006  0.026147  0.000000      2.000000
  0.022440  0.039220  0.000000      2.000000
 -0.022429  0.013073  0.000000      2.000000
 
 TETIRR: Found     24 inequivalent tetrahedra from       54


--------------------------------------------------------------------------------------------------------




 Dimension of arrays:
   k-points           NKPTS =      5   k-points in BZ     NKDIM =      5   number of bands    NBANDS=    192
   number of dos      NEDOS =   4000   number of ions     NIONS =     73
   non local maximal  LDIM  =      6   non local SUM 2l+1 LMDIM =     18
   total plane-waves  NPLWV = 512000
   max r-space proj   IRMAX =      1   max aug-charges    IRDMAX=   6468
   dimension x,y,z NGX =    80 NGY =   80 NGZ =   80
   dimension x,y,z NGXF=   160 NGYF=  160 NGZF=  160
   support grid    NGXF=   160 NGYF=  160 NGZF=  160
   ions per type =              32   1  37   1   1   1
   NGX,Y,Z   is equivalent  to a cutoff of   8.95,  9.01,  8.87 a.u.
   NGXF,Y,Z  is equivalent  to a cutoff of  17.90, 18.02, 17.73 a.u.

 SYSTEM =  unknown system                          
 POSCAR =  POSCAR-clean                            

 Startparameter for this run:
   NWRITE =      2    write-flag & timer
   PREC   = normal    normal or accurate (medium, high low for compatibility)
   ISTART =      0    job   : 0-new  1-cont  2-samecut
   ICHARG =      2    charge: 1-file 2-atom 10-const
   ISPIN  =      2    spin polarized calculation?
   LNONCOLLINEAR =      F non collinear calculations
   LSORBIT =      F    spin-orbit coupling
   INIWAV =      1    electr: 0-lowe 1-rand  2-diag
   LASPH  =      F    aspherical Exc in radial PAW
   METAGGA=      F    non-selfconsistent MetaGGA calc.

 Electronic Relaxation 1
   ENCUT  =  440.0 eV  32.34 Ry    5.69 a.u.  25.42 25.24 25.66*2*pi/ulx,y,z
   ENINI  =  440.0     initial cutoff
   ENAUG  =  644.9 eV  augmentation charge cutoff
   NELM   =    100;   NELMIN=  2; NELMDL= -5     # of ELM steps 
   EDIFF  = 0.1E-03   stopping-criterion for ELM
   LREAL  =      F    real-space projection
   NLSPLINE    = F    spline interpolate recip. space projectors
   LCOMPAT=      F    compatible to vasp.4.4
   GGA_COMPAT  = T    GGA compatible to vasp.4.4-vasp.4.6
   LMAXPAW     = -100 max onsite density
   LMAXMIX     =    2 max onsite mixed and CHGCAR
   VOSKOWN=      0    Vosko Wilk Nusair interpolation
   ROPT   =    0.00000   0.00000   0.00000   0.00000
   ROPT   =    0.00000   0.00000
 Ionic relaxation
   EDIFFG = -.1E-01   stopping-criterion for IOM
   NSW    =      0    number of steps for IOM
   NBLOCK =      1;   KBLOCK =      1    inner block; outer block 
   IBRION =     -1    ionic relax: 0-MD 1-quasi-New 2-CG
   NFREE  =      0    steps in history (QN), initial steepest desc. (CG)
   ISIF   =      2    stress and relaxation
   IWAVPR =     10    prediction:  0-non 1-charg 2-wave 3-comb
   ISYM   =      0    0-nonsym 1-usesym 2-fastsym
   LCORR  =      T    Harris-Foulkes like correction to forces

   POTIM  = 0.5000    time-step for ionic-motion
   TEIN   =    0.0    initial temperature
   TEBEG  =    0.0;   TEEND  =   0.0 temperature during run
   SMASS  =  -3.00    Nose mass-parameter (am)
   estimated Nose-frequenzy (Omega)   =  0.10E-29 period in steps =****** mass=  -0.505E-26a.u.
   SCALEE = 1.0000    scale energy and forces
   NPACO  =    256;   APACO  = 16.0  distance and # of slots for P.C.
   PSTRESS=    0.0 pullay stress

  Mass of Ions in am
   POMASS =  12.01 14.00 12.01 52.00 12.01 16.00
  Ionic Valenz
   ZVAL   =   4.00  5.00  4.00 12.00  4.00  6.00
  Atomic Wigner-Seitz radii
   RWIGS  =  -1.00 -1.00 -1.00 -1.00 -1.00 -1.00
  virtual crystal weights 
   VCA    =   1.00  1.00  1.00  1.00  1.00  1.00
   NELECT =     303.0000    total number of electrons
   NUPDOWN=      -1.0000    fix difference up-down

 DOS related values:
   EMIN   = -14.00;   EMAX   =  6.00  energy-range for DOS
   EFERMI =   0.00
   ISMEAR =    -5;   SIGMA  =   0.20  broadening in eV -4-tet -1-fermi 0-gaus

 Electronic relaxation 2 (details)
   IALGO  =     38    algorithm
   LDIAG  =      T    sub-space diagonalisation (order eigenvalues)
   LSUBROT=      F    optimize rotation matrix (better conditioning)
   TURBO    =      0    0=normal 1=particle mesh
   IRESTART =      0    0=no restart 2=restart with 2 vectors
   NREBOOT  =      0    no. of reboots
   NMIN     =      0    reboot dimension
   EREF     =   0.00    reference energy to select bands
   IMIX   =      4    mixing-type and parameters
     AMIX     =   0.25;   BMIX     =  0.00
     AMIX_MAG =   1.00;   BMIX_MAG =  0.00
     AMIN     =   0.10
     WC   =   100.;   INIMIX=   1;  MIXPRE=   1;  MAXMIX= -45

 Intra band minimization:
   WEIMIN = 0.0000     energy-eigenvalue tresh-hold
   EBREAK =  0.13E-06  absolut break condition
   DEPER  =   0.30     relativ break condition  

   TIME   =   0.40     timestep for ELM

  volume/ion in A,a.u.               =      38.93       262.69
  Fermi-wavevector in a.u.,A,eV,Ry     =   0.776301  1.466996  8.199456  0.602643
  Thomas-Fermi vector in A             =   1.878750
 
 Write flags
   LWAVE        =      F    write WAVECAR
   LDOWNSAMPLE  =      F    k-point downsampling of WAVECAR
   LCHARG       =      F    write CHGCAR
   LVTOT        =      F    write LOCPOT, total local potential
   LVHAR        =      F    write LOCPOT, Hartree potential only
   LELF         =      F    write electronic localiz. function (ELF)
   LORBIT       =     11    0 simple, 1 ext, 2 COOP (PROOUT), +10 PAW based schemes


 Dipole corrections
   LMONO  =      F    monopole corrections only (constant potential shift)
   LDIPOL =      F    correct potential (dipole corrections)
   IDIPOL =      0    1-x, 2-y, 3-z, 4-all directions 
   EPSILON=  1.0000000 bulk dielectric constant

 Exchange correlation treatment:
   GGA     =    --    GGA type
   LEXCH   =     8    internal setting for exchange type
   VOSKOWN=      0    Vosko Wilk Nusair interpolation
   LHFCALC =     F    Hartree Fock is set to
   LHFONE  =     F    Hartree Fock one center treatment
   AEXX    =    0.0000 exact exchange contribution

 Linear response parameters
   LEPSILON=     F    determine dielectric tensor
   LRPA    =     F    only Hartree local field effects (RPA)
   LNABLA  =     F    use nabla operator in PAW spheres
   LVEL    =     F    velocity operator in full k-point grid
   LINTERFAST=   F  fast interpolation
   KINTER  =     0    interpolate to denser k-point grid
   CSHIFT  =0.1000    complex shift for real part using Kramers Kronig
   OMEGAMAX=  -1.0    maximum frequency
   DEG_THRESHOLD= 0.2000000E-02 threshold for treating states as degnerate
   RTIME   =   -0.100 relaxation time in fs
  (WPLASMAI=    0.000 imaginary part of plasma frequency in eV, 0.658/RTIME)
   DFIELD  = 0.0000000 0.0000000 0.0000000 field for delta impulse in time
 
 Orbital magnetization related:
   ORBITALMAG=     F  switch on orbital magnetization
   LCHIMAG   =     F  perturbation theory with respect to B field
   DQ        =  0.001000  dq finite difference perturbation B field
   LLRAUG    =     F  two centre corrections for induced B field



--------------------------------------------------------------------------------------------------------


 Static calculation
 charge density and potential will be updated during run
 spin polarized calculation
 Variant of blocked Davidson
 Davidson routine will perform the subspace rotation
 perform sub-space diagonalisation
    after iterative eigenvector-optimisation
 modified Broyden-mixing scheme, WC =      100.0
 initial mixing is a Kerker type mixing with AMIX =  0.2500 and BMIX =      0.0001
 Hartree-type preconditioning will be used
 using additional bands           40
 reciprocal scheme for non local part
 use partial core corrections
 calculate Harris-corrections to forces 
   (improved forces if not selfconsistent)
 use gradient corrections 
 use of overlap-Matrix (Vanderbilt PP)
 Fermi weights with tetrahedron method with Bloechl corrections


--------------------------------------------------------------------------------------------------------


  energy-cutoff  :      440.00
  volume of cell :     2841.69
      direct lattice vectors                 reciprocal lattice vectors
    14.860178904 -0.003145218  0.000000000     0.067302242  0.039220069  0.000000000
    -7.430089452 12.750147992  0.000000000     0.000016602  0.078440137  0.000000000
     0.000000000  0.000000000 15.000000000     0.000000000  0.000000000  0.066666667

  length of vectors
    14.860179237 14.757117032 15.000000000     0.077896120  0.078440139  0.066666667


 
 k-points in units of 2pi/SCALE and weight: K-Points                                
   0.00000000  0.00000000  0.00000000       0.111
   0.02243408  0.01307336  0.00000000       0.222
   0.00000553  0.02614671  0.00000000       0.222
   0.02243961  0.03922007  0.00000000       0.222
  -0.02242855  0.01307336  0.00000000       0.222
 
 k-points in reciprocal lattice and weights: K-Points                                
   0.00000000  0.00000000  0.00000000       0.111
   0.33333333 -0.00000000  0.00000000       0.222
  -0.00000000  0.33333333  0.00000000       0.222
   0.33333333  0.33333333  0.00000000       0.222
  -0.33333333  0.33333333  0.00000000       0.222
 
 position of ions in fractional coordinates (direct lattice) 
   0.99986575  0.99964228  0.48361627
   0.05575787  0.11128435  0.48370945
   0.16803327  0.00193662  0.48346230
   0.22378774  0.11337735  0.48414565
   0.33465452  0.00239421  0.48357801
   0.39058499  0.11399312  0.48417052
   0.50018946  0.00013444  0.48372443
   0.55579018  0.11144584  0.48358978
   0.66593374  0.99829909  0.48421813
   0.72174862  0.10995214  0.48355660
   0.83229335  0.99788473  0.48432024
   0.88788068  0.10927618  0.48359480
   0.99921954  0.16559068  0.48369088
   0.05451295  0.27684547  0.48436721
   0.16759194  0.16812536  0.48435005
   0.22343601  0.27966643  0.48586659
   0.33551860  0.17020832  0.48516663
   0.39162442  0.28139343  0.48825514
   0.50201895  0.16900234  0.48406155
   0.55801089  0.28043156  0.48556827
   0.66641541  0.16641199  0.48366968
   0.72201686  0.27746912  0.48428651
   0.83252361  0.16513174  0.48351397
   0.88769174  0.27635619  0.48365917
   0.99889345  0.33233682  0.48413967
   0.05452821  0.44375967  0.48462221
   0.16564937  0.33294374  0.48599468
   0.21955108  0.44399584  0.48792672
   0.33611110  0.33775351  0.48890149
   0.38823858  0.44845697  0.49475400
   0.50400284  0.33869760  0.48982601
   0.56110031  0.44942436  0.49791344
   0.66773410  0.33294741  0.48552053
   0.72417460  0.44299916  0.48656796
   0.83272314  0.33262126  0.48400286
   0.88975578  0.44398243  0.48416580
   0.00000448  0.49981372  0.48411551
   0.05569597  0.61133605  0.48409582
   0.16481787  0.49984945  0.48637947
   0.22050729  0.61132304  0.48642955
   0.32944438  0.49942526  0.49108446
   0.38559323  0.61181781  0.49107235
   0.67049538  0.49832118  0.49105788
   0.72662875  0.61079332  0.49085134
   0.83484600  0.49893066  0.48517473
   0.89040411  0.61057629  0.48530097
   0.00098983  0.66694242  0.48413203
   0.05647119  0.77861426  0.48382363
   0.16631123  0.66741069  0.48459436
   0.22241449  0.77890128  0.48412527
   0.33108633  0.66730556  0.48808149
   0.38823935  0.77840252  0.48606130
   0.49521997  0.66310730  0.49442807
   0.55345648  0.77377685  0.48871427
   0.66702929  0.66088919  0.49607792
   0.71976029  0.77219274  0.48963414
   0.83616665  0.66672549  0.48686424
   0.89009368  0.77788195  0.48559808
   0.00115929  0.83420635  0.48403409
   0.05658438  0.94546910  0.48351282
   0.16747909  0.83475295  0.48357741
   0.22337425  0.94636779  0.48347247
   0.33342544  0.83458672  0.48439182
   0.38927109  0.94580188  0.48369488
   0.49922108  0.83183772  0.48584517
   0.55511792  0.94340570  0.48438328
   0.66508799  0.82973004  0.48827609
   0.72067934  0.94117424  0.48531847
   0.83227935  0.83087318  0.48602922
   0.88816862  0.94275453  0.48436326
   0.52513243  0.55575096  0.54174593
   0.52513243  0.55575096  0.94041260
   0.47505983  0.49881036  0.99676841
 
 position of ions in cartesian coordinates  (Angst):
   7.43075233 12.74244225  7.25424412
   0.00171926  1.41871661  7.25564181
   2.48261528  0.02416364  7.25193445
   2.48312205  1.44487415  7.26218474
   4.95523680  0.02947403  7.25367011
   4.95718368  1.45220067  7.26255781
   7.43190598  0.00014092  7.25586640
   7.43108896  1.41920288  7.25384665
   2.47844303 12.72636660  7.26327202
   9.90835933  1.39963597  7.25334903
   4.95365533 12.72056020  7.26480363
  12.38213403  1.39049484  7.25392202
  13.61822757  2.10816289  7.25536326
  -1.24691449  3.52964932  7.26550816
   1.24125974  2.14309611  7.26525076
   1.24235243  3.56508560  7.28799886
   3.72120339  2.16912603  7.27749945
   3.72883055  3.58657609  7.32382710
   6.20438894  2.15322587  7.26092320
   6.20851008  3.57378879  7.28352407
   8.66659631  2.11968147  7.25504519
   8.66767932  3.53550138  7.26429762
  11.14450618  2.10283568  7.25270950
  11.13790681  3.52079034  7.25488753
  12.37444307  4.23420188  7.26209499
  -2.48687501  5.65782994  7.26933308
  -0.01222256  4.24456094  7.28992026
  -0.03636040  5.66032210  7.31890076
   2.48513238  4.30535005  7.33352237
   2.43721934  5.71667161  7.42131003
   4.97301894  4.31685928  7.34739018
   4.99878774  5.72846233  7.46870158
   7.44881921  4.24302854  7.28280797
   7.46984070  5.64602711  7.29851940
   9.90300912  4.23835123  7.26004288
   9.92310097  5.65804317  7.26248699
  -3.71359400  6.37269888  7.26173270
  -3.71462952  7.79444993  7.26143726
  -1.26470304  6.37263603  7.29569203
  -1.26540699  7.79376562  7.29644319
   1.18482807  6.36670977  7.36626688
   1.18412322  7.79955489  7.36608528
   6.26111038  6.35155997  7.36586823
   6.25958431  7.78541978  7.36277008
   8.69886146  6.35881401  7.27762099
   8.69492792  7.78213752  7.27951453
  -4.94073276  8.50361142  7.26198047
  -4.94600166  9.92726948  7.25735442
  -2.48750654  8.50906203  7.26891547
  -2.48218701  9.93040707  7.26187911
  -0.03813793  8.50720328  7.32122232
  -0.01429424  9.92352629  7.29091945
   2.43211080  8.45315866  7.41642098
   2.47523120  9.86402855  7.33071411
   5.00170879  8.42433704  7.44116875
   4.95830556  9.84330787  7.34451215
   7.47175597  8.49821871  7.30296366
   7.44721875  9.91531050  7.28397125
  -6.18100057 10.63625075  7.26051139
  -6.18406595 12.05469299  7.25269234
  -3.71351979 10.64269689  7.25366113
  -3.71221603 12.06562678  7.25208703
  -1.24629226 10.64005549  7.26587731
  -1.24275460 12.05788962  7.25542320
   1.23788583 10.60448388  7.28767749
   1.23956290 12.02681628  7.26574916
   3.71835820 10.57708890  7.32414129
   3.71641511 11.99784413  7.27977706
   6.19435796 10.59113830  7.29043831
   6.19359404 12.01746631  7.26544894
   3.67428245  7.08425539  8.12618897
   3.67428245  7.08425539 14.10618897
   3.35326851  6.35841170 14.95152616
 


--------------------------------------------------------------------------------------------------------


 k-point  1 :   0.0000 0.0000 0.0000  plane waves:   59561
 k-point  2 :   0.3333-0.0000 0.0000  plane waves:   59526
 k-point  3 :  -0.0000 0.3333 0.0000  plane waves:   59590
 k-point  4 :   0.3333 0.3333 0.0000  plane waves:   59600
 k-point  5 :  -0.3333 0.3333 0.0000  plane waves:   59522

 maximum and minimum number of plane-waves per node :      4992     4939

 maximum number of plane-waves:     59600
 maximum index in each direction: 
   IXMAX=   25   IYMAX=   25   IZMAX=   25
   IXMIN=  -25   IYMIN=  -25   IZMIN=  -25


 parallel 3D FFT for wavefunctions:
    minimum data exchange during FFTs selected (reduces bandwidth)
 parallel 3D FFT for charge:
    minimum data exchange during FFTs selected (reduces bandwidth)


 total amount of memory used by VASP MPI-rank0   116094. kBytes
=======================================================================

   base      :      30000. kBytes
   nonl-proj :      27308. kBytes
   fftplans  :       4700. kBytes
   grid      :      15193. kBytes
   one-center:        217. kBytes
   wavefun   :      38676. kBytes
 
     INWAV:  cpu time    0.0000: real time    0.0000
 Broyden mixing: mesh for mixing (old mesh)
   NGX = 51   NGY = 51   NGZ = 51
  (NGX  =160   NGY  =160   NGZ  =160)
  gives a total of 132651 points

 initial charge density was supplied:
 charge density of overlapping atoms calculated
 number of electron     303.0000000 magnetization       2.0000000
 keeping initial charge density in first step


--------------------------------------------------------------------------------------------------------


 Maximum index for augmentation-charges          178 (set IRDMAX)


--------------------------------------------------------------------------------------------------------


 First call to EWALD:  gamma=   0.125
 Maximum number of real-space cells 3x 3x 3
 Maximum number of reciprocal cells 3x 3x 3

    FEWALD:  cpu time    0.0039: real time    0.0046


--------------------------------------- Iteration      1(   1)  ---------------------------------------


    POTLOK:  cpu time    0.2444: real time    0.2740
    SETDIJ:  cpu time    0.0098: real time    0.0119
     EDDAV:  cpu time   11.4605: real time   11.5573
 BZINTS: Fermi energy:  7.984060;303.000000 electrons
         Band energy:***********;  BLOECHL correction: -0.010874
       DOS:  cpu time    0.1110: real time    0.1112
    --------------------------------------------
      LOOP:  cpu time   11.8257: real time   11.9545

 eigenvalue-minimisations  :  4392
 total energy-change (2. order) : 0.2505521E+04  (-0.1120756E+05)
 number of electron     303.0000000 magnetization       2.0000000
 augmentation part      303.0000000 magnetization       2.0000000

 Free energy of the ion-electron system (eV)
  ---------------------------------------------------
  alpha Z        PSCENC =       167.33849726
  Ewald energy   TEWEN  =     28905.03569884
  -Hartree energ DENC   =    -38583.54654353
  -exchange      EXHF   =         0.00000000
  -V(xc)+E(xc)   XCENC  =      1022.21536029
  PAW double counting   =      9455.23336183    -9546.47664214
  entropy T*S    EENTRO =         0.00000000
  eigenvalues    EBANDS =     -1559.03170018
  atomic energy  EATOM  =     12644.75315347
  Solvation  Ediel_sol  =         0.00000000
  ---------------------------------------------------
  free energy    TOTEN  =      2505.52118586 eV

  energy without entropy =     2505.52118586  energy(sigma->0) =     2505.52118586


--------------------------------------------------------------------------------------------------------




--------------------------------------- Iteration      1(   2)  ---------------------------------------


     EDDAV:  cpu time   15.2666: real time   15.5351
 BZINTS: Fermi energy: -1.383988;303.000000 electrons
         Band energy:***********;  BLOECHL correction: -0.056991
       DOS:  cpu time    0.0101: real time    0.0101
    --------------------------------------------
      LOOP:  cpu time   15.2768: real time   15.5452

 eigenvalue-minimisations  :  5472
 total energy-change (2. order) :-0.2751008E+04  (-0.2622107E+04)
 number of electron     303.0000000 magnetization       2.0000000
 augmentation part      303.0000000 magnetization       2.0000000

 Free energy of the ion-electron system (eV)
  ---------------------------------------------------
  alpha Z        PSCENC =       167.33849726
  Ewald energy   TEWEN  =     28905.03569884
  -Hartree energ DENC   =    -38583.54654353
  -exchange      EXHF   =         0.00000000
  -V(xc)+E(xc)   XCENC  =      1022.21536029
  PAW double counting   =      9455.23336183    -9546.47664214
  entropy T*S    EENTRO =         0.00000000
  eigenvalues    EBANDS =     -4310.03997302
  atomic energy  EATOM  =     12644.75315347
  Solvation  Ediel_sol  =         0.00000000
  ---------------------------------------------------
  free energy    TOTEN  =      -245.48708698 eV

  energy without entropy =     -245.48708698  energy(sigma->0) =     -245.48708698


--------------------------------------------------------------------------------------------------------




--------------------------------------- Iteration      1(   3)  ---------------------------------------


     EDDAV:  cpu time   12.5235: real time   12.6685
 BZINTS: Fermi energy: -4.480972;303.000000 electrons
         Band energy:***********;  BLOECHL correction: -0.050753
       DOS:  cpu time    0.0116: real time    0.0117
    --------------------------------------------
      LOOP:  cpu time   12.5351: real time   12.6802

 eigenvalue-minimisations  :  4560
 total energy-change (2. order) :-0.4571004E+03  (-0.4536404E+03)
 number of electron     303.0000000 magnetization       2.0000000
 augmentation part      303.0000000 magnetization       2.0000000

 Free energy of the ion-electron system (eV)
  ---------------------------------------------------
  alpha Z        PSCENC =       167.33849726
  Ewald energy   TEWEN  =     28905.03569884
  -Hartree energ DENC   =    -38583.54654353
  -exchange      EXHF   =         0.00000000
  -V(xc)+E(xc)   XCENC  =      1022.21536029
  PAW double counting   =      9455.23336183    -9546.47664214
  entropy T*S    EENTRO =         0.00000000
  eigenvalues    EBANDS =     -4767.14032495
  atomic energy  EATOM  =     12644.75315347
  Solvation  Ediel_sol  =         0.00000000
  ---------------------------------------------------
  free energy    TOTEN  =      -702.58743891 eV

  energy without entropy =     -702.58743891  energy(sigma->0) =     -702.58743891


--------------------------------------------------------------------------------------------------------




--------------------------------------- Iteration      1(   4)  ---------------------------------------


     EDDAV:  cpu time   13.1650: real time   13.3307
 BZINTS: Fermi energy: -4.664687;303.000000 electrons
         Band energy:***********;  BLOECHL correction: -0.041939
       DOS:  cpu time    0.0113: real time    0.0114
    --------------------------------------------
      LOOP:  cpu time   13.1763: real time   13.3420

 eigenvalue-minimisations  :  4656
 total energy-change (2. order) :-0.1643868E+02  (-0.1629756E+02)
 number of electron     303.0000000 magnetization       2.0000000
 augmentation part      303.0000000 magnetization       2.0000000

 Free energy of the ion-electron system (eV)
  ---------------------------------------------------
  alpha Z        PSCENC =       167.33849726
  Ewald energy   TEWEN  =     28905.03569884
  -Hartree energ DENC   =    -38583.54654353
  -exchange      EXHF   =         0.00000000
  -V(xc)+E(xc)   XCENC  =      1022.21536029
  PAW double counting   =      9455.23336183    -9546.47664214
  entropy T*S    EENTRO =         0.00000000
  eigenvalues    EBANDS =     -4783.57900336
  atomic energy  EATOM  =     12644.75315347
  Solvation  Ediel_sol  =         0.00000000
  ---------------------------------------------------
  free energy    TOTEN  =      -719.02611732 eV

  energy without entropy =     -719.02611732  energy(sigma->0) =     -719.02611732


--------------------------------------------------------------------------------------------------------




--------------------------------------- Iteration      1(   5)  ---------------------------------------


     EDDAV:  cpu time   13.9172: real time   14.0683
 BZINTS: Fermi energy: -4.676068;303.000000 electrons
         Band energy:***********;  BLOECHL correction: -0.041752
       DOS:  cpu time    0.0117: real time    0.0118
    CHARGE:  cpu time    0.1963: real time    0.2007
    MIXING:  cpu time    0.0051: real time    0.0052
    --------------------------------------------
      LOOP:  cpu time   14.1302: real time   14.2859

 eigenvalue-minimisations  :  5272
 total energy-change (2. order) :-0.5427484E+00  (-0.5411876E+00)
 number of electron     302.9999986 magnetization       0.0381770
 augmentation part       12.3820201 magnetization       0.0709299

 Broyden mixing:
  rms(total) = 0.47659E+01    rms(broyden)= 0.47654E+01
  rms(prec ) = 0.55197E+01
  weight for this iteration     100.00

 Free energy of the ion-electron system (eV)
  ---------------------------------------------------
  alpha Z        PSCENC =       167.33849726
  Ewald energy   TEWEN  =     28905.03569884
  -Hartree energ DENC   =    -38583.54654353
  -exchange      EXHF   =         0.00000000
  -V(xc)+E(xc)   XCENC  =      1022.21536029
  PAW double counting   =      9455.23336183    -9546.47664214
  entropy T*S    EENTRO =         0.00000000
  eigenvalues    EBANDS =     -4784.12175177
  atomic energy  EATOM  =     12644.75315347
  Solvation  Ediel_sol  =         0.00000000
  ---------------------------------------------------
  free energy    TOTEN  =      -719.56886573 eV

  energy without entropy =     -719.56886573  energy(sigma->0) =     -719.56886573


--------------------------------------------------------------------------------------------------------




--------------------------------------- Iteration      1(   6)  ---------------------------------------


    POTLOK:  cpu time    0.1511: real time    0.1534
    SETDIJ:  cpu time    0.0102: real time    0.0105
     EDDAV:  cpu time   12.6954: real time   12.7937
 BZINTS: Fermi energy: -5.522636;303.000000 electrons
         Band energy:***********;  BLOECHL correction: -0.013528
       DOS:  cpu time    0.0115: real time    0.0115
    CHARGE:  cpu time    0.1648: real time    0.1712
    MIXING:  cpu time    0.0032: real time    0.0037
    --------------------------------------------
      LOOP:  cpu time   13.0362: real time   13.1441

 eigenvalue-minimisations  :  4880
 total energy-change (2. order) :-0.1438579E+00  (-0.8898699E+01)
 number of electron     303.0000000 magnetization       0.0261409
 augmentation part       18.0117160 magnetization       0.0495653

 Broyden mixing:
  rms(total) = 0.74465E+01    rms(broyden)= 0.74462E+01
  rms(prec ) = 0.85179E+01
  weight for this iteration     100.00

 eigenvalues of (default mixing * dielectric matrix)
  average eigenvalue GAMMA=   0.2830
  0.2830

 Free energy of the ion-electron system (eV)
  ---------------------------------------------------
  alpha Z        PSCENC =       167.33849726
  Ewald energy   TEWEN  =     28905.03569884
  -Hartree energ DENC   =    -38959.12166393
  -exchange      EXHF   =         0.00000000
  -V(xc)+E(xc)   XCENC  =      1035.00242513
  PAW double counting   =     13243.80267328   -13335.03205815
  entropy T*S    EENTRO =         0.00000000
  eigenvalues    EBANDS =     -4421.49144950
  atomic energy  EATOM  =     12644.75315347
  Solvation  Ediel_sol  =         0.00000000
  ---------------------------------------------------
  free energy    TOTEN  =      -719.71272358 eV

  energy without entropy =     -719.71272358  energy(sigma->0) =     -719.71272358


--------------------------------------------------------------------------------------------------------




--------------------------------------- Iteration      1(   7)  ---------------------------------------


    POTLOK:  cpu time    0.1373: real time    0.1449
    SETDIJ:  cpu time    0.0107: real time    0.0108
     EDDAV:  cpu time   13.0365: real time   13.2438
 BZINTS: Fermi energy: -4.178710;303.000000 electrons
         Band energy:***********;  BLOECHL correction: -0.032993
       DOS:  cpu time    0.0118: real time    0.0119
    CHARGE:  cpu time    0.1647: real time    0.1695
    MIXING:  cpu time    0.0037: real time    0.0038
    --------------------------------------------
      LOOP:  cpu time   13.3648: real time   13.5845

 eigenvalue-minimisations  :  4952
 total energy-change (2. order) : 0.4596079E+02  (-0.6335273E+01)
 number of electron     302.9999998 magnetization       0.4454759
 augmentation part       14.5333560 magnetization       0.3005724

 Broyden mixing:
  rms(total) = 0.26681E+01    rms(broyden)= 0.26675E+01
  rms(prec ) = 0.29467E+01
  weight for this iteration     100.00

 eigenvalues of (default mixing * dielectric matrix)
  average eigenvalue GAMMA=   0.6427
  0.9671  0.3182

 Free energy of the ion-electron system (eV)
  ---------------------------------------------------
  alpha Z        PSCENC =       167.33849726
  Ewald energy   TEWEN  =     28905.03569884
  -Hartree energ DENC   =    -39100.77917528
  -exchange      EXHF   =         0.00000000
  -V(xc)+E(xc)   XCENC  =      1039.48397816
  PAW double counting   =     14473.49149833   -14569.25563761
  entropy T*S    EENTRO =         0.00000000
  eigenvalues    EBANDS =     -4233.81994851
  atomic energy  EATOM  =     12644.75315347
  Solvation  Ediel_sol  =         0.00000000
  ---------------------------------------------------
  free energy    TOTEN  =      -673.75193533 eV

  energy without entropy =     -673.75193533  energy(sigma->0) =     -673.75193533


--------------------------------------------------------------------------------------------------------




--------------------------------------- Iteration      1(   8)  ---------------------------------------


    POTLOK:  cpu time    0.1388: real time    0.1410
    SETDIJ:  cpu time    0.0088: real time    0.0088
     EDDAV:  cpu time   12.6587: real time   12.7740
 BZINTS: Fermi energy: -2.409937;303.000000 electrons
         Band energy:***********;  BLOECHL correction: -0.047709
       DOS:  cpu time    0.0111: real time    0.0111
    CHARGE:  cpu time    0.1655: real time    0.1669
    MIXING:  cpu time    0.0032: real time    0.0032
    --------------------------------------------
      LOOP:  cpu time   12.9860: real time   13.1050

 eigenvalue-minimisations  :  4888
 total energy-change (2. order) : 0.3379320E+01  (-0.3803997E+01)
 number of electron     302.9999991 magnetization       0.1281913
 augmentation part       12.2173651 magnetization       0.1216441

 Broyden mixing:
  rms(total) = 0.26393E+01    rms(broyden)= 0.26386E+01
  rms(prec ) = 0.31166E+01
  weight for this iteration     100.00

 eigenvalues of (default mixing * dielectric matrix)
  average eigenvalue GAMMA=   1.1394
  2.6216  0.3983  0.3983

 Free energy of the ion-electron system (eV)
  ---------------------------------------------------
  alpha Z        PSCENC =       167.33849726
  Ewald energy   TEWEN  =     28905.03569884
  -Hartree energ DENC   =    -39390.02317741
  -exchange      EXHF   =         0.00000000
  -V(xc)+E(xc)   XCENC  =      1049.25403039
  PAW double counting   =     18138.16888008   -18237.16611224
  entropy T*S    EENTRO =         0.00000000
  eigenvalues    EBANDS =     -3947.73358598
  atomic energy  EATOM  =     12644.75315347
  Solvation  Ediel_sol  =         0.00000000
  ---------------------------------------------------
  free energy    TOTEN  =      -670.37261558 eV

  energy without entropy =     -670.37261558  energy(sigma->0) =     -670.37261558


--------------------------------------------------------------------------------------------------------




--------------------------------------- Iteration      1(   9)  ---------------------------------------


    POTLOK:  cpu time    0.1368: real time    0.1389
    SETDIJ:  cpu time    0.0105: real time    0.0105
     EDDAV:  cpu time   12.2466: real time   12.3177
 BZINTS: Fermi energy: -2.760621;303.000000 electrons
         Band energy:***********;  BLOECHL correction: -0.084243
       DOS:  cpu time    0.0117: real time    0.0117
    CHARGE:  cpu time    0.1631: real time    0.1638
    MIXING:  cpu time    0.0037: real time    0.0037
    --------------------------------------------
      LOOP:  cpu time   12.5724: real time   12.6464

 eigenvalue-minimisations  :  4624
 total energy-change (2. order) : 0.6115122E+01  (-0.2477645E+01)
 number of electron     303.0000002 magnetization      -0.1103382
 augmentation part       14.9500044 magnetization      -0.1247661

 Broyden mixing:
  rms(total) = 0.20281E+01    rms(broyden)= 0.20266E+01
  rms(prec ) = 0.25823E+01
  weight for this iteration     100.00

 eigenvalues of (default mixing * dielectric matrix)
  average eigenvalue GAMMA=   1.1224
  2.9355  0.8521  0.3511  0.3511

 Free energy of the ion-electron system (eV)
  ---------------------------------------------------
  alpha Z        PSCENC =       167.33849726
  Ewald energy   TEWEN  =     28905.03569884
  -Hartree energ DENC   =    -39811.47691961
  -exchange      EXHF   =         0.00000000
  -V(xc)+E(xc)   XCENC  =      1064.56487500
  PAW double counting   =     25963.83608122   -26066.18076712
  entropy T*S    EENTRO =         0.00000000
  eigenvalues    EBANDS =     -3532.12811238
  atomic energy  EATOM  =     12644.75315347
  Solvation  Ediel_sol  =         0.00000000
  ---------------------------------------------------
  free energy    TOTEN  =      -664.25749332 eV

  energy without entropy =     -664.25749332  energy(sigma->0) =     -664.25749332


--------------------------------------------------------------------------------------------------------




--------------------------------------- Iteration      1(  10)  ---------------------------------------


    POTLOK:  cpu time    0.1361: real time    0.1382
    SETDIJ:  cpu time    0.0107: real time    0.0107
     EDDAV:  cpu time   13.3433: real time   13.4507
 BZINTS: Fermi energy: -1.196395;303.000000 electrons
         Band energy:***********;  BLOECHL correction: -0.084703
       DOS:  cpu time    0.0113: real time    0.0113
    CHARGE:  cpu time    0.1643: real time    0.1650
    MIXING:  cpu time    0.0035: real time    0.0035
    --------------------------------------------
      LOOP:  cpu time   13.6692: real time   13.7795

 eigenvalue-minimisations  :  5144
 total energy-change (2. order) : 0.1915222E+01  (-0.2097139E+01)
 number of electron     303.0000000 magnetization      -0.0803643
 augmentation part       12.5908022 magnetization      -0.0575385

 Broyden mixing:
  rms(total) = 0.11546E+01    rms(broyden)= 0.11526E+01
  rms(prec ) = 0.13785E+01
  weight for this iteration     100.00

 eigenvalues of (default mixing * dielectric matrix)
  average eigenvalue GAMMA=   1.2002
  3.4325  1.2442  0.6568  0.3338  0.3338

 Free energy of the ion-electron system (eV)
  ---------------------------------------------------
  alpha Z        PSCENC =       167.33849726
  Ewald energy   TEWEN  =     28905.03569884
  -Hartree energ DENC   =    -39848.77040573
  -exchange      EXHF   =         0.00000000
  -V(xc)+E(xc)   XCENC  =      1066.05519109
  PAW double counting   =     28153.94421473   -28256.80896552
  entropy T*S    EENTRO =         0.00000000
  eigenvalues    EBANDS =     -3493.88965558
  atomic energy  EATOM  =     12644.75315347
  Solvation  Ediel_sol  =         0.00000000
  ---------------------------------------------------
  free energy    TOTEN  =      -662.34227144 eV

  energy without entropy =     -662.34227144  energy(sigma->0) =     -662.34227144


--------------------------------------------------------------------------------------------------------




--------------------------------------- Iteration      1(  11)  ---------------------------------------


    POTLOK:  cpu time    0.1376: real time    0.1397
    SETDIJ:  cpu time    0.0104: real time    0.0105
     EDDAV:  cpu time   13.3635: real time   13.5377
 BZINTS: Fermi energy: -1.849771;303.000000 electrons
         Band energy:***********;  BLOECHL correction: -0.000359
       DOS:  cpu time    0.0114: real time    0.0114
    CHARGE:  cpu time    0.1923: real time    0.1939
    MIXING:  cpu time    0.0037: real time    0.0040
    --------------------------------------------
      LOOP:  cpu time   13.7189: real time   13.8971

 eigenvalue-minimisations  :  5248
 total energy-change (2. order) : 0.7342880E+00  (-0.1900811E+00)
 number of electron     303.0000001 magnetization      -0.6638985
 augmentation part       13.4940062 magnetization      -0.1582852

 Broyden mixing:
  rms(total) = 0.76367E+00    rms(broyden)= 0.76239E+00
  rms(prec ) = 0.78978E+00
  weight for this iteration     100.00

 eigenvalues of (default mixing * dielectric matrix)
  average eigenvalue GAMMA=   1.1366
  3.4594  1.4523  0.9366  0.3457  0.3457  0.2801

 Free energy of the ion-electron system (eV)
  ---------------------------------------------------
  alpha Z        PSCENC =       167.33849726
  Ewald energy   TEWEN  =     28905.03569884
  -Hartree energ DENC   =    -39823.24236892
  -exchange      EXHF   =         0.00000000
  -V(xc)+E(xc)   XCENC  =      1065.47016009
  PAW double counting   =     29788.65751832   -29890.91526364
  entropy T*S    EENTRO =         0.00000000
  eigenvalues    EBANDS =     -3518.70537889
  atomic energy  EATOM  =     12644.75315347
  Solvation  Ediel_sol  =         0.00000000
  ---------------------------------------------------
  free energy    TOTEN  =      -661.60798346 eV

  energy without entropy =     -661.60798346  energy(sigma->0) =     -661.60798346


--------------------------------------------------------------------------------------------------------




--------------------------------------- Iteration      1(  12)  ---------------------------------------


    POTLOK:  cpu time    0.1451: real time    0.1475
    SETDIJ:  cpu time    0.0102: real time    0.0109
     EDDAV:  cpu time   12.5219: real time   12.6205
 BZINTS: Fermi energy: -2.042010;303.000000 electrons
         Band energy:***********;  BLOECHL correction:  0.000000
       DOS:  cpu time    0.0078: real time    0.0079
    CHARGE:  cpu time    0.1615: real time    0.1627
    MIXING:  cpu time    0.0036: real time    0.0036
    --------------------------------------------
      LOOP:  cpu time   12.8500: real time   12.9530

 eigenvalue-minimisations  :  4688
 total energy-change (2. order) :-0.3489446E+00  (-0.4411341E-01)
 number of electron     303.0000001 magnetization      -0.7738419
 augmentation part       13.7197594 magnetization      -0.4256483

 Broyden mixing:
  rms(total) = 0.69593E+00    rms(broyden)= 0.69572E+00
  rms(prec ) = 0.78381E+00
  weight for this iteration     100.00

 eigenvalues of (default mixing * dielectric matrix)
  average eigenvalue GAMMA=   1.2249
  3.5739  1.9133  1.1714  0.3341  0.3341  0.6238  0.6238

 Free energy of the ion-electron system (eV)
  ---------------------------------------------------
  alpha Z        PSCENC =       167.33849726
  Ewald energy   TEWEN  =     28905.03569884
  -Hartree energ DENC   =    -39789.24205097
  -exchange      EXHF   =         0.00000000
  -V(xc)+E(xc)   XCENC  =      1064.49972526
  PAW double counting   =     30617.90725115   -30719.57505109
  entropy T*S    EENTRO =         0.00000000
  eigenvalues    EBANDS =     -3552.67415194
  atomic energy  EATOM  =     12644.75315347
  Solvation  Ediel_sol  =         0.00000000
  ---------------------------------------------------
  free energy    TOTEN  =      -661.95692802 eV

  energy without entropy =     -661.95692802  energy(sigma->0) =     -661.95692802


--------------------------------------------------------------------------------------------------------




--------------------------------------- Iteration      1(  13)  ---------------------------------------


    POTLOK:  cpu time    0.1343: real time    0.1364
    SETDIJ:  cpu time    0.0105: real time    0.0105
     EDDAV:  cpu time   12.7027: real time   12.8298
 BZINTS: Fermi energy: -2.109766;303.000000 electrons
         Band energy:***********;  BLOECHL correction: -0.000797
       DOS:  cpu time    0.0106: real time    0.0107
    CHARGE:  cpu time    0.1629: real time    0.1642
    MIXING:  cpu time    0.0041: real time    0.0041
    --------------------------------------------
      LOOP:  cpu time   13.0251: real time   13.1558

 eigenvalue-minimisations  :  4888
 total energy-change (2. order) :-0.6935696E-01  (-0.4068006E-01)
 number of electron     303.0000000 magnetization      -0.8385944
 augmentation part       13.6184762 magnetization      -0.7200907

 Broyden mixing:
  rms(total) = 0.41728E+00    rms(broyden)= 0.41717E+00
  rms(prec ) = 0.47827E+00
  weight for this iteration     100.00

 eigenvalues of (default mixing * dielectric matrix)
  average eigenvalue GAMMA=   1.2076
  3.6566  1.6414  1.6414  0.7914  0.7914  0.3353  0.3353  0.4683

 Free energy of the ion-electron system (eV)
  ---------------------------------------------------
  alpha Z        PSCENC =       167.33849726
  Ewald energy   TEWEN  =     28905.03569884
  -Hartree energ DENC   =    -39755.28689965
  -exchange      EXHF   =         0.00000000
  -V(xc)+E(xc)   XCENC  =      1063.67681750
  PAW double counting   =     31616.92834351   -31718.05002400
  entropy T*S    EENTRO =         0.00000000
  eigenvalues    EBANDS =     -3586.42187191
  atomic energy  EATOM  =     12644.75315347
  Solvation  Ediel_sol  =         0.00000000
  ---------------------------------------------------
  free energy    TOTEN  =      -662.02628499 eV

  energy without entropy =     -662.02628499  energy(sigma->0) =     -662.02628499


--------------------------------------------------------------------------------------------------------




--------------------------------------- Iteration      1(  14)  ---------------------------------------


    POTLOK:  cpu time    0.1346: real time    0.1370
    SETDIJ:  cpu time    0.0104: real time    0.0108
     EDDAV:  cpu time   11.9913: real time   12.0861
 BZINTS: Fermi energy: -2.093968;303.000000 electrons
         Band energy:***********;  BLOECHL correction: -0.002155
       DOS:  cpu time    0.0115: real time    0.0121
    CHARGE:  cpu time    0.1957: real time    0.1968
    MIXING:  cpu time    0.0042: real time    0.0042
    --------------------------------------------
      LOOP:  cpu time   12.3477: real time   12.4470

 eigenvalue-minimisations  :  4512
 total energy-change (2. order) :-0.3824467E-01  (-0.7600708E-02)
 number of electron     302.9999999 magnetization      -0.8336076
 augmentation part       13.6276653 magnetization      -0.7881760

 Broyden mixing:
  rms(total) = 0.39591E+00    rms(broyden)= 0.39588E+00
  rms(prec ) = 0.46073E+00
  weight for this iteration     100.00

 eigenvalues of (default mixing * dielectric matrix)
  average eigenvalue GAMMA=   1.3111
  3.5703  2.1714  2.1714  1.0133  1.0133  0.3346  0.3346  0.6262  0.5643

 Free energy of the ion-electron system (eV)
  ---------------------------------------------------
  alpha Z        PSCENC =       167.33849726
  Ewald energy   TEWEN  =     28905.03569884
  -Hartree energ DENC   =    -39757.05453927
  -exchange      EXHF   =         0.00000000
  -V(xc)+E(xc)   XCENC  =      1063.77945013
  PAW double counting   =     31779.08000853   -31880.14239277
  entropy T*S    EENTRO =         0.00000000
  eigenvalues    EBANDS =     -3584.85440584
  atomic energy  EATOM  =     12644.75315347
  Solvation  Ediel_sol  =         0.00000000
  ---------------------------------------------------
  free energy    TOTEN  =      -662.06452965 eV

  energy without entropy =     -662.06452965  energy(sigma->0) =     -662.06452965


--------------------------------------------------------------------------------------------------------




--------------------------------------- Iteration      1(  15)  ---------------------------------------


    POTLOK:  cpu time    0.1351: real time    0.1380
    SETDIJ:  cpu time    0.0102: real time    0.0103
     EDDAV:  cpu time   12.7168: real time   12.8555
 BZINTS: Fermi energy: -2.081025;303.000000 electrons
         Band energy:***********;  BLOECHL correction: -0.003054
       DOS:  cpu time    0.0112: real time    0.0112
    CHARGE:  cpu time    0.1623: real time    0.1627
    MIXING:  cpu time    0.0040: real time    0.0041
    --------------------------------------------
      LOOP:  cpu time   13.0396: real time   13.1818

 eigenvalue-minimisations  :  4816
 total energy-change (2. order) :-0.1046936E-01  (-0.8193154E-02)
 number of electron     302.9999999 magnetization      -0.8913345
 augmentation part       13.5928526 magnetization      -0.9489697

 Broyden mixing:
  rms(total) = 0.31872E+00    rms(broyden)= 0.31868E+00
  rms(prec ) = 0.37816E+00
  weight for this iteration     100.00

 eigenvalues of (default mixing * dielectric matrix)
  average eigenvalue GAMMA=   1.2991
  3.5934  2.1344  2.1344  1.2539  1.2539  0.7236  0.7236  0.3348  0.3348  0.5039

 Free energy of the ion-electron system (eV)
  ---------------------------------------------------
  alpha Z        PSCENC =       167.33849726
  Ewald energy   TEWEN  =     28905.03569884
  -Hartree energ DENC   =    -39758.90160496
  -exchange      EXHF   =         0.00000000
  -V(xc)+E(xc)   XCENC  =      1063.91128735
  PAW double counting   =     31766.32928596   -31867.35311028
  entropy T*S    EENTRO =         0.00000000
  eigenvalues    EBANDS =     -3583.18820666
  atomic energy  EATOM  =     12644.75315347
  Solvation  Ediel_sol  =         0.00000000
  ---------------------------------------------------
  free energy    TOTEN  =      -662.07499901 eV

  energy without entropy =     -662.07499901  energy(sigma->0) =     -662.07499901


--------------------------------------------------------------------------------------------------------




--------------------------------------- Iteration      1(  16)  ---------------------------------------


    POTLOK:  cpu time    0.1823: real time    0.1850
    SETDIJ:  cpu time    0.0103: real time    0.0104
     EDDAV:  cpu time   12.8145: real time   12.9404
 BZINTS: Fermi energy: -2.081854;303.000000 electrons
         Band energy:***********;  BLOECHL correction: -0.003525
       DOS:  cpu time    0.0111: real time    0.0112
    CHARGE:  cpu time    0.1957: real time    0.2032
    MIXING:  cpu time    0.0046: real time    0.0046
    --------------------------------------------
      LOOP:  cpu time   13.2187: real time   13.3548

 eigenvalue-minimisations  :  4928
 total energy-change (2. order) : 0.9111304E-02  (-0.3014029E-02)
 number of electron     302.9999999 magnetization      -0.9275263
 augmentation part       13.5547158 magnetization      -1.0409523

 Broyden mixing:
  rms(total) = 0.24264E+00    rms(broyden)= 0.24262E+00
  rms(prec ) = 0.29135E+00
  weight for this iteration     100.00

 eigenvalues of (default mixing * dielectric matrix)
  average eigenvalue GAMMA=   1.3635
  3.5467  2.6108  2.6108  1.2940  1.2940  0.8433  0.8433  0.3347  0.3347  0.7665
  0.5197

 Free energy of the ion-electron system (eV)
  ---------------------------------------------------
  alpha Z        PSCENC =       167.33849726
  Ewald energy   TEWEN  =     28905.03569884
  -Hartree energ DENC   =    -39755.92534382
  -exchange      EXHF   =         0.00000000
  -V(xc)+E(xc)   XCENC  =      1063.88527708
  PAW double counting   =     31825.14593818   -31926.08986057
  entropy T*S    EENTRO =         0.00000000
  eigenvalues    EBANDS =     -3586.20924814
  atomic energy  EATOM  =     12644.75315347
  Solvation  Ediel_sol  =         0.00000000
  ---------------------------------------------------
  free energy    TOTEN  =      -662.06588771 eV

  energy without entropy =     -662.06588771  energy(sigma->0) =     -662.06588771


[...]
   0.848E+01 -.186E+01 0.370E+01   -.837E+01 0.187E+01 -.363E+01   -.127E+00 0.158E-01 -.639E-01   -.105E-01 0.227E-02 -.241E-02
   0.306E+02 0.108E+02 0.163E+02   -.298E+02 -.112E+02 -.170E+02   -.758E+00 0.522E+00 0.753E+00   -.473E-01 -.180E-01 -.191E-01
   0.307E+02 -.119E+02 0.161E+02   -.299E+02 0.123E+02 -.169E+02   -.770E+00 -.469E+00 0.822E+00   -.475E-01 0.179E-01 -.193E-01
   -.204E+02 -.359E+00 0.152E+02   0.182E+02 0.100E+01 -.154E+02   0.223E+01 -.564E+00 0.293E+00   0.432E-01 -.228E-01 -.179E-01
   -.239E+02 -.141E+02 0.159E+02   0.227E+02 0.150E+02 -.163E+02   0.118E+01 -.951E+00 0.444E+00   0.455E-01 0.106E-01 -.195E-01
   -.114E+02 -.824E+01 0.821E+01   0.123E+02 0.923E+01 -.820E+01   -.873E+00 -.983E+00 -.203E-01   0.730E-02 -.623E-02 -.155E-02
   -.101E+02 -.512E+01 0.747E+01   0.100E+02 0.578E+01 -.743E+01   0.143E+00 -.640E+00 -.487E-01   0.720E-02 -.250E-02 -.148E-02
   -.390E+01 -.646E+01 0.747E+01   0.395E+01 0.663E+01 -.750E+01   -.533E-01 -.203E+00 0.294E-01   0.445E-02 -.192E-02 -.882E-03
   -.261E+01 -.465E+01 0.668E+01   0.257E+01 0.479E+01 -.666E+01   0.429E-01 -.116E+00 -.178E-01   0.371E-02 0.250E-03 -.833E-03
   0.437E+01 -.455E+01 0.650E+01   -.424E+01 0.462E+01 -.654E+01   -.104E+00 -.995E-01 0.472E-01   -.431E-02 -.251E-03 -.134E-02
   0.239E+01 -.425E+01 0.600E+01   -.237E+01 0.432E+01 -.598E+01   -.516E-02 -.449E-01 -.189E-01   -.258E-02 0.300E-02 -.104E-02
   0.152E+02 -.838E+01 0.385E+01   -.149E+02 0.825E+01 -.388E+01   -.266E+00 0.129E+00 0.491E-01   -.175E-01 0.648E-02 -.484E-02
   0.669E+01 -.116E+02 0.675E+01   -.649E+01 0.116E+02 -.674E+01   -.212E+00 0.234E-01 -.116E-01   -.110E-01 0.902E-02 -.260E-02
   -.528E+01 -.403E+02 0.353E+02   0.116E+02 0.367E+02 -.346E+02   -.616E+01 0.336E+01 -.769E+00   -.644E-01 0.701E-01 -.479E-01
   0.596E+00 -.223E+02 0.164E+02   -.205E+00 0.213E+02 -.166E+02   -.397E+00 0.917E+00 0.246E+00   -.158E-01 0.317E-01 -.126E-01
   0.446E+01 -.373E+02 0.229E+02   -.109E+02 0.335E+02 -.218E+02   0.626E+01 0.366E+01 -.109E+01   0.687E-01 0.644E-01 -.507E-01
   -.871E+00 -.210E+02 0.116E+02   0.555E+00 0.199E+02 -.117E+02   0.293E+00 0.112E+01 0.205E+00   0.159E-01 0.266E-01 -.126E-01
   -.142E+02 -.124E+02 0.949E+01   0.138E+02 0.125E+02 -.961E+01   0.423E+00 -.129E+00 0.131E+00   0.149E-01 0.493E-03 -.373E-02
   -.636E+01 -.129E+02 0.795E+01   0.610E+01 0.131E+02 -.790E+01   0.271E+00 -.159E+00 -.542E-01   0.950E-02 0.269E-02 -.214E-02
   -.296E+01 -.449E+01 0.765E+01   0.287E+01 0.452E+01 -.768E+01   0.870E-01 -.699E-01 0.246E-01   0.609E-02 -.105E-03 -.101E-02
   -.218E+01 -.415E+01 0.766E+01   0.218E+01 0.423E+01 -.767E+01   0.185E-01 -.548E-01 0.955E-02   0.399E-02 -.981E-04 -.839E-03
   0.852E+00 -.276E+01 0.662E+01   -.870E+00 0.278E+01 -.664E+01   0.129E-01 -.362E-01 0.276E-01   0.166E-02 0.612E-03 -.800E-03
   -.686E-01 -.411E+00 0.633E+01   -.460E-01 0.395E+00 -.632E+01   0.120E+00 0.237E-01 -.167E-01   0.273E-02 -.334E-03 -.758E-03
   0.381E+01 -.323E+01 0.683E+01   -.379E+01 0.311E+01 -.685E+01   -.237E-01 0.762E-01 0.208E-01   -.364E-02 0.477E-02 -.111E-02
   0.295E+01 -.222E+01 0.727E+01   -.308E+01 0.211E+01 -.729E+01   0.108E+00 0.137E+00 0.177E-01   -.155E-02 0.322E-02 -.865E-03
   0.344E+00 -.919E+01 0.112E+02   0.212E+00 0.880E+01 -.114E+02   -.527E+00 0.351E+00 0.134E+00   -.907E-02 0.125E-01 -.334E-02
   0.234E+01 -.509E+01 0.836E+01   -.216E+01 0.483E+01 -.839E+01   -.175E+00 0.302E+00 0.221E-01   -.504E-02 0.942E-02 -.137E-02
   -.280E+01 -.116E+02 0.738E+01   0.292E+01 0.108E+02 -.702E+01   -.968E-01 0.697E+00 -.356E+00   -.155E-02 0.263E-01 -.834E-02
   -.450E+00 -.823E+01 0.764E+01   0.539E+00 0.772E+01 -.767E+01   -.962E-01 0.548E+00 0.250E-01   -.254E-02 0.102E-01 -.215E-02
   0.885E+00 -.105E+02 0.101E+02   -.145E+01 0.101E+02 -.102E+02   0.552E+00 0.274E+00 0.871E-01   0.772E-02 0.820E-02 -.304E-02
   -.272E+01 -.569E+01 0.861E+01   0.268E+01 0.551E+01 -.865E+01   0.291E-01 0.193E+00 0.368E-01   0.166E-02 0.671E-02 -.145E-02
   -.435E+01 -.901E+01 -.624E+03   0.631E+01 0.885E+01 0.605E+03   -.201E+01 0.172E+00 0.193E+02   0.686E-02 -.173E-01 -.988E-01
   -.635E+02 -.144E+03 0.108E+03   0.707E+02 0.161E+03 -.127E+03   -.774E+01 -.175E+02 0.204E+02   -.585E-04 -.836E-03 0.844E-02
   0.561E+02 0.126E+03 -.138E+03   -.718E+02 -.161E+03 0.179E+03   0.162E+02 0.365E+02 -.426E+02   0.618E-03 0.310E-03 0.404E-02
 -----------------------------------------------------------------------------------------------
   -.743E+01 -.192E+02 0.398E+01   -.284E-13 0.711E-12 0.114E-12   0.743E+01 0.192E+02 -.348E+01   -.777E-02 -.128E-01 -.501E+00
 
 
 POSITION                                       TOTAL-FORCE (eV/Angst)
 -----------------------------------------------------------------------------------
      7.43075     12.74244      7.25424         0.005857      0.005195      0.006148
      0.00172      1.41872      7.25564         0.007953     -0.005914      0.003119
      2.48262      0.02416      7.25193        -0.017337     -0.044153     -0.002587
      2.48312      1.44487      7.26218        -0.009610      0.020514     -0.003725
      4.95524      0.02947      7.25367         0.014298     -0.046523     -0.005347
      4.95718      1.45220      7.26256        -0.003774      0.027548     -0.005644
      7.43191      0.00014      7.25587         0.013891     -0.001694      0.002128
      7.43109      1.41920      7.25385        -0.010489      0.001598     -0.000472
      2.47844     12.72637      7.26327         0.017126     -0.034612     -0.000806
      9.90836      1.39964      7.25335        -0.022297      0.044493      0.001622
      4.95366     12.72056      7.26480        -0.003746     -0.022016     -0.000989
     12.38213      1.39049      7.25392         0.020797      0.034152     -0.000343
     13.61823      2.10816      7.25536        -0.022363     -0.030568     -0.000631
     -1.24691      3.52965      7.26551        -0.014981      0.026337     -0.001932
      1.24126      2.14310      7.26525         0.005715     -0.041761     -0.008161
      1.24235      3.56509      7.28800         0.016855      0.022480     -0.005784
      3.72120      2.16913      7.27750         0.015279     -0.029598     -0.002666
      3.72883      3.58658      7.32383        -0.013381      0.016884     -0.001752
      6.20439      2.15323      7.26092        -0.003009     -0.024154     -0.007384
      6.20851      3.57379      7.28352        -0.062837      0.020077      0.013884
      8.66660      2.11968      7.25505         0.027805     -0.024218     -0.000012
      8.66768      3.53550      7.26430         0.017385      0.041114     -0.003684
     11.14451      2.10284      7.25271         0.006190      0.003953      0.001837
     11.13791      3.52079      7.25489         0.013546      0.015155      0.001492
     12.37444      4.23420      7.26209         0.000636     -0.035064      0.000102
     -2.48688      5.65783      7.26933         0.001436      0.031151      0.001645
     -0.01222      4.24456      7.28992        -0.016625     -0.015458     -0.004836
     -0.03636      5.66032      7.31890         0.000017      0.012442      0.010351
      2.48513      4.30535      7.33352        -0.002933     -0.057298      0.003506
      2.43722      5.71667      7.42131         0.121289      0.122663     -0.057328
      4.97302      4.31686      7.34739         0.019460     -0.060127      0.025260
      4.99879      5.72846      7.46870        -0.171415      0.148912     -0.037417
      7.44882      4.24303      7.28281         0.054726     -0.009266     -0.001309
      7.46984      5.64603      7.29852        -0.057156      0.021010      0.017951
      9.90301      4.23835      7.26004        -0.015564     -0.051489     -0.003243
      9.92310      5.65804      7.26249        -0.030308      0.048489     -0.007565
     -3.71359      6.37270      7.26173         0.018325     -0.012807     -0.002924
     -3.71463      7.79445      7.26144        -0.015165      0.019959     -0.003699
     -1.26470      6.37264      7.29569        -0.026564     -0.040009      0.003827
     -1.26541      7.79377      7.29644        -0.031846      0.032311      0.002472
      1.18483      6.36671      7.36627        -0.033291      0.031126      0.005298
      1.18412      7.79955      7.36609        -0.010141     -0.046639      0.011557
      6.26111      6.35156      7.36587         0.079665      0.043648      0.023514
      6.25958      7.78542      7.36277         0.045252     -0.050216      0.012160
      8.69886      6.35881      7.27762         0.067531     -0.007610     -0.014634
      8.69493      7.78214      7.27951         0.025937      0.014477     -0.012475
     -4.94073      8.50361      7.26198         0.003801     -0.034119     -0.007311
     -4.94600      9.92727      7.25735        -0.000302      0.031400     -0.001451
     -2.48751      8.50906      7.26892         0.015043     -0.022244      0.000694
     -2.48219      9.93041      7.26188         0.011871      0.029202     -0.000084
     -0.03814      8.50720      7.32122        -0.006109      0.005401      0.015163
     -0.01429      9.92353      7.29092        -0.030615      0.017803     -0.004769
      2.43211      8.45316      7.41642         0.130354     -0.130313     -0.086456
      2.47523      9.86403      7.33071        -0.008915      0.038387      0.004248
      5.00171      8.42434      7.44117        -0.115954     -0.124529      0.002763
      4.95831      9.84331      7.34451        -0.019159      0.061422      0.007875
      7.47176      8.49822      7.30296        -0.006804     -0.017990      0.004720
      7.44722      9.91531      7.28397         0.022130      0.026522     -0.006476
     -6.18100     10.63625      7.26051         0.001928     -0.037574     -0.002399
     -6.18407     12.05469      7.25269         0.021946      0.022524      0.001457
     -3.71352     10.64270      7.25366        -0.003662     -0.015249      0.000804
     -3.71222     12.06563      7.25209         0.007683      0.008553     -0.002290
     -1.24629     10.64006      7.26588        -0.008037     -0.037714     -0.002744
     -1.24275     12.05789      7.25542        -0.028938      0.030416     -0.001681
      1.23789     10.60448      7.28768         0.023018     -0.023705      0.001983
      1.23956     12.02682      7.26575        -0.002669      0.047304     -0.004064
      3.71836     10.57709      7.32414         0.021809     -0.025203     -0.006435
      3.71642     11.99784      7.27978        -0.008809      0.053282     -0.002394
      6.19436     10.59114      7.29044        -0.012970     -0.031791     -0.006380
      6.19359     12.01747      7.26545        -0.012461      0.019017     -0.002994
      3.67428      7.08426      8.12619        -0.015452     -0.003424      0.156203
      3.67428      7.08426     14.10619        -0.489808     -1.107756      1.270271
      3.35327      6.35841     14.95153         0.488942      1.105887     -1.278776
 -----------------------------------------------------------------------------------
    total drift:                               -0.005948     -0.001935      0.000818


--------------------------------------------------------------------------------------------------------



  FREE ENERGIE OF THE ION-ELECTRON SYSTEM (eV)
  ---------------------------------------------------
  free  energy   TOTEN  =      -668.44737912 eV

  energy  without entropy=     -668.44737912  energy(sigma->0) =     -668.44737912
 


--------------------------------------------------------------------------------------------------------


    POTLOK:  cpu time    0.1449: real time    0.1453


--------------------------------------------------------------------------------------------------------


 stress matrix after NEB project (eV)
     -3.71277      0.02855      0.36852
      0.02855     -2.27407      0.90247
      0.36852      0.90247     -4.42078
  FORCES: max atom, RMS     1.759920    0.297687
  FORCE total and by dimension    2.543440    1.278776
  Stress total and by dimension    6.356213    4.420778
     LOOP+:  cpu time  310.3780: real time  313.5324
    4ORBIT:  cpu time    0.0000: real time    0.0000
 


 total charge     
 
# of ion       s       p       d       tot
------------------------------------------
    1        0.864   1.780   0.000   2.644
    2        0.863   1.780   0.000   2.644
    3        0.865   1.784   0.000   2.648
    4        0.863   1.783   0.000   2.647
    5        0.864   1.781   0.000   2.645
    6        0.862   1.783   0.000   2.644
    7        0.863   1.786   0.000   2.650
    8        0.866   1.785   0.000   2.651
    9        0.863   1.782   0.000   2.644
   10        0.862   1.781   0.000   2.644
   11        0.864   1.783   0.000   2.647
   12        0.864   1.783   0.000   2.647
   13        0.865   1.788   0.000   2.653
   14        0.865   1.787   0.000   2.652
   15        0.864   1.779   0.000   2.643
   16        0.863   1.769   0.000   2.632
   17        0.864   1.778   0.000   2.641
   18        0.861   1.772   0.000   2.634
   19        0.861   1.788   0.000   2.648
   20        0.852   1.734   0.000   2.587
   21        0.863   1.793   0.000   2.656
   22        0.854   1.756   0.000   2.610
   23        0.865   1.791   0.000   2.656
   24        0.864   1.785   0.000   2.649
   25        0.864   1.787   0.000   2.651
   26        0.868   1.796   0.000   2.664
   27        0.866   1.789   0.000   2.654
   28        0.871   1.803   0.000   2.674
   29        0.861   1.759   0.000   2.620
   30        0.875   1.690   0.000   2.565
   31        0.859   1.759   0.000   2.618
   32        0.875   1.679   0.000   2.554
   33        1.212   2.703   0.000   3.915
   34        0.859   1.772   0.000   2.631
   35        0.862   1.798   0.000   2.660
   36        0.869   1.801   0.000   2.670
   37        0.867   1.801   0.000   2.667
   38        0.868   1.796   0.000   2.664
   39        0.867   1.799   0.000   2.666
   40        0.868   1.795   0.000   2.664
   41        0.875   1.787   0.000   2.662
   42        0.876   1.785   0.000   2.661
   43        0.876   1.798   0.000   2.674
   44        0.876   1.788   0.000   2.663
   45        0.866   1.804   0.000   2.670
   46        0.866   1.796   0.000   2.662
   47        0.867   1.795   0.000   2.662
   48        0.864   1.789   0.000   2.653
   49        0.868   1.797   0.000   2.665
   50        0.865   1.790   0.000   2.656
   51        0.870   1.804   0.000   2.674
   52        0.867   1.787   0.000   2.654
   53        0.875   1.692   0.000   2.567
   54        0.863   1.763   0.000   2.627
   55        0.872   1.676   0.000   2.548
   56        0.860   1.751   0.000   2.611
   57        0.872   1.806   0.000   2.678
   58        0.866   1.791   0.000   2.657
   59        0.866   1.788   0.000   2.654
   60        0.865   1.787   0.000   2.652
   61        0.865   1.787   0.000   2.653
   62        0.864   1.787   0.000   2.651
   63        0.865   1.791   0.000   2.656
   64        0.866   1.787   0.000   2.653
   65        0.864   1.773   0.000   2.637
   66        0.864   1.781   0.000   2.645
   67        0.863   1.772   0.000   2.635
   68        0.862   1.772   0.000   2.635
   69        0.863   1.769   0.000   2.632
   70        0.863   1.778   0.000   2.641
   71        0.388   6.290   4.291  10.970
   72        1.036   1.403   0.000   2.439
   73        1.637   3.515   0.000   5.151
--------------------------------------------------
tot         63.993 136.617   4.291 204.901
 


 magnetization (x)
 
# of ion       s       p       d       tot
------------------------------------------
    1        0.000   0.001   0.000   0.001
    2        0.000   0.000   0.000   0.000
    3       -0.000   0.001   0.000   0.001
    4        0.000   0.007   0.000   0.008
    5       -0.000   0.000   0.000  -0.000
    6        0.001   0.010   0.000   0.011
    7        0.000   0.002   0.000   0.002
    8       -0.000  -0.002   0.000  -0.002
    9        0.000   0.008   0.000   0.008
   10        0.000   0.002   0.000   0.002
   11        0.000   0.006   0.000   0.007
   12       -0.000  -0.000   0.000  -0.000
   13        0.000   0.001   0.000   0.001
   14        0.000   0.005   0.000   0.005
   15        0.000   0.002   0.000   0.002
   16        0.001   0.004   0.000   0.005
   17       -0.001  -0.004   0.000  -0.005
   18        0.001   0.024   0.000   0.026
   19        0.000   0.002   0.000   0.002
   20        0.001   0.011   0.000   0.012
   21        0.000   0.001   0.000   0.002
   22       -0.000   0.000   0.000  -0.000
   23        0.000   0.008   0.000   0.008
   24       -0.000  -0.002   0.000  -0.003
   25        0.000   0.008   0.000   0.008
   26       -0.000   0.001   0.000   0.001
   27       -0.000   0.000   0.000   0.000
   28        0.000   0.002   0.000   0.002
   29       -0.001  -0.007   0.000  -0.008
   30        0.014   0.079   0.000   0.094
   31       -0.001  -0.008   0.000  -0.009
   32        0.015   0.093   0.000   0.108
   33        0.000   0.009   0.000   0.010
   34        0.001   0.010   0.000   0.011
   35        0.001   0.011   0.000   0.012
   36        0.000   0.004   0.000   0.004
   37       -0.000   0.000   0.000   0.000
   38        0.000   0.002   0.000   0.002
   39        0.000   0.006   0.000   0.007
   40        0.000   0.008   0.000   0.009
   41       -0.000   0.011   0.000   0.011
   42       -0.001   0.008   0.000   0.007
   43       -0.001   0.007   0.000   0.006
   44       -0.001   0.010   0.000   0.009
   45        0.000   0.005   0.000   0.005
   46        0.000   0.007   0.000   0.007
   47       -0.000   0.001   0.000   0.001
   48        0.000   0.008   0.000   0.008
   49       -0.000   0.001   0.000   0.001
   50        0.000   0.008   0.000   0.008
   51        0.000   0.002   0.000   0.002
   52       -0.000  -0.002   0.000  -0.002
   53        0.015   0.085   0.000   0.100
   54       -0.001  -0.005   0.000  -0.006
   55        0.014   0.078   0.000   0.092
   56       -0.001  -0.006   0.000  -0.007
   57        0.000   0.002   0.000   0.002
   58       -0.000  -0.000   0.000  -0.001
   59        0.000   0.003   0.000   0.003
   60        0.000   0.001   0.000   0.001
   61       -0.000  -0.001   0.000  -0.001
   62        0.000   0.005   0.000   0.006
   63        0.000   0.003   0.000   0.004
   64        0.000   0.003   0.000   0.003
   65        0.001   0.005   0.000   0.006
   66        0.000   0.001   0.000   0.001
   67        0.001   0.023   0.000   0.025
   68       -0.001  -0.005   0.000  -0.006
   69        0.001   0.005   0.000   0.006
   70        0.000   0.003   0.000   0.004
   71       -0.032   0.012  -1.896  -1.916
   72        0.000   0.000   0.000   0.000
   73       -0.000  -0.000   0.000  -0.000
--------------------------------------------------
tot          0.032   0.585  -1.896  -1.278
 
 BZINTS: Fermi energy: -2.057941;303.000000 electrons
         Band energy:***********;  BLOECHL correction: -0.003854

 total amount of memory used by VASP MPI-rank0   116094. kBytes
=======================================================================

   base      :      30000. kBytes
   nonl-proj :      27308. kBytes
   fftplans  :       4700. kBytes
   grid      :      15193. kBytes
   one-center:        217. kBytes
   wavefun   :      38676. kBytes
 
  
  
 General timing and accounting informations for this job:
 ========================================================
  
                  Total CPU time used (sec):      327.434
                            User time (sec):      317.725
                          System time (sec):        9.709
                         Elapsed time (sec):      339.200
  
                   Maximum memory used (kb):      474020.
                   Average memory used (kb):           0.
  
                          Minor page faults:      1695695
                          Major page faults:            0
                 Voluntary context switches:         8586
