  71  71   0   0
  0.4011563E+02  0.1487831E-08  0.1477209E-08  0.1500000E-08  0.3000000E-15
  1.000000000000000E-004
  CAR 
 unknown system                          
      5.28993094    -48.59985096  301     -2.06687355      1.00000000
    -48.600  0.0000E+00  0.0000E+00  0.0000E+00  0.0000E+00
    -48.420  0.0000E+00  0.0000E+00  0.0000E+00  0.0000E+00
    -48.241  0.0000E+00  0.0000E+00  0.0000E+00  0.0000E+00
    -48.061  0.0000E+00  0.0000E+00  0.0000E+00  0.0000E+00
    -47.881  0.0000E+00  0.0000E+00  0.0000E+00  0.0000E+00
    -47.702  0.0000E+00  0.0000E+00  0.0000E+00  0.0000E+00
    -47.522  0.0000E+00  0.0000E+00  0.0000E+00  0.0000E+00
    -47.342  0.0000E+00  0.0000E+00  0.0000E+00  0.0000E+00
    -47.163  0.0000E+00  0.0000E+00  0.0000E+00  0.0000E+00
    -46.983  0.0000E+00  0.0000E+00  0.0000E+00  0.0000E+00
    -46.804  0.0000E+00  0.0000E+00  0.0000E+00  0.0000E+00
    -46.624  0.0000E+00  0.1476E-12  0.0000E+00  0.2652E-13
    -46.444  0.0000E+00  0.2244E-06  0.0000E+00  0.4031E-07
    -46.265  0.0000E+00  0.7371E-03  0.0000E+00  0.1325E-03
    -46.085  0.0000E+00  0.1078E-01  0.0000E+00  0.2070E-02
    -45.905  0.0000E+00  0.1142E-01  0.0000E+00  0.4121E-02
    -45.726  0.0000E+00  0.1781E-01  0.0000E+00  0.7319E-02
    -45.546  0.0000E+00  0.1006E-02  0.0000E+00  0.7500E-02
    -45.366  0.0000E+00  0.3731E-06  0.0000E+00  0.7500E-02
    -45.187  0.0000E+00  0.3247E-12  0.0000E+00  0.7500E-02
    -45.007  0.0000E+00  0.0000E+00  0.0000E+00  0.7500E-02
    -44.828  0.0000E+00  0.0000E+00  0.0000E+00  0.7500E-02
    -44.648  0.0000E+00  0.0000E+00  0.0000E+00  0.7500E-02
    -44.468  0.1425E-12  0.0000E+00  0.2559E-13  0.7500E-02
    -44.289  0.2193E-06  0.0000E+00  0.3940E-07  0.7500E-02
    -44.109  0.7294E-03  0.0000E+00  0.1311E-03  0.7500E-02
    -43.929  0.1080E-01  0.0000E+00  0.2072E-02  0.7500E-02
    -43.750  0.1055E-01  0.0000E+00  0.3967E-02  0.7500E-02
    -43.570  0.1651E-01  0.0000E+00  0.6933E-02  0.7500E-02
    -43.391  0.3149E-02  0.0000E+00  0.7499E-02  0.7500E-02
    -43.211  0.6658E-05  0.0000E+00  0.7500E-02  0.7500E-02
    -43.031  0.3560E-10  0.0000E+00  0.7500E-02  0.7500E-02
    -42.852  0.0000E+00  0.0000E+00  0.7500E-02  0.7500E-02
    -42.672  0.0000E+00  0.0000E+00  0.7500E-02  0.7500E-02
    -42.492  0.0000E+00  0.0000E+00  0.7500E-02  0.7500E-02
    -42.313  0.0000E+00  0.0000E+00  0.7500E-02  0.7500E-02
    -42.133  0.0000E+00  0.0000E+00  0.7500E-02  0.7500E-02
    -41.953  0.0000E+00  0.0000E+00  0.7500E-02  0.7500E-02
    -41.774  0.0000E+00  0.0000E+00  0.7500E-02  0.7500E-02
    -41.594  0.0000E+00  0.0000E+00  0.7500E-02  0.7500E-02
    -41.415  0.0000E+00  0.0000E+00  0.7500E-02  0.7500E-02
    -41.235  0.0000E+00  0.0000E+00  0.7500E-02  0.7500E-02
    -41.055  0.0000E+00  0.0000E+00  0.7500E-02  0.7500E-02
    -40.876  0.0000E+00  0.0000E+00  0.7500E-02  0.7500E-02
    -40.696  0.0000E+00  0.0000E+00  0.7500E-02  0.7500E-02
    -40.516  0.0000E+00  0.0000E+00  0.7500E-02  0.7500E-02
    -40.337  0.0000E+00  0.0000E+00  0.7500E-02  0.7500E-02
    -40.157  0.0000E+00  0.0000E+00  0.7500E-02  0.7500E-02
    -39.977  0.0000E+00  0.0000E+00  0.7500E-02  0.7500E-02
    -39.798  0.0000E+00  0.0000E+00  0.7500E-02  0.7500E-02
    -39.618  0.0000E+00  0.0000E+00  0.7500E-02  0.7500E-02
    -39.439  0.0000E+00  0.0000E+00  0.7500E-02  0.7500E-02
    -39.259  0.0000E+00  0.0000E+00  0.7500E-02  0.7500E-02
    -39.079  0.0000E+00  0.0000E+00  0.7500E-02  0.7500E-02
    -38.900  0.0000E+00  0.0000E+00  0.7500E-02  0.7500E-02
    -38.720  0.0000E+00  0.0000E+00  0.7500E-02  0.7500E-02
    -38.540  0.0000E+00  0.0000E+00  0.7500E-02  0.7500E-02
    -38.361  0.0000E+00  0.0000E+00  0.7500E-02  0.7500E-02
    -38.181  0.0000E+00  0.0000E+00  0.7500E-02  0.7500E-02
    -38.002  0.0000E+00  0.0000E+00  0.7500E-02  0.7500E-02
    -37.822  0.0000E+00  0.0000E+00  0.7500E-02  0.7500E-02
    -37.642  0.0000E+00  0.0000E+00  0.7500E-02  0.7500E-02
    -37.463  0.0000E+00  0.0000E+00  0.7500E-02  0.7500E-02
    -37.283  0.0000E+00  0.0000E+00  0.7500E-02  0.7500E-02
    -37.103  0.0000E+00  0.0000E+00  0.7500E-02  0.7500E-02
    -36.924  0.0000E+00  0.0000E+00  0.7500E-02  0.7500E-02
    -36.744  0.0000E+00  0.0000E+00  0.7500E-02  0.7500E-02
    -36.564  0.0000E+00  0.0000E+00  0.7500E-02  0.7500E-02
    -36.385  0.0000E+00  0.0000E+00  0.7500E-02  0.7500E-02
    -36.205  0.0000E+00  0.0000E+00  0.7500E-02  0.7500E-02
    -36.026  0.0000E+00  0.0000E+00  0.7500E-02  0.7500E-02
    -35.846  0.0000E+00  0.0000E+00  0.7500E-02  0.7500E-02
    -35.666  0.0000E+00  0.0000E+00  0.7500E-02  0.7500E-02
    -35.487  0.0000E+00  0.0000E+00  0.7500E-02  0.7500E-02
    -35.307  0.0000E+00  0.0000E+00  0.7500E-02  0.7500E-02
    -35.127  0.0000E+00  0.0000E+00  0.7500E-02  0.7500E-02
    -34.948  0.0000E+00  0.0000E+00  0.7500E-02  0.7500E-02
    -34.768  0.0000E+00  0.0000E+00  0.7500E-02  0.7500E-02
    -34.589  0.0000E+00  0.0000E+00  0.7500E-02  0.7500E-02
    -34.409  0.0000E+00  0.0000E+00  0.7500E-02  0.7500E-02
    -34.229  0.0000E+00  0.0000E+00  0.7500E-02  0.7500E-02
    -34.050  0.0000E+00  0.0000E+00  0.7500E-02  0.7500E-02
    -33.870  0.0000E+00  0.0000E+00  0.7500E-02  0.7500E-02
    -33.690  0.0000E+00  0.0000E+00  0.7500E-02  0.7500E-02
    -33.511  0.0000E+00  0.0000E+00  0.7500E-02  0.7500E-02
    -33.331  0.0000E+00  0.0000E+00  0.7500E-02  0.7500E-02
    -33.151  0.0000E+00  0.0000E+00  0.7500E-02  0.7500E-02
    -32.972  0.0000E+00  0.0000E+00  0.7500E-02  0.7500E-02
    -32.792  0.0000E+00  0.0000E+00  0.7500E-02  0.7500E-02
    -32.613  0.0000E+00  0.0000E+00  0.7500E-02  0.7500E-02
    -32.433  0.0000E+00  0.0000E+00  0.7500E-02  0.7500E-02
    -32.253  0.0000E+00  0.0000E+00  0.7500E-02  0.7500E-02
    -32.074  0.0000E+00  0.0000E+00  0.7500E-02  0.7500E-02
    -31.894  0.0000E+00  0.0000E+00  0.7500E-02  0.7500E-02
    -31.714  0.0000E+00  0.0000E+00  0.7500E-02  0.7500E-02
    -31.535  0.0000E+00  0.0000E+00  0.7500E-02  0.7500E-02
    -31.355  0.0000E+00  0.0000E+00  0.7500E-02  0.7500E-02
    -31.175  0.0000E+00  0.0000E+00  0.7500E-02  0.7500E-02
    -30.996  0.0000E+00  0.0000E+00  0.7500E-02  0.7500E-02
    -30.816  0.0000E+00  0.0000E+00  0.7500E-02  0.7500E-02
    -30.637  0.0000E+00  0.0000E+00  0.7500E-02  0.7500E-02
    -30.457  0.0000E+00  0.0000E+00  0.7500E-02  0.7500E-02
    -30.277  0.0000E+00  0.0000E+00  0.7500E-02  0.7500E-02
    -30.098  0.0000E+00  0.0000E+00  0.7500E-02  0.7500E-02
    -29.918  0.0000E+00  0.0000E+00  0.7500E-02  0.7500E-02
    -29.738  0.0000E+00  0.0000E+00  0.7500E-02  0.7500E-02
    -29.559  0.0000E+00  0.0000E+00  0.7500E-02  0.7500E-02
    -29.379  0.0000E+00  0.0000E+00  0.7500E-02  0.7500E-02
    -29.200  0.0000E+00  0.0000E+00  0.7500E-02  0.7500E-02
    -29.020  0.0000E+00  0.0000E+00  0.7500E-02  0.7500E-02
    -28.840  0.0000E+00  0.0000E+00  0.7500E-02  0.7500E-02
    -28.661  0.0000E+00  0.0000E+00  0.7500E-02  0.7500E-02
    -28.481  0.0000E+00  0.0000E+00  0.7500E-02  0.7500E-02
    -28.301  0.0000E+00  0.0000E+00  0.7500E-02  0.7500E-02
    -28.122  0.0000E+00  0.0000E+00  0.7500E-02  0.7500E-02
    -27.942  0.0000E+00  0.0000E+00  0.7500E-02  0.7500E-02
    -27.762  0.0000E+00  0.0000E+00  0.7500E-02  0.7500E-02
    -27.583  0.0000E+00  0.0000E+00  0.7500E-02  0.7500E-02
    -27.403  0.0000E+00  0.0000E+00  0.7500E-02  0.7500E-02
    -27.224  0.0000E+00  0.0000E+00  0.7500E-02  0.7500E-02
    -27.044  0.0000E+00  0.0000E+00  0.7500E-02  0.7500E-02
    -26.864  0.0000E+00  0.0000E+00  0.7500E-02  0.7500E-02
    -26.685  0.0000E+00  0.0000E+00  0.7500E-02  0.7500E-02
    -26.505  0.0000E+00  0.0000E+00  0.7500E-02  0.7500E-02
    -26.325  0.0000E+00  0.0000E+00  0.7500E-02  0.7500E-02
    -26.146  0.0000E+00  0.0000E+00  0.7500E-02  0.7500E-02
    -25.966  0.0000E+00  0.0000E+00  0.7500E-02  0.7500E-02
    -25.787  0.0000E+00  0.0000E+00  0.7500E-02  0.7500E-02
    -25.607  0.0000E+00  0.0000E+00  0.7500E-02  0.7500E-02
    -25.427  0.0000E+00  0.0000E+00  0.7500E-02  0.7500E-02
    -25.248  0.0000E+00  0.0000E+00  0.7500E-02  0.7500E-02
    -25.068  0.0000E+00  0.0000E+00  0.7500E-02  0.7500E-02
    -24.888  0.0000E+00  0.0000E+00  0.7500E-02  0.7500E-02
    -24.709  0.1726E-12  0.1391E-12  0.7500E-02  0.7500E-02
    -24.529  0.2479E-06  0.2160E-06  0.7500E-02  0.7500E-02
    -24.349  0.7721E-03  0.7241E-03  0.7639E-02  0.7630E-02
    -24.170  0.1075E-01  0.1069E-01  0.9570E-02  0.9550E-02
    -23.990  0.2389E-02  0.2502E-02  0.9999E-02  0.9999E-02
    -23.811  0.3399E-05  0.3823E-05  0.1000E-01  0.1000E-01
    -23.631  0.1159E-10  0.1409E-10  0.1000E-01  0.1000E-01
    -23.451  0.0000E+00  0.0000E+00  0.1000E-01  0.1000E-01
    -23.272  0.0000E+00  0.0000E+00  0.1000E-01  0.1000E-01
    -23.092  0.0000E+00  0.0000E+00  0.1000E-01  0.1000E-01
    -22.912  0.0000E+00  0.0000E+00  0.1000E-01  0.1000E-01
    -22.733  0.0000E+00  0.0000E+00  0.1000E-01  0.1000E-01
    -22.553  0.0000E+00  0.0000E+00  0.1000E-01  0.1000E-01
    -22.373  0.0000E+00  0.0000E+00  0.1000E-01  0.1000E-01
    -22.194  0.0000E+00  0.0000E+00  0.1000E-01  0.1000E-01
    -22.014  0.2237E-15  0.1949E-15  0.1000E-01  0.1000E-01
    -21.835  0.2561E-08  0.2327E-08  0.1000E-01  0.1000E-01
    -21.655  0.6233E-04  0.5906E-04  0.1001E-01  0.1001E-01
    -21.475  0.5865E-02  0.5757E-02  0.1106E-01  0.1104E-01
    -21.296  0.1533E-01  0.1530E-01  0.1382E-01  0.1379E-01
    -21.116  0.1522E-01  0.1512E-01  0.1655E-01  0.1651E-01
    -20.936  0.1057E-01  0.1060E-01  0.1845E-01  0.1841E-01
    -20.757  0.1087E-01  0.1084E-01  0.2040E-01  0.2036E-01
    -20.577  0.1680E-01  0.1665E-01  0.2342E-01  0.2335E-01
    -20.398  0.1469E-01  0.1480E-01  0.2606E-01  0.2601E-01
    -20.218  0.8961E-02  0.9072E-02  0.2767E-01  0.2764E-01
    -20.038  0.1282E-01  0.1248E-01  0.2997E-01  0.2988E-01
    -19.859  0.1483E-01  0.1482E-01  0.3264E-01  0.3255E-01
    -19.679  0.1946E-01  0.1962E-01  0.3613E-01  0.3607E-01
    -19.499  0.8748E-02  0.8848E-02  0.3770E-01  0.3766E-01
    -19.320  0.1080E-01  0.1057E-01  0.3964E-01  0.3956E-01
    -19.140  0.1542E-01  0.1538E-01  0.4241E-01  0.4232E-01
    -18.960  0.1524E-01  0.1516E-01  0.4515E-01  0.4504E-01
    -18.781  0.1350E-01  0.1362E-01  0.4758E-01  0.4749E-01
    -18.601  0.1454E-01  0.1460E-01  0.5019E-01  0.5011E-01
    -18.422  0.1267E-01  0.1261E-01  0.5246E-01  0.5238E-01
    -18.242  0.1831E-01  0.1796E-01  0.5575E-01  0.5560E-01
    -18.062  0.1504E-01  0.1518E-01  0.5846E-01  0.5833E-01
    -17.883  0.1227E-01  0.1266E-01  0.6066E-01  0.6060E-01
    -17.703  0.9161E-02  0.9258E-02  0.6231E-01  0.6226E-01
    -17.523  0.1726E-01  0.1675E-01  0.6541E-01  0.6527E-01
    -17.344  0.1708E-01  0.1720E-01  0.6847E-01  0.6836E-01
    -17.164  0.1667E-01  0.1651E-01  0.7147E-01  0.7133E-01
    -16.985  0.1751E-01  0.1776E-01  0.7461E-01  0.7452E-01
    -16.805  0.1669E-01  0.1678E-01  0.7761E-01  0.7753E-01
    -16.625  0.1327E-01  0.1322E-01  0.8000E-01  0.7991E-01
    -16.446  0.9589E-02  0.9344E-02  0.8172E-01  0.8159E-01
    -16.266  0.1477E-01  0.1499E-01  0.8437E-01  0.8428E-01
    -16.086  0.1538E-01  0.1528E-01  0.8714E-01  0.8702E-01
    -15.907  0.1686E-01  0.1629E-01  0.9016E-01  0.8995E-01
    -15.727  0.1246E-01  0.1273E-01  0.9240E-01  0.9223E-01
    -15.547  0.8568E-02  0.9050E-02  0.9394E-01  0.9386E-01
    -15.368  0.8759E-02  0.8878E-02  0.9551E-01  0.9546E-01
    -15.188  0.1092E-01  0.1089E-01  0.9748E-01  0.9741E-01
    -15.009  0.1608E-01  0.1605E-01  0.1004E+00  0.1003E+00
    -14.829  0.1505E-01  0.1497E-01  0.1031E+00  0.1030E+00
    -14.649  0.1547E-01  0.1487E-01  0.1058E+00  0.1057E+00
    -14.470  0.1758E-01  0.1801E-01  0.1090E+00  0.1089E+00
    -14.290  0.1515E-01  0.1530E-01  0.1117E+00  0.1116E+00
    -14.110  0.1564E-01  0.1567E-01  0.1145E+00  0.1145E+00
    -13.931  0.1301E-01  0.1257E-01  0.1169E+00  0.1167E+00
    -13.751  0.2067E-01  0.2093E-01  0.1206E+00  0.1205E+00
    -13.571  0.1025E-01  0.1048E-01  0.1224E+00  0.1224E+00
    -13.392  0.1850E-01  0.1795E-01  0.1257E+00  0.1256E+00
    -13.212  0.9510E-02  0.9759E-02  0.1275E+00  0.1273E+00
    -13.033  0.1229E-01  0.1271E-01  0.1297E+00  0.1296E+00
    -12.853  0.1319E-01  0.1291E-01  0.1320E+00  0.1319E+00
    -12.673  0.2294E-01  0.2282E-01  0.1362E+00  0.1360E+00
    -12.494  0.1398E-01  0.1423E-01  0.1387E+00  0.1386E+00
    -12.314  0.7958E-02  0.8066E-02  0.1401E+00  0.1400E+00
    -12.134  0.1047E-01  0.1049E-01  0.1420E+00  0.1419E+00
    -11.955  0.1685E-01  0.1647E-01  0.1450E+00  0.1449E+00
    -11.775  0.2097E-01  0.2088E-01  0.1488E+00  0.1486E+00
    -11.596  0.2819E-01  0.2798E-01  0.1538E+00  0.1537E+00
    -11.416  0.1627E-01  0.1710E-01  0.1568E+00  0.1567E+00
    -11.236  0.2185E-02  0.2145E-02  0.1572E+00  0.1571E+00
    -11.057  0.2189E-01  0.2130E-01  0.1611E+00  0.1609E+00
    -10.877  0.1524E-01  0.1573E-01  0.1638E+00  0.1638E+00
    -10.697  0.1911E-01  0.1875E-01  0.1673E+00  0.1671E+00
    -10.518  0.1926E-01  0.1928E-01  0.1707E+00  0.1706E+00
    -10.338  0.3196E-01  0.3231E-01  0.1765E+00  0.1764E+00
    -10.158  0.1733E-01  0.1723E-01  0.1796E+00  0.1795E+00
     -9.979  0.2294E-01  0.2249E-01  0.1837E+00  0.1835E+00
     -9.799  0.2199E-01  0.2242E-01  0.1876E+00  0.1876E+00
     -9.620  0.2040E-01  0.2015E-01  0.1913E+00  0.1912E+00
     -9.440  0.3927E-01  0.3944E-01  0.1984E+00  0.1983E+00
     -9.260  0.2765E-01  0.2785E-01  0.2033E+00  0.2033E+00
     -9.081  0.2721E-01  0.2708E-01  0.2082E+00  0.2081E+00
     -8.901  0.3039E-01  0.3031E-01  0.2137E+00  0.2136E+00
     -8.721  0.3934E-01  0.3906E-01  0.2207E+00  0.2206E+00
     -8.542  0.4777E-01  0.4754E-01  0.2293E+00  0.2291E+00
     -8.362  0.5426E-01  0.5469E-01  0.2391E+00  0.2390E+00
     -8.183  0.2924E-01  0.2914E-01  0.2443E+00  0.2442E+00
     -8.003  0.2601E-01  0.2591E-01  0.2490E+00  0.2488E+00
     -7.823  0.3439E-01  0.3467E-01  0.2552E+00  0.2551E+00
     -7.644  0.2431E-01  0.2445E-01  0.2595E+00  0.2595E+00
     -7.464  0.3787E-01  0.3767E-01  0.2663E+00  0.2662E+00
     -7.284  0.3068E-01  0.3097E-01  0.2718E+00  0.2718E+00
     -7.105  0.3266E-01  0.3302E-01  0.2777E+00  0.2777E+00
     -6.925  0.3592E-01  0.3584E-01  0.2842E+00  0.2842E+00
     -6.745  0.1926E-01  0.1900E-01  0.2876E+00  0.2876E+00
     -6.566  0.1548E-01  0.1590E-01  0.2904E+00  0.2904E+00
     -6.386  0.2088E-01  0.2222E-01  0.2942E+00  0.2944E+00
     -6.207  0.4074E-01  0.4035E-01  0.3015E+00  0.3017E+00
     -6.027  0.2866E-01  0.2748E-01  0.3066E+00  0.3066E+00
     -5.847  0.2607E-01  0.2619E-01  0.3113E+00  0.3113E+00
     -5.668  0.2236E-01  0.2501E-01  0.3153E+00  0.3158E+00
     -5.488  0.2191E-01  0.1975E-01  0.3193E+00  0.3194E+00
     -5.308  0.1145E-01  0.1310E-01  0.3213E+00  0.3217E+00
     -5.129  0.2062E-01  0.2245E-01  0.3250E+00  0.3257E+00
     -4.949  0.2396E-01  0.3052E-01  0.3293E+00  0.3312E+00
     -4.769  0.3226E-01  0.2846E-01  0.3351E+00  0.3363E+00
     -4.590  0.3602E-01  0.3412E-01  0.3416E+00  0.3425E+00
     -4.410  0.1506E-01  0.1095E-01  0.3443E+00  0.3444E+00
     -4.231  0.3579E-02  0.4886E-02  0.3449E+00  0.3453E+00
     -4.051  0.1304E-01  0.1830E-01  0.3473E+00  0.3486E+00
     -3.871  0.1574E-01  0.2512E-01  0.3501E+00  0.3531E+00
     -3.692  0.1462E-01  0.1201E-01  0.3527E+00  0.3553E+00
     -3.512  0.2002E-01  0.9743E-02  0.3563E+00  0.3570E+00
     -3.332  0.1162E-01  0.1437E-01  0.3584E+00  0.3596E+00
     -3.153  0.8674E-02  0.1709E-01  0.3600E+00  0.3627E+00
     -2.973  0.7070E-02  0.6389E-02  0.3612E+00  0.3638E+00
     -2.794  0.3366E-02  0.1069E-01  0.3618E+00  0.3657E+00
     -2.614  0.1416E-03  0.4187E-02  0.3619E+00  0.3665E+00
     -2.434  0.3587E-03  0.2378E-02  0.3619E+00  0.3669E+00
     -2.255  0.3122E-02  0.3179E-02  0.3625E+00  0.3675E+00
     -2.075  0.7699E-02  0.5484E-02  0.3639E+00  0.3685E+00
     -1.895  0.8857E-02  0.1599E-02  0.3655E+00  0.3688E+00
     -1.716  0.8380E-03  0.7210E-02  0.3656E+00  0.3701E+00
     -1.536  0.1069E-02  0.1717E-01  0.3658E+00  0.3731E+00
     -1.356  0.9694E-02  0.1715E-01  0.3676E+00  0.3762E+00
     -1.177  0.3163E-02  0.6470E-02  0.3681E+00  0.3774E+00
     -0.997  0.6782E-02  0.5103E-02  0.3693E+00  0.3783E+00
     -0.818  0.2918E-01  0.1735E-01  0.3746E+00  0.3814E+00
     -0.638  0.2639E-01  0.1739E-01  0.3793E+00  0.3845E+00
     -0.458  0.2711E-01  0.1281E-01  0.3842E+00  0.3868E+00
     -0.279  0.2124E-01  0.1729E-01  0.3880E+00  0.3900E+00
     -0.099  0.1854E-01  0.1386E-01  0.3913E+00  0.3924E+00
      0.081  0.9905E-02  0.1280E-01  0.3931E+00  0.3947E+00
      0.260  0.2365E-01  0.2136E-01  0.3974E+00  0.3986E+00
      0.440  0.2530E-01  0.1827E-01  0.4019E+00  0.4019E+00
      0.619  0.1376E-01  0.1428E-01  0.4044E+00  0.4044E+00
      0.799  0.4424E-02  0.9285E-02  0.4052E+00  0.4061E+00
      0.979  0.1370E-01  0.1984E-01  0.4076E+00  0.4097E+00
      1.158  0.2152E-01  0.1377E-01  0.4115E+00  0.4121E+00
      1.338  0.1398E-01  0.1548E-01  0.4140E+00  0.4149E+00
      1.518  0.2109E-01  0.2033E-01  0.4178E+00  0.4186E+00
      1.697  0.2129E-01  0.2282E-01  0.4216E+00  0.4227E+00
      1.877  0.2654E-01  0.2584E-01  0.4264E+00  0.4273E+00
      2.057  0.3070E-01  0.3624E-01  0.4319E+00  0.4338E+00
      2.236  0.2858E-01  0.2695E-01  0.4371E+00  0.4387E+00
      2.416  0.1820E-01  0.2010E-01  0.4403E+00  0.4423E+00
      2.595  0.4164E-01  0.4053E-01  0.4478E+00  0.4496E+00
      2.775  0.5477E-01  0.4903E-01  0.4576E+00  0.4584E+00
      2.955  0.1286E-01  0.9022E-02  0.4600E+00  0.4600E+00
      3.134  0.2757E-03  0.1199E-03  0.4600E+00  0.4600E+00
      3.314  0.6136E-07  0.1100E-07  0.4600E+00  0.4600E+00
      3.494  0.3761E-13  0.2565E-14  0.4600E+00  0.4600E+00
      3.673  0.0000E+00  0.0000E+00  0.4600E+00  0.4600E+00
      3.853  0.0000E+00  0.0000E+00  0.4600E+00  0.4600E+00
      4.033  0.0000E+00  0.0000E+00  0.4600E+00  0.4600E+00
      4.212  0.0000E+00  0.0000E+00  0.4600E+00  0.4600E+00
      4.392  0.0000E+00  0.0000E+00  0.4600E+00  0.4600E+00
      4.571  0.0000E+00  0.0000E+00  0.4600E+00  0.4600E+00
      4.751  0.0000E+00  0.0000E+00  0.4600E+00  0.4600E+00
      4.931  0.0000E+00  0.0000E+00  0.4600E+00  0.4600E+00
      5.110  0.0000E+00  0.0000E+00  0.4600E+00  0.4600E+00
      5.290  0.0000E+00  0.0000E+00  0.4600E+00  0.4600E+00
