 running on   48 total cores
 distrk:  each k-point on   48 cores,    1 groups
 distr:  one band on   12 cores,    4 groups
 using from now: INCAR     
 vasp.5.4.4.18Apr17-6-g9f103f2a35 (build Sep 02 2021 13:24:58) complex          
  
 POSCAR found type information on POSCAR  C  N  C  Cr
 POSCAR found :  4 types and      71 ions
 scaLAPACK will be used
 LDA part: xc-table for Pade appr. of Perdew
 POSCAR, INCAR and KPOINTS ok, starting setup
 FFT: planning ...
 WAVECAR not read
 entering main loop
       N       E                     dE             d eps       ncg     rms          rms(c)
DAV:   1     0.274384098848E+04    0.27438E+04   -0.11731E+05  3248   0.127E+03
DAV:   2    -0.171375834987E+03   -0.29152E+04   -0.27855E+04  4304   0.296E+02
DAV:   3    -0.684202994686E+03   -0.51283E+03   -0.50987E+03  3560   0.129E+02
DAV:   4    -0.703725648330E+03   -0.19523E+02   -0.19372E+02  3600   0.312E+01
DAV:   5    -0.704348686874E+03   -0.62304E+00   -0.62115E+00  4080   0.477E+00    0.465E+01
RMM:   6    -0.732692587101E+03   -0.28344E+02   -0.53632E+02  4099   0.394E+01    0.844E+01
RMM:   7    -0.662361595721E+03    0.70331E+02   -0.54693E+01  3047   0.137E+01    0.321E+01
RMM:   8    -0.662410608214E+03   -0.49012E-01   -0.21654E+01  3129   0.700E+00    0.283E+01
RMM:   9    -0.647188375613E+03    0.15222E+02   -0.19934E+01  2970   0.839E+00    0.115E+01
RMM:  10    -0.647605742363E+03   -0.41737E+00   -0.30265E+00  3003   0.308E+00    0.145E+01
RMM:  11    -0.646582184354E+03    0.10236E+01   -0.41515E-01  3126   0.103E+00    0.770E+00
RMM:  12    -0.646421776125E+03    0.16041E+00   -0.15806E-01  2944   0.925E-01    0.591E+00
RMM:  13    -0.646522682777E+03   -0.10091E+00   -0.25752E-02  2986   0.307E-01    0.718E+00
RMM:  14    -0.646383675785E+03    0.13901E+00   -0.26186E-02  2984   0.370E-01    0.738E+00
RMM:  15    -0.646372496930E+03    0.11179E-01   -0.44737E-03  3159   0.890E-02    0.634E+00
RMM:  16    -0.646397577998E+03   -0.25081E-01   -0.15280E-02  2945   0.236E-01    0.606E+00
RMM:  17    -0.646419376164E+03   -0.21798E-01   -0.56880E-02  2957   0.357E-01    0.409E+00
RMM:  18    -0.646492470903E+03   -0.73095E-01   -0.54737E-02  2978   0.303E-01    0.406E+00
RMM:  19    -0.646469199867E+03    0.23271E-01   -0.26038E-02  3146   0.182E-01    0.314E+00
RMM:  20    -0.646457211665E+03    0.11988E-01   -0.69341E-03  3223   0.111E-01    0.294E+00
RMM:  21    -0.646462993148E+03   -0.57815E-02   -0.15120E-03  2909   0.574E-02    0.293E+00
RMM:  22    -0.646431263507E+03    0.31730E-01   -0.17682E-02  2953   0.217E-01    0.254E+00
RMM:  23    -0.646385486850E+03    0.45777E-01   -0.25130E-02  2968   0.229E-01    0.185E+00
RMM:  24    -0.646392910917E+03   -0.74241E-02   -0.63342E-03  3041   0.177E-01    0.187E+00
RMM:  25    -0.646405793231E+03   -0.12882E-01   -0.17589E-02  2986   0.212E-01    0.173E+00
RMM:  26    -0.646452723113E+03   -0.46930E-01   -0.10537E-02  3008   0.176E-01    0.371E+00
RMM:  27    -0.646465976154E+03   -0.13253E-01   -0.42023E-03  2997   0.137E-01    0.455E+00
RMM:  28    -0.646524377684E+03   -0.58402E-01   -0.99007E-03  2975   0.144E-01    0.515E+00
RMM:  29    -0.646578305097E+03   -0.53927E-01   -0.16354E-02  2994   0.185E-01    0.512E+00
RMM:  30    -0.646582663059E+03   -0.43580E-02   -0.46221E-03  3254   0.606E-02    0.523E+00
RMM:  31    -0.646582687328E+03   -0.24269E-04   -0.59483E-04  2508   0.245E-02    0.530E+00
RMM:  32    -0.646585040152E+03   -0.23528E-02   -0.77519E-04  2819   0.415E-02    0.525E+00
RMM:  33    -0.646567595492E+03    0.17445E-01   -0.35332E-03  2943   0.107E-01    0.539E+00
RMM:  34    -0.646554385523E+03    0.13210E-01   -0.32997E-03  2951   0.896E-02    0.540E+00
RMM:  35    -0.646538260524E+03    0.16125E-01   -0.69370E-03  2983   0.109E-01    0.519E+00
RMM:  36    -0.646473358847E+03    0.64902E-01   -0.16327E-02  3013   0.168E-01    0.393E+00
RMM:  37    -0.646500780657E+03   -0.27422E-01   -0.95995E-03  2976   0.171E-01    0.289E+00
RMM:  38    -0.646531020749E+03   -0.30240E-01   -0.99138E-03  2956   0.152E-01    0.273E+00
RMM:  39    -0.646519210634E+03    0.11810E-01   -0.27716E-03  2940   0.857E-02    0.269E+00
RMM:  40    -0.646534914363E+03   -0.15704E-01   -0.11528E-02  2959   0.176E-01    0.219E+00
RMM:  41    -0.646530165112E+03    0.47493E-02   -0.10920E-02  3010   0.139E-01    0.202E+00
RMM:  42    -0.646527414994E+03    0.27501E-02   -0.49285E-03  3057   0.828E-02    0.203E+00
RMM:  43    -0.646536146080E+03   -0.87311E-02   -0.41825E-03  2961   0.873E-02    0.215E+00
RMM:  44    -0.646537651432E+03   -0.15054E-02   -0.21645E-03  2958   0.603E-02    0.224E+00
RMM:  45    -0.646538990100E+03   -0.13387E-02   -0.39107E-03  2981   0.879E-02    0.197E+00
RMM:  46    -0.646543401952E+03   -0.44119E-02   -0.20521E-03  2971   0.591E-02    0.192E+00
RMM:  47    -0.646548828505E+03   -0.54266E-02   -0.68541E-04  2727   0.387E-02    0.195E+00
RMM:  48    -0.646549249971E+03   -0.42147E-03   -0.51055E-04  2370   0.290E-02    0.195E+00
RMM:  49    -0.646546860704E+03    0.23893E-02   -0.10207E-03  2864   0.412E-02    0.187E+00
RMM:  50    -0.646544932768E+03    0.19279E-02   -0.10328E-03  2933   0.410E-02
   1 F= -.65294135E+03 E0= -.65292284E+03  d E =-.652941E+03  mag=    -0.3091
 Constraining cell:  1  0  0  |  1  1  0  |  0  0  0
 curvature:   0.00 expect dE= 0.000E+00 dE for cont linesearch  0.000E+00
 trial: gam= 0.00000 g(F)=  0.147E+00 g(S)=  0.142E-01 ort = 0.000E+00 (trialstep = 0.100E+01)
 search vector abs. value=  0.161E+00
 bond charge predicted
       N       E                     dE             d eps       ncg     rms          rms(c)
DAV:   1    -0.646560338070E+03   -0.13477E-01   -0.11595E+01  3216   0.994E+00    0.212E+00
RMM:   2    -0.646641889876E+03   -0.81552E-01   -0.44385E-01  3021   0.162E+00    0.222E+00
RMM:   3    -0.646641313184E+03    0.57669E-03   -0.71297E-02  3227   0.473E-01    0.252E+00
RMM:   4    -0.646610687943E+03    0.30625E-01   -0.28877E-02  3248   0.237E-01    0.204E+00
RMM:   5    -0.646584470425E+03    0.26218E-01   -0.25424E-02  2983   0.190E-01    0.216E+00
RMM:   6    -0.646589830404E+03   -0.53600E-02   -0.74777E-03  2998   0.125E-01    0.213E+00
RMM:   7    -0.646561234057E+03    0.28596E-01   -0.10863E-01  2976   0.460E-01    0.215E+00
RMM:   8    -0.646635545134E+03   -0.74311E-01   -0.18897E-02  3021   0.211E-01    0.182E+00
RMM:   9    -0.646386692358E+03    0.24885E+00   -0.10170E+00  2971   0.147E+00    0.141E+00
RMM:  10    -0.646258401006E+03    0.12829E+00   -0.23701E-01  3116   0.622E-01    0.188E+00
RMM:  11    -0.646252738625E+03    0.56624E-02   -0.49895E-02  3725   0.217E-01    0.196E+00
RMM:  12    -0.646438484564E+03   -0.18575E+00   -0.28013E-02  2996   0.226E-01    0.178E+00
RMM:  13    -0.645891277099E+03    0.54721E+00   -0.12880E-01  2956   0.514E-01    0.293E+00
RMM:  14    -0.646101970438E+03   -0.21069E+00   -0.23183E-02  2996   0.243E-01    0.222E+00
RMM:  15    -0.646826965338E+03   -0.72499E+00   -0.50732E-01  2965   0.860E-01    0.546E-01
RMM:  16    -0.646898411162E+03   -0.71446E-01   -0.77089E-02  2994   0.328E-01    0.970E-01
RMM:  17    -0.646924303637E+03   -0.25892E-01   -0.26975E-02  2976   0.247E-01    0.263E-01
RMM:  18    -0.646955047118E+03   -0.30743E-01   -0.71548E-03  3006   0.112E-01    0.242E-01
RMM:  19    -0.646967581731E+03   -0.12535E-01   -0.21136E-03  3022   0.553E-02    0.222E-01
RMM:  20    -0.646981848626E+03   -0.14267E-01   -0.15121E-03  2827   0.473E-02    0.966E-02
RMM:  21    -0.646988949037E+03   -0.71004E-02   -0.85633E-04  2443   0.364E-02    0.624E-02
RMM:  22    -0.646992788734E+03   -0.38397E-02   -0.52648E-04  2274   0.231E-02    0.541E-02
RMM:  23    -0.646993283867E+03   -0.49513E-03   -0.12419E-04  2251   0.129E-02    0.286E-02
RMM:  24    -0.646993491983E+03   -0.20812E-03   -0.51579E-05  1997   0.936E-03    0.420E-02
RMM:  25    -0.646993843735E+03   -0.35175E-03   -0.83655E-05  2145   0.126E-02    0.827E-03
RMM:  26    -0.646993913736E+03   -0.70002E-04   -0.19656E-05  1780   0.528E-03    0.756E-03
RMM:  27    -0.646993994077E+03   -0.80341E-04   -0.10934E-05  1282   0.330E-03    0.731E-03
RMM:  28    -0.646994068912E+03   -0.74835E-04   -0.10262E-05  1515   0.366E-03    0.743E-03
RMM:  29    -0.646994097042E+03   -0.28131E-04   -0.53694E-06  1068   0.250E-03    0.307E-03
RMM:  30    -0.646994111505E+03   -0.14462E-04   -0.16612E-06  1048   0.202E-03    0.216E-03
RMM:  31    -0.646994122462E+03   -0.10958E-04   -0.13402E-06   943   0.174E-03    0.210E-03
RMM:  32    -0.646994126189E+03   -0.37265E-05   -0.39150E-07   685   0.141E-03
   2 F= -.65339747E+03 E0= -.65337900E+03  d E =-.456124E+00  mag=    -1.6620
 Constraining cell:  1  0  0  |  1  1  0  |  0  0  0
 trial-energy change:   -0.456124  1 .order   -0.015072   -0.161480    0.131336
 step:   0.9534(harm=  0.5515)  dis= 0.01383  next Energy=  -653.400490 (dE=-0.459E+00)
 bond charge predicted
       N       E                     dE             d eps       ncg     rms          rms(c)
DAV:   1    -0.647000240552E+03   -0.61181E-02   -0.25219E-02  3376   0.463E-01    0.542E-02
RMM:   2    -0.647000217459E+03    0.23093E-04   -0.87060E-04  3097   0.733E-02    0.303E-02
RMM:   3    -0.647000132618E+03    0.84842E-04   -0.72752E-05  2355   0.183E-02    0.280E-02
RMM:   4    -0.647000101716E+03    0.30901E-04   -0.38185E-05  1902   0.132E-02    0.220E-02
RMM:   5    -0.647000099586E+03    0.21302E-05   -0.11278E-05  1827   0.819E-03
   3 F= -.65340316E+03 E0= -.65338474E+03  d E =-.461809E+00  mag=    -1.6725
 Constraining cell:  1  0  0  |  1  1  0  |  0  0  0
 curvature:  -0.05 expect dE=-0.113E-01 dE for cont linesearch -0.487E-02
 ZBRENT: interpolating
 opt :   0.5464  next Energy=  -653.427624 (dE=-0.486E+00)
 bond charge predicted
       N       E                     dE             d eps       ncg     rms          rms(c)
DAV:   1    -0.647028714829E+03   -0.28613E-01   -0.19209E+00  3200   0.404E+00    0.464E-01
RMM:   2    -0.647031084532E+03   -0.23697E-02   -0.65017E-02  3082   0.637E-01    0.262E-01
RMM:   3    -0.647027941312E+03    0.31432E-02   -0.54422E-03  3242   0.156E-01    0.225E-01
RMM:   4    -0.647027150078E+03    0.79123E-03   -0.26714E-03  3110   0.955E-02    0.199E-01
RMM:   5    -0.647027246140E+03   -0.96062E-04   -0.73210E-04  3052   0.478E-02    0.687E-02
RMM:   6    -0.647028693846E+03   -0.14477E-02   -0.12784E-04  2671   0.216E-02    0.244E-02
RMM:   7    -0.647030072917E+03   -0.13791E-02   -0.62498E-05  2085   0.114E-02    0.116E-02
RMM:   8    -0.647030870717E+03   -0.79780E-03   -0.31825E-05  1952   0.697E-03    0.723E-03
RMM:   9    -0.647031476891E+03   -0.60617E-03   -0.28828E-05  1965   0.560E-03    0.350E-03
RMM:  10    -0.647031684895E+03   -0.20800E-03   -0.13373E-05  1388   0.359E-03    0.229E-03
RMM:  11    -0.647031742854E+03   -0.57959E-04   -0.39726E-06  1192   0.261E-03    0.115E-03
RMM:  12    -0.647031758140E+03   -0.15286E-04   -0.24039E-06  1139   0.225E-03    0.623E-04
RMM:  13    -0.647031770236E+03   -0.12096E-04   -0.80520E-07   891   0.176E-03    0.456E-04
RMM:  14    -0.647031781323E+03   -0.11087E-04   -0.49381E-07   750   0.162E-03    0.320E-04
RMM:  15    -0.647031790138E+03   -0.88158E-05   -0.65977E-07   798   0.167E-03
   4 F= -.65343218E+03 E0= -.65341489E+03  d E =-.490833E+00  mag=    -1.7915
 Constraining cell:  1  0  0  |  1  1  0  |  0  0  0
 curvature:  -0.27 expect dE=-0.121E-01 dE for cont linesearch -0.791E-03
 ZBRENT: interpolating
 opt :   0.4678  next Energy=  -653.433131 (dE=-0.492E+00)
 bond charge predicted
       N       E                     dE             d eps       ncg     rms          rms(c)
DAV:   1    -0.647033186026E+03   -0.14047E-02   -0.71815E-02  3360   0.780E-01    0.891E-02
RMM:   2    -0.647033204181E+03   -0.18156E-04   -0.24070E-03  3091   0.123E-01    0.503E-02
RMM:   3    -0.647033069440E+03    0.13474E-03   -0.21110E-04  3178   0.308E-02    0.514E-02
RMM:   4    -0.647033004261E+03    0.65179E-04   -0.89068E-05  2088   0.179E-02    0.317E-02
RMM:   5    -0.647032999071E+03    0.51900E-05   -0.22750E-05  1903   0.106E-02
   5 F= -.65343284E+03 E0= -.65341587E+03  d E =-.491496E+00  mag=    -1.8057
 Constraining cell:  1  0  0  |  1  1  0  |  0  0  0
 curvature:  -0.33 expect dE=-0.108E-01 dE for cont linesearch -0.162E-04
 trial: gam= 0.22185 g(F)=  0.327E-01 g(S)=  0.299E-03 ort =-0.282E-02 (trialstep = 0.894E+00)
 search vector abs. value=  0.397E-01
 bond charge predicted
       N       E                     dE             d eps       ncg     rms          rms(c)
DAV:   1    -0.647036951196E+03   -0.39469E-02   -0.19824E+00  3240   0.436E+00    0.464E-01
RMM:   2    -0.647046616989E+03   -0.96658E-02   -0.87139E-02  3030   0.686E-01    0.674E-01
RMM:   3    -0.647042349427E+03    0.42676E-02   -0.10744E-02  3299   0.196E-01    0.269E-01
RMM:   4    -0.647041621669E+03    0.72776E-03   -0.14041E-03  3146   0.777E-02    0.132E-01
RMM:   5    -0.647041455026E+03    0.16664E-03   -0.71297E-04  2963   0.547E-02    0.485E-02
RMM:   6    -0.647041519447E+03   -0.64421E-04   -0.68126E-05  2265   0.198E-02    0.225E-02
RMM:   7    -0.647041586564E+03   -0.67117E-04   -0.17397E-05  1814   0.939E-03    0.113E-02
RMM:   8    -0.647041629673E+03   -0.43109E-04   -0.59947E-06  1780   0.550E-03    0.646E-03
RMM:   9    -0.647041661861E+03   -0.32188E-04   -0.36638E-06  1768   0.403E-03    0.250E-03
RMM:  10    -0.647041666777E+03   -0.49159E-05   -0.86498E-07  1348   0.248E-03
   6 F= -.65344324E+03 E0= -.65342653E+03  d E =-.103921E-01  mag=    -1.8203
 Constraining cell:  1  0  0  |  1  1  0  |  0  0  0
 trial-energy change:   -0.010392  1 .order   -0.009980   -0.028930    0.008971
 step:   0.6922(harm=  0.6821)  dis= 0.00696  next Energy=  -653.444242 (dE=-0.114E-01)
 bond charge predicted
       N       E                     dE             d eps       ncg     rms          rms(c)
DAV:   1    -0.647042840434E+03   -0.11786E-02   -0.10064E-01  3400   0.982E-01    0.104E-01
RMM:   2    -0.647043314967E+03   -0.47453E-03   -0.44470E-03  3033   0.155E-01    0.151E-01
RMM:   3    -0.647043106097E+03    0.20887E-03   -0.54143E-04  3097   0.441E-02    0.600E-02
RMM:   4    -0.647043074720E+03    0.31376E-04   -0.67305E-05  2311   0.176E-02    0.305E-02
RMM:   5    -0.647043061393E+03    0.13327E-04   -0.39389E-05  2088   0.136E-02    0.112E-02
RMM:   6    -0.647043068302E+03   -0.69087E-05   -0.46170E-06  1739   0.625E-03
   7 F= -.65344428E+03 E0= -.65342751E+03  d E =-.114384E-01  mag=    -1.8185
 Constraining cell:  1  0  0  |  1  1  0  |  0  0  0
 curvature:  -0.42 expect dE=-0.412E-02 dE for cont linesearch -0.174E-05
 trial: gam= 0.27852 g(F)=  0.844E-02 g(S)=  0.143E-02 ort =-0.406E-03 (trialstep = 0.853E+00)
 search vector abs. value=  0.127E-01
 bond charge predicted
       N       E                     dE             d eps       ncg     rms          rms(c)
DAV:   1    -0.647046719630E+03   -0.36582E-02   -0.61605E-01  3360   0.241E+00    0.245E-01
RMM:   2    -0.647049080602E+03   -0.23610E-02   -0.23335E-02  3045   0.352E-01    0.314E-01
RMM:   3    -0.647048120309E+03    0.96029E-03   -0.29391E-03  3231   0.108E-01    0.163E-01
RMM:   4    -0.647047864079E+03    0.25623E-03   -0.42278E-04  3068   0.424E-02    0.768E-02
RMM:   5    -0.647047790703E+03    0.73377E-04   -0.18835E-04  2945   0.292E-02    0.277E-02
RMM:   6    -0.647047815130E+03   -0.24427E-04   -0.16492E-05  1840   0.103E-02    0.957E-03
RMM:   7    -0.647047838092E+03   -0.22962E-04   -0.42096E-06  1768   0.519E-03    0.462E-03
RMM:   8    -0.647047854635E+03   -0.16543E-04   -0.17694E-06  1728   0.321E-03    0.257E-03
RMM:   9    -0.647047867917E+03   -0.13282E-04   -0.74140E-07  1132   0.211E-03    0.112E-03
RMM:  10    -0.647047874982E+03   -0.70649E-05   -0.41646E-07   866   0.178E-03
   8 F= -.65344817E+03 E0= -.65343128E+03  d E =-.388459E-02  mag=    -1.8113
 Constraining cell:  1  0  0  |  1  1  0  |  0  0  0
 trial-energy change:   -0.003885  1 .order   -0.003887   -0.008325    0.000552
 step:   0.8003(harm=  0.8003)  dis= 0.00403  next Energy=  -653.448186 (dE=-0.390E-02)
 bond charge predicted
       N       E                     dE             d eps       ncg     rms          rms(c)
DAV:   1    -0.647047828807E+03    0.39111E-04   -0.23617E-03  3392   0.150E-01    0.153E-02
RMM:   2    -0.647047839363E+03   -0.10556E-04   -0.86942E-05  2445   0.219E-02    0.193E-02
RMM:   3    -0.647047837039E+03    0.23238E-05   -0.11310E-05  1765   0.793E-03
   9 F= -.65344819E+03 E0= -.65343131E+03  d E =-.390661E-02  mag=    -1.8114
 Constraining cell:  1  0  0  |  1  1  0  |  0  0  0
 curvature:  -0.52 expect dE=-0.201E-02 dE for cont linesearch -0.304E-07
 trial: gam= 0.38731 g(F)=  0.381E-02 g(S)=  0.311E-04 ort =-0.272E-04 (trialstep = 0.843E+00)
 search vector abs. value=  0.573E-02
 bond charge predicted
       N       E                     dE             d eps       ncg     rms          rms(c)
DAV:   1    -0.647048865444E+03   -0.10261E-02   -0.27427E-01  3256   0.159E+00    0.129E-01
RMM:   2    -0.647049554523E+03   -0.68908E-03   -0.84870E-03  2964   0.214E-01    0.897E-02
RMM:   3    -0.647049466537E+03    0.87986E-04   -0.65840E-04  3257   0.548E-02    0.972E-02
RMM:   4    -0.647049377822E+03    0.88714E-04   -0.19924E-04  2859   0.268E-02    0.425E-02
RMM:   5    -0.647049361164E+03    0.16659E-04   -0.55578E-05  2429   0.156E-02    0.148E-02
RMM:   6    -0.647049367194E+03   -0.60307E-05   -0.57080E-06  1755   0.654E-03
  10 F= -.65344952E+03 E0= -.65343269E+03  d E =-.133591E-02  mag=    -1.8144
 Constraining cell:  1  0  0  |  1  1  0  |  0  0  0
 trial-energy change:   -0.001336  1 .order   -0.001360   -0.003231    0.000511
 step:   0.7276(harm=  0.7276)  dis= 0.00241  next Energy=  -653.449584 (dE=-0.140E-02)
 bond charge predicted
       N       E                     dE             d eps       ncg     rms          rms(c)
DAV:   1    -0.647049373364E+03   -0.12200E-04   -0.51178E-03  3368   0.217E-01    0.170E-02
RMM:   2    -0.647049389431E+03   -0.16067E-04   -0.15192E-04  2815   0.287E-02    0.117E-02
RMM:   3    -0.647049390390E+03   -0.95879E-06   -0.10227E-05  1762   0.779E-03
  11 F= -.65344958E+03 E0= -.65343274E+03  d E =-.138754E-02  mag=    -1.8145
 Constraining cell:  1  0  0  |  1  1  0  |  0  0  0
 curvature:  -0.54 expect dE=-0.955E-03 dE for cont linesearch -0.148E-06
 trial: gam= 0.46876 g(F)=  0.157E-02 g(S)=  0.183E-03 ort =-0.395E-04 (trialstep = 0.820E+00)
 search vector abs. value=  0.298E-02
 bond charge predicted
       N       E                     dE             d eps       ncg     rms          rms(c)
DAV:   1    -0.647049595864E+03   -0.20643E-03   -0.13204E-01  3272   0.114E+00    0.107E-01
RMM:   2    -0.647050116607E+03   -0.52074E-03   -0.53408E-03  2984   0.158E-01    0.128E-01
RMM:   3    -0.647049935019E+03    0.18159E-03   -0.57559E-04  3236   0.463E-02    0.690E-02
RMM:   4    -0.647049886644E+03    0.48375E-04   -0.79906E-05  2438   0.188E-02    0.298E-02
RMM:   5    -0.647049879398E+03    0.72460E-05   -0.35019E-05  1978   0.130E-02
  12 F= -.65345027E+03 E0= -.65343348E+03  d E =-.689917E-03  mag=    -1.8135
 Constraining cell:  1  0  0  |  1  1  0  |  0  0  0
 trial-energy change:   -0.000690  1 .order   -0.000718   -0.001425   -0.000012
 step:   0.8266(harm=  0.8266)  dis= 0.00161  next Energy=  -653.450295 (dE=-0.718E-03)
 reached required accuracy - stopping structural energy minimisation
