       N       E                     dE             d eps       ncg     rms          ort
DAV:   1     0.252362278131E+04    0.25236E+04   -0.11654E+05   768   0.110E+03
DAV:   2    -0.242730266646E+03   -0.27664E+04   -0.26420E+04   768   0.279E+02
DAV:   3    -0.702571195232E+03   -0.45984E+03   -0.45644E+03   768   0.120E+02
DAV:   4    -0.719165964871E+03   -0.16595E+02   -0.16451E+02   768   0.280E+01
DAV:   5    -0.719703141659E+03   -0.53718E+00   -0.53543E+00   768   0.421E+00
SDA:   6    -0.550091402440E+03    0.16961E+03   -0.53543E+00   768   0.504E+03 0.000E+00
CGA:   7    -0.601854082597E+03   -0.51763E+02   -0.25067E+02   768   0.343E+03 0.476E+03
CGA:   8    -0.637462030127E+03   -0.35608E+02   -0.15554E+02   768   0.162E+03 0.288E+03
CGA:   9    -0.651489046534E+03   -0.14027E+02   -0.85450E+01   768   0.355E+02 0.402E+02
CGA:  10    -0.658094498591E+03   -0.66055E+01   -0.65723E+01   768   0.314E+02-0.565E+00
CGA:  11    -0.660383938183E+03   -0.22894E+01   -0.22474E+01   768   0.800E+01 0.877E+00
CGA:  12    -0.661102701738E+03   -0.71876E+00   -0.70966E+00   768   0.616E+01 0.512E-01
CGA:  13    -0.661913729729E+03   -0.81103E+00   -0.71492E+00   768   0.290E+01 0.614E+00
CGA:  14    -0.662047315979E+03   -0.13359E+00   -0.10971E+00   768   0.144E+01 0.557E+00
CGA:  15    -0.662166667262E+03   -0.11935E+00   -0.11466E+00   768   0.237E+01 0.461E-01
CGA:  16    -0.662275680632E+03   -0.10901E+00   -0.86208E-01   768   0.229E+01 0.694E+00
CGA:  17    -0.662381161187E+03   -0.10548E+00   -0.77390E-01   768   0.108E+01 0.113E+01
CGA:  18    -0.662445425317E+03   -0.64264E-01   -0.61519E-01   768   0.512E+00 0.995E-01
CGA:  19    -0.662498626770E+03   -0.53201E-01   -0.54479E-01   768   0.932E+00 0.748E-02
CGA:  20    -0.662525206704E+03   -0.26580E-01   -0.15299E-01   768   0.768E+00 0.684E+00
CGA:  21    -0.662582901268E+03   -0.57695E-01   -0.59027E-01   768   0.239E+00-0.233E-02
CGA:  22    -0.662639683399E+03   -0.56782E-01   -0.50198E-01   768   0.506E-01 0.607E-01
CGA:  23    -0.662657596371E+03   -0.17913E-01   -0.16219E-01   768   0.867E-01 0.121E-01
CGA:  24    -0.662678254167E+03   -0.20658E-01   -0.20772E-01   768   0.481E-01-0.171E-02
CGA:  25    -0.662688921376E+03   -0.10667E-01   -0.10609E-01   768   0.342E-01 0.313E-03
CGA:  26    -0.662695146533E+03   -0.62252E-02   -0.62424E-02   768   0.197E-01-0.210E-03
CGA:  27    -0.662699204125E+03   -0.40576E-02   -0.39736E-02   768   0.105E-01 0.976E-03
CGA:  28    -0.662701516820E+03   -0.23127E-02   -0.23173E-02   768   0.912E-02-0.190E-04
CGA:  29    -0.662703471154E+03   -0.19543E-02   -0.19332E-02   768   0.530E-02 0.211E-03
CGA:  30    -0.662704980325E+03   -0.15092E-02   -0.15180E-02   768   0.561E-02-0.345E-04
CGA:  31    -0.662705922553E+03   -0.94223E-03   -0.94070E-03   768   0.226E-02 0.895E-04
CGA:  32    -0.662706583830E+03   -0.66128E-03   -0.66298E-03   768   0.155E-02-0.485E-06
CGA:  33    -0.662706804780E+03   -0.22095E-03   -0.22201E-03   768   0.678E-03 0.199E-04
CGA:  34    -0.662707097210E+03   -0.29243E-03   -0.25571E-03   768   0.585E-03 0.177E-03
CGA:  35    -0.662707217774E+03   -0.12056E-03   -0.11214E-03   768   0.450E-03-0.102E-03
CGA:  36    -0.662707246280E+03   -0.28506E-04   -0.23324E-04   768   0.349E-03 0.649E-04
   1 F= -.66924227E+03 E0= -.66922295E+03  d E =-.669242E+03  mag=     1.5272
       N       E                     dE             d eps       ncg     rms          ort
SDA:   1    -0.661587543901E+03    0.11197E+01    0.00000E+00   768   0.374E+01 0.000E+00
CGA:   2    -0.662110742520E+03   -0.52320E+00   -0.52411E+00   768   0.166E+01 0.120E-01
CGA:   3    -0.662422205824E+03   -0.31146E+00   -0.31231E+00   768   0.111E+01-0.261E-01
CGA:   4    -0.662613064589E+03   -0.19086E+00   -0.19062E+00   768   0.394E+00 0.133E-01
CGA:   5    -0.662682006266E+03   -0.68942E-01   -0.68965E-01   768   0.139E+00-0.139E-02
CGA:   6    -0.662706316604E+03   -0.24310E-01   -0.24293E-01   768   0.629E-01 0.978E-03
CGA:   7    -0.662717427292E+03   -0.11111E-01   -0.11115E-01   768   0.322E-01-0.248E-03
CGA:   8    -0.662723012669E+03   -0.55854E-02   -0.55837E-02   768   0.121E-01 0.129E-03
CGA:   9    -0.662725376578E+03   -0.23639E-02   -0.23648E-02   768   0.435E-02-0.166E-04
CGA:  10    -0.662726102430E+03   -0.72585E-03   -0.72587E-03   768   0.176E-02 0.132E-04
CGA:  11    -0.662726393119E+03   -0.29069E-03   -0.29069E-03   768   0.627E-03-0.163E-06
CGA:  12    -0.662726520107E+03   -0.12699E-03   -0.12694E-03   768   0.263E-03 0.133E-05
CGA:  13    -0.662726567943E+03   -0.47835E-04   -0.47852E-04   768   0.154E-03-0.141E-05
   2 F= -.66926138E+03 E0= -.66924415E+03  d E =-.191056E-01  mag=     1.4871
       N       E                     dE             d eps       ncg     rms          ort
SDA:   1    -0.662653739246E+03    0.72781E-01    0.00000E+00   768   0.243E+00 0.000E+00
CGA:   2    -0.662688931844E+03   -0.35193E-01   -0.35179E-01   768   0.109E+00-0.194E-03
CGA:   3    -0.662709587781E+03   -0.20656E-01   -0.20646E-01   768   0.686E-01 0.308E-03
CGA:   4    -0.662721765321E+03   -0.12178E-01   -0.12180E-01   768   0.271E-01-0.233E-03
CGA:   5    -0.662726209289E+03   -0.44440E-02   -0.44443E-02   768   0.940E-02 0.164E-04
CGA:   6    -0.662727832959E+03   -0.16237E-02   -0.16237E-02   768   0.443E-02-0.130E-04
CGA:   7    -0.662728595857E+03   -0.76290E-03   -0.76289E-03   768   0.206E-02 0.380E-05
CGA:   8    -0.662728969807E+03   -0.37395E-03   -0.37405E-03   768   0.814E-03-0.830E-05
CGA:   9    -0.662729119591E+03   -0.14978E-03   -0.14983E-03   768   0.313E-03-0.365E-05
CGA:  10    -0.662729169849E+03   -0.50258E-04   -0.50226E-04   768   0.115E-03-0.279E-05
   3 F= -.66926404E+03 E0= -.66924638E+03  d E =-.217688E-01  mag=     1.4933
       N       E                     dE             d eps       ncg     rms          ort
SDA:   1    -0.662497959624E+03    0.23116E+00    0.00000E+00   768   0.876E+00 0.000E+00
CGA:   2    -0.662610918958E+03   -0.11296E+00   -0.11316E+00   768   0.336E+00 0.863E-03
CGA:   3    -0.662675133994E+03   -0.64215E-01   -0.64311E-01   768   0.241E+00-0.304E-02
CGA:   4    -0.662720288237E+03   -0.45154E-01   -0.45096E-01   768   0.104E+00 0.201E-02
CGA:   5    -0.662738894196E+03   -0.18606E-01   -0.18610E-01   768   0.375E-01-0.302E-03
CGA:   6    -0.662745003034E+03   -0.61088E-02   -0.61106E-02   768   0.145E-01 0.108E-03
CGA:   7    -0.662747432360E+03   -0.24293E-02   -0.24292E-02   768   0.678E-02-0.105E-04
CGA:   8    -0.662748626269E+03   -0.11939E-02   -0.11938E-02   768   0.259E-02 0.225E-04
CGA:   9    -0.662749115661E+03   -0.48939E-03   -0.48934E-03   768   0.939E-03 0.437E-05
CGA:  10    -0.662749267756E+03   -0.15210E-03   -0.15214E-03   768   0.365E-03 0.369E-05
CGA:  11    -0.662749329845E+03   -0.62090E-04   -0.62088E-04   768   0.134E-03-0.491E-06
   4 F= -.66928386E+03 E0= -.66926715E+03  d E =-.198184E-01  mag=     1.4737
       N       E                     dE             d eps       ncg     rms          ort
SDA:   1    -0.660528541694E+03    0.22207E+01    0.00000E+00   768   0.814E+01 0.000E+00
CGA:   2    -0.661535753942E+03   -0.10072E+01   -0.10146E+01   768   0.308E+01 0.317E-02
CGA:   3    -0.662110806440E+03   -0.57505E+00   -0.57723E+00   768   0.227E+01-0.928E-01
CGA:   4    -0.662531252047E+03   -0.42045E+00   -0.41885E+00   768   0.880E+00 0.538E-01
CGA:   5    -0.662701650846E+03   -0.17040E+00   -0.17057E+00   768   0.311E+00-0.597E-02
CGA:   6    -0.662755842303E+03   -0.54191E-01   -0.54181E-01   768   0.115E+00 0.269E-02
CGA:   7    -0.662776414431E+03   -0.20572E-01   -0.20576E-01   768   0.609E-01-0.467E-03
CGA:   8    -0.662786219981E+03   -0.98056E-02   -0.98111E-02   768   0.226E-01 0.247E-03
CGA:   9    -0.662790624959E+03   -0.44050E-02   -0.44069E-02   768   0.722E-02-0.525E-04
CGA:  10    -0.662791975844E+03   -0.13509E-02   -0.13505E-02   768   0.293E-02 0.196E-04
CGA:  11    -0.662792452796E+03   -0.47695E-03   -0.47687E-03   768   0.132E-02-0.482E-05
CGA:  12    -0.662792712073E+03   -0.25928E-03   -0.25929E-03   768   0.543E-03-0.718E-06
CGA:  13    -0.662792846926E+03   -0.13485E-03   -0.13513E-03   768   0.426E-03-0.379E-05
CGA:  14    -0.662792924853E+03   -0.77927E-04   -0.77927E-04   768   0.283E-03 0.117E-06
   5 F= -.66932681E+03 E0= -.66931315E+03  d E =-.627711E-01  mag=     1.4244
       N       E                     dE             d eps       ncg     rms          ort
SDA:   1    -0.653682159239E+03    0.91107E+01    0.00000E+00   768   0.348E+02 0.000E+00
CGA:   2    -0.657688581940E+03   -0.40064E+01   -0.40871E+01   768   0.129E+02-0.295E+00
CGA:   3    -0.660004570752E+03   -0.23160E+01   -0.23173E+01   768   0.933E+01-0.707E+00
CGA:   4    -0.661747683352E+03   -0.17431E+01   -0.17335E+01   768   0.325E+01 0.375E+00
CGA:   5    -0.662429580154E+03   -0.68190E+00   -0.68179E+00   768   0.113E+01 0.641E-02
CGA:   6    -0.662645182945E+03   -0.21560E+00   -0.21558E+00   768   0.404E+00 0.247E-02
CGA:   7    -0.662732838321E+03   -0.87655E-01   -0.87535E-01   768   0.167E+00 0.256E-02
CGA:   8    -0.662768084587E+03   -0.35246E-01   -0.35298E-01   768   0.723E-01-0.127E-02
CGA:   9    -0.662779807175E+03   -0.11723E-01   -0.11736E-01   768   0.301E-01 0.262E-03
CGA:  10    -0.662784481405E+03   -0.46742E-02   -0.46689E-02   768   0.999E-02-0.600E-04
CGA:  11    -0.662786727939E+03   -0.22465E-02   -0.22458E-02   768   0.362E-02 0.129E-04
CGA:  12    -0.662787596433E+03   -0.86849E-03   -0.86952E-03   768   0.253E-02-0.169E-04
CGA:  13    -0.662788016061E+03   -0.41963E-03   -0.41951E-03   768   0.151E-02-0.248E-05
CGA:  14    -0.662788410311E+03   -0.39425E-03   -0.39466E-03   768   0.835E-03-0.559E-05
CGA:  15    -0.662788648381E+03   -0.23807E-03   -0.23808E-03   768   0.793E-03 0.605E-06
CGA:  16    -0.662788779874E+03   -0.13149E-03   -0.13146E-03   768   0.382E-03-0.119E-05
CGA:  17    -0.662788882436E+03   -0.10256E-03   -0.10249E-03   768   0.184E-03 0.127E-05
CGA:  18    -0.662788925284E+03   -0.42848E-04   -0.42876E-04   768   0.160E-03-0.947E-06
   6 F= -.66932444E+03 E0= -.66931326E+03  d E =-.603966E-01  mag=     1.4207
       N       E                     dE             d eps       ncg     rms          ort
SDA:   1    -0.660005538913E+03    0.27833E+01    0.00000E+00   768   0.946E+01 0.000E+00
CGA:   2    -0.661310581707E+03   -0.13050E+01   -0.13025E+01   768   0.359E+01-0.338E-01
CGA:   3    -0.662032768473E+03   -0.72219E+00   -0.72180E+00   768   0.248E+01 0.228E-01
CGA:   4    -0.662505875674E+03   -0.47311E+00   -0.47263E+00   768   0.114E+01-0.406E-01
CGA:   5    -0.662697604209E+03   -0.19173E+00   -0.19208E+00   768   0.368E+00 0.403E-02
CGA:   6    -0.662763530846E+03   -0.65927E-01   -0.65830E-01   768   0.148E+00-0.292E-02
CGA:   7    -0.662788512871E+03   -0.24982E-01   -0.25008E-01   768   0.671E-01 0.389E-03
CGA:   8    -0.662800167803E+03   -0.11655E-01   -0.11642E-01   768   0.275E-01-0.312E-03
CGA:   9    -0.662805141760E+03   -0.49740E-02   -0.49749E-02   768   0.839E-02 0.398E-04
CGA:  10    -0.662806667747E+03   -0.15260E-02   -0.15256E-02   768   0.318E-02-0.245E-04
CGA:  11    -0.662807181268E+03   -0.51352E-03   -0.51361E-03   768   0.125E-02 0.111E-05
CGA:  12    -0.662807416913E+03   -0.23564E-03   -0.23564E-03   768   0.481E-03-0.854E-06
CGA:  13    -0.662807520018E+03   -0.10311E-03   -0.10305E-03   768   0.293E-03 0.245E-05
CGA:  14    -0.662807575283E+03   -0.55265E-04   -0.55267E-04   768   0.184E-03 0.579E-06
   7 F= -.66934175E+03 E0= -.66933006E+03  d E =-.777076E-01  mag=     1.4037
       N       E                     dE             d eps       ncg     rms          ort
SDA:   1    -0.662188322635E+03    0.61920E+00    0.00000E+00   768   0.219E+01 0.000E+00
CGA:   2    -0.662481732187E+03   -0.29341E+00   -0.29431E+00   768   0.957E+00-0.250E-03
CGA:   3    -0.662659651410E+03   -0.17792E+00   -0.17784E+00   768   0.617E+00-0.105E-01
CGA:   4    -0.662772278459E+03   -0.11263E+00   -0.11267E+00   768   0.225E+00 0.431E-02
CGA:   5    -0.662812932131E+03   -0.40654E-01   -0.40645E-01   768   0.751E-01-0.342E-03
CGA:   6    -0.662826689080E+03   -0.13757E-01   -0.13760E-01   768   0.331E-01 0.327E-03
CGA:   7    -0.662832560819E+03   -0.58717E-02   -0.58701E-02   768   0.170E-01-0.467E-04
CGA:   8    -0.662835484529E+03   -0.29237E-02   -0.29249E-02   768   0.668E-02 0.434E-04
CGA:   9    -0.662836753421E+03   -0.12689E-02   -0.12689E-02   768   0.207E-02-0.503E-05
CGA:  10    -0.662837122952E+03   -0.36953E-03   -0.36959E-03   768   0.822E-03 0.517E-05
CGA:  11    -0.662837253032E+03   -0.13008E-03   -0.13007E-03   768   0.302E-03 0.691E-07
CGA:  12    -0.662837310168E+03   -0.57136E-04   -0.57133E-04   768   0.105E-03 0.801E-06
   8 F= -.66937215E+03 E0= -.66935956E+03  d E =-.303980E-01  mag=     1.4034
       N       E                     dE             d eps       ncg     rms          ort
SDA:   1    -0.658173368279E+03    0.46639E+01    0.00000E+00   768   0.167E+02 0.000E+00
CGA:   2    -0.660239670335E+03   -0.20663E+01   -0.20807E+01   768   0.724E+01-0.708E-01
CGA:   3    -0.661527204166E+03   -0.12875E+01   -0.12857E+01   768   0.473E+01-0.206E+00
CGA:   4    -0.662386063198E+03   -0.85886E+00   -0.85827E+00   768   0.157E+01 0.105E+00
CGA:   5    -0.662687765124E+03   -0.30170E+00   -0.30176E+00   768   0.553E+00-0.476E-02
CGA:   6    -0.662788649709E+03   -0.10088E+00   -0.10089E+00   768   0.249E+00 0.704E-02
CGA:   7    -0.662831055741E+03   -0.42406E-01   -0.42364E-01   768   0.139E+00-0.104E-02
CGA:   8    -0.662853967681E+03   -0.22912E-01   -0.22928E-01   768   0.526E-01 0.482E-03
CGA:   9    -0.662864444849E+03   -0.10477E-01   -0.10483E-01   768   0.167E-01-0.230E-03
CGA:  10    -0.662867383830E+03   -0.29390E-02   -0.29393E-02   768   0.758E-02 0.319E-04
CGA:  11    -0.662868501238E+03   -0.11174E-02   -0.11169E-02   768   0.284E-02-0.610E-05
CGA:  12    -0.662869067222E+03   -0.56598E-03   -0.56600E-03   768   0.107E-02 0.286E-06
CGA:  13    -0.662869291576E+03   -0.22435E-03   -0.22445E-03   768   0.800E-03-0.380E-05
CGA:  14    -0.662869419476E+03   -0.12790E-03   -0.12785E-03   768   0.382E-03-0.103E-05
CGA:  15    -0.662869527083E+03   -0.10761E-03   -0.10771E-03   768   0.284E-03-0.131E-05
CGA:  16    -0.662869580546E+03   -0.53463E-04   -0.53463E-04   768   0.223E-03 0.628E-06
   9 F= -.66940711E+03 E0= -.66939041E+03  d E =-.653620E-01  mag=     1.4351
       N       E                     dE             d eps       ncg     rms          ort
SDA:   1    -0.662068709509E+03    0.80082E+00    0.00000E+00   768   0.248E+01 0.000E+00
CGA:   2    -0.662460322205E+03   -0.39161E+00   -0.39079E+00   768   0.183E+01-0.107E-01
CGA:   3    -0.662733127507E+03   -0.27281E+00   -0.27286E+00   768   0.741E+00-0.722E-03
CGA:   4    -0.662862537442E+03   -0.12941E+00   -0.12947E+00   768   0.169E+00 0.323E-02
CGA:   5    -0.662891212137E+03   -0.28675E-01   -0.28676E-01   768   0.552E-01 0.154E-03
CGA:   6    -0.662901781836E+03   -0.10570E-01   -0.10568E-01   768   0.259E-01 0.149E-03
CGA:   7    -0.662905925874E+03   -0.41440E-02   -0.41432E-02   768   0.142E-01 0.484E-05
CGA:   8    -0.662908322313E+03   -0.23964E-02   -0.23971E-02   768   0.625E-02 0.255E-04
CGA:   9    -0.662909604802E+03   -0.12825E-02   -0.12828E-02   768   0.235E-02-0.926E-05
CGA:  10    -0.662910056902E+03   -0.45210E-03   -0.45201E-03   768   0.131E-02 0.837E-05
CGA:  11    -0.662910243820E+03   -0.18692E-03   -0.18700E-03   768   0.459E-03 0.226E-05
CGA:  12    -0.662910335688E+03   -0.91868E-04   -0.91817E-04   768   0.159E-03 0.273E-05
  10 F= -.66944977E+03 E0= -.66943199E+03  d E =-.426538E-01  mag=     1.4519
       N       E                     dE             d eps       ncg     rms          ort
SDA:   1    -0.659353427823E+03    0.35568E+01    0.00000E+00   768   0.107E+02 0.000E+00
CGA:   2    -0.660983798336E+03   -0.16304E+01   -0.16332E+01   768   0.797E+01-0.400E-02
CGA:   3    -0.662175249573E+03   -0.11915E+01   -0.11894E+01   768   0.324E+01-0.265E-01
CGA:   4    -0.662735557002E+03   -0.56031E+00   -0.56060E+00   768   0.728E+00 0.302E-01
CGA:   5    -0.662860855894E+03   -0.12530E+00   -0.12530E+00   768   0.242E+00 0.120E-02
CGA:   6    -0.662908392920E+03   -0.47537E-01   -0.47507E-01   768   0.111E+00 0.142E-02
CGA:   7    -0.662927160717E+03   -0.18768E-01   -0.18763E-01   768   0.675E-01-0.920E-04
CGA:   8    -0.662937451722E+03   -0.10291E-01   -0.10303E-01   768   0.298E-01 0.221E-03
CGA:   9    -0.662943429329E+03   -0.59776E-02   -0.59801E-02   768   0.105E-01-0.736E-04
CGA:  10    -0.662945577065E+03   -0.21477E-02   -0.21465E-02   768   0.572E-02 0.379E-04
CGA:  11    -0.662946345271E+03   -0.76821E-03   -0.76801E-03   768   0.227E-02 0.165E-05
CGA:  12    -0.662946777566E+03   -0.43230E-03   -0.43221E-03   768   0.706E-03 0.610E-05
CGA:  13    -0.662946917592E+03   -0.14003E-03   -0.14006E-03   768   0.447E-03-0.189E-05
CGA:  14    -0.662946978368E+03   -0.60776E-04   -0.60782E-04   768   0.180E-03 0.385E-06
  11 F= -.66949044E+03 E0= -.66946990E+03  d E =-.833306E-01  mag=     1.5009
       N       E                     dE             d eps       ncg     rms          ort
SDA:   1    -0.662687836406E+03    0.25908E+00    0.00000E+00   768   0.801E+00 0.000E+00
CGA:   2    -0.662819533974E+03   -0.13170E+00   -0.13171E+00   768   0.725E+00 0.238E-03
CGA:   3    -0.662923677853E+03   -0.10414E+00   -0.10419E+00   768   0.230E+00 0.455E-03
CGA:   4    -0.662967091359E+03   -0.43414E-01   -0.43409E-01   768   0.401E-01 0.191E-03
CGA:   5    -0.662974252160E+03   -0.71608E-02   -0.71608E-02   768   0.146E-01 0.313E-04
CGA:   6    -0.662976855899E+03   -0.26037E-02   -0.26037E-02   768   0.478E-02 0.246E-04
CGA:   7    -0.662977852298E+03   -0.99640E-03   -0.99636E-03   768   0.293E-02 0.190E-05
CGA:   8    -0.662978314135E+03   -0.46184E-03   -0.46185E-03   768   0.179E-02 0.190E-06
CGA:   9    -0.662978610712E+03   -0.29658E-03   -0.29653E-03   768   0.662E-03-0.311E-05
CGA:  10    -0.662978767176E+03   -0.15646E-03   -0.15638E-03   768   0.279E-03 0.139E-05
CGA:  11    -0.662978818632E+03   -0.51456E-04   -0.51456E-04   768   0.186E-03-0.351E-06
  12 F= -.66952374E+03 E0= -.66950263E+03  d E =-.333008E-01  mag=     1.5217
       N       E                     dE             d eps       ncg     rms          ort
SDA:   1    -0.661486119042E+03    0.14926E+01    0.00000E+00   768   0.413E+01 0.000E+00
CGA:   2    -0.662184068351E+03   -0.69795E+00   -0.69884E+00   768   0.369E+01 0.367E-01
CGA:   3    -0.662717514543E+03   -0.53345E+00   -0.53322E+00   768   0.116E+01 0.719E-03
CGA:   4    -0.662935663423E+03   -0.21815E+00   -0.21809E+00   768   0.207E+00 0.359E-02
CGA:   5    -0.662973238289E+03   -0.37575E-01   -0.37575E-01   768   0.764E-01-0.248E-04
CGA:   6    -0.662986821463E+03   -0.13583E-01   -0.13583E-01   768   0.280E-01 0.965E-04
CGA:   7    -0.662992098819E+03   -0.52774E-02   -0.52774E-02   768   0.181E-01 0.318E-05
CGA:   8    -0.662994930789E+03   -0.28320E-02   -0.28329E-02   768   0.928E-02 0.218E-04
CGA:   9    -0.662996702328E+03   -0.17715E-02   -0.17718E-02   768   0.352E-02-0.125E-04
CGA:  10    -0.662997520963E+03   -0.81863E-03   -0.81830E-03   768   0.175E-02 0.566E-05
CGA:  11    -0.662997785708E+03   -0.26475E-03   -0.26471E-03   768   0.922E-03-0.125E-05
CGA:  12    -0.662997943729E+03   -0.15802E-03   -0.15803E-03   768   0.283E-03 0.944E-06
CGA:  13    -0.662998009006E+03   -0.65277E-04   -0.65331E-04   768   0.163E-03-0.102E-05
  13 F= -.66954630E+03 E0= -.66952467E+03  d E =-.558544E-01  mag=     1.5579
       N       E                     dE             d eps       ncg     rms          ort
SDA:   1    -0.662926940335E+03    0.71003E-01    0.00000E+00   768   0.206E+00 0.000E+00
CGA:   2    -0.662960198874E+03   -0.33259E-01   -0.33235E-01   768   0.179E+00-0.494E-03
CGA:   3    -0.662986866823E+03   -0.26668E-01   -0.26668E-01   768   0.582E-01-0.866E-05
CGA:   4    -0.662997882137E+03   -0.11015E-01   -0.11015E-01   768   0.966E-02 0.371E-04
CGA:   5    -0.662999632555E+03   -0.17504E-02   -0.17505E-02   768   0.364E-02-0.170E-04
CGA:   6    -0.663000269309E+03   -0.63675E-03   -0.63672E-03   768   0.123E-02-0.107E-04
CGA:   7    -0.663000496054E+03   -0.22674E-03   -0.22675E-03   768   0.765E-03-0.213E-06
CGA:   8    -0.663000613267E+03   -0.11721E-03   -0.11723E-03   768   0.387E-03 0.843E-06
CGA:   9    -0.663000686187E+03   -0.72921E-04   -0.72902E-04   768   0.146E-03 0.171E-05
  14 F= -.66954824E+03 E0= -.66952678E+03  d E =-.577920E-01  mag=     1.5452
       N       E                     dE             d eps       ncg     rms          ort
SDA:   1    -0.662633846982E+03    0.36677E+00    0.00000E+00   768   0.101E+01 0.000E+00
CGA:   2    -0.662834837404E+03   -0.20099E+00   -0.20081E+00   768   0.882E+00 0.558E-02
CGA:   3    -0.662956405019E+03   -0.12157E+00   -0.12135E+00   768   0.329E+00-0.142E-02
CGA:   4    -0.663010350336E+03   -0.53945E-01   -0.53957E-01   768   0.651E-01 0.366E-03
CGA:   5    -0.663021952320E+03   -0.11602E-01   -0.11602E-01   768   0.260E-01-0.281E-04
CGA:   6    -0.663026268235E+03   -0.43159E-02   -0.43171E-02   768   0.121E-01 0.589E-04
CGA:   7    -0.663028101490E+03   -0.18333E-02   -0.18329E-02   768   0.600E-02-0.203E-05
CGA:   8    -0.663029262495E+03   -0.11610E-02   -0.11609E-02   768   0.260E-02 0.248E-05
CGA:   9    -0.663029799937E+03   -0.53744E-03   -0.53773E-03   768   0.132E-02-0.880E-05
CGA:  10    -0.663030006162E+03   -0.20623E-03   -0.20627E-03   768   0.646E-03 0.122E-05
CGA:  11    -0.663030115616E+03   -0.10945E-03   -0.10946E-03   768   0.205E-03 0.517E-06
CGA:  12    -0.663030158003E+03   -0.42387E-04   -0.42345E-04   768   0.106E-03 0.143E-05
  15 F= -.66957891E+03 E0= -.66955809E+03  d E =-.306731E-01  mag=     1.5128
       N       E                     dE             d eps       ncg     rms          ort
SDA:   1    -0.659537389368E+03    0.34927E+01    0.00000E+00   768   0.897E+01 0.000E+00
CGA:   2    -0.661357276770E+03   -0.18199E+01   -0.18141E+01   768   0.753E+01 0.133E+00
CGA:   3    -0.662433059337E+03   -0.10758E+01   -0.10689E+01   768   0.286E+01-0.531E-01
CGA:   4    -0.662893147096E+03   -0.46009E+00   -0.46041E+00   768   0.565E+00 0.111E-01
CGA:   5    -0.662995932437E+03   -0.10279E+00   -0.10280E+00   768   0.229E+00-0.128E-02
CGA:   6    -0.663034916279E+03   -0.38984E-01   -0.38995E-01   768   0.108E+00 0.122E-02
CGA:   7    -0.663052088050E+03   -0.17172E-01   -0.17165E-01   768   0.555E-01-0.125E-03
CGA:   8    -0.663062639194E+03   -0.10551E-01   -0.10547E-01   768   0.241E-01 0.193E-03
CGA:   9    -0.663067656896E+03   -0.50177E-02   -0.50205E-02   768   0.112E-01-0.698E-04
CGA:  10    -0.663069540903E+03   -0.18840E-02   -0.18843E-02   768   0.587E-02 0.169E-04
CGA:  11    -0.663070502760E+03   -0.96186E-03   -0.96180E-03   768   0.188E-02-0.238E-05
CGA:  12    -0.663070911938E+03   -0.40918E-03   -0.40905E-03   768   0.966E-03 0.360E-05
CGA:  13    -0.663071068847E+03   -0.15691E-03   -0.15691E-03   768   0.552E-03-0.321E-06
CGA:  14    -0.663071190055E+03   -0.12121E-03   -0.12114E-03   768   0.309E-03 0.188E-05
CGA:  15    -0.663071267848E+03   -0.77793E-04   -0.77734E-04   768   0.302E-03 0.632E-06
  16 F= -.66962351E+03 E0= -.66960586E+03  d E =-.752721E-01  mag=     1.3521
       N       E                     dE             d eps       ncg     rms          ort
SDA:   1    -0.662536567818E+03    0.53462E+00    0.00000E+00   768   0.148E+01 0.000E+00
CGA:   2    -0.662845967250E+03   -0.30940E+00   -0.30932E+00   768   0.903E+00 0.140E-02
CGA:   3    -0.663008378260E+03   -0.16241E+00   -0.16239E+00   768   0.434E+00-0.258E-02
CGA:   4    -0.663070712163E+03   -0.62334E-01   -0.62403E-01   768   0.118E+00 0.121E-03
CGA:   5    -0.663091538465E+03   -0.20826E-01   -0.20823E-01   768   0.460E-01-0.272E-03
CGA:   6    -0.663099588298E+03   -0.80498E-02   -0.80510E-02   768   0.236E-01 0.663E-04
CGA:   7    -0.663103297659E+03   -0.37094E-02   -0.37062E-02   768   0.126E-01-0.526E-04
CGA:   8    -0.663105527340E+03   -0.22297E-02   -0.22298E-02   768   0.486E-02 0.537E-05
CGA:   9    -0.663106538133E+03   -0.10108E-02   -0.10113E-02   768   0.204E-02-0.133E-04
CGA:  10    -0.663106874200E+03   -0.33607E-03   -0.33614E-03   768   0.105E-02 0.322E-05
CGA:  11    -0.663107034644E+03   -0.16044E-03   -0.16047E-03   768   0.355E-03 0.121E-05
CGA:  12    -0.663107110830E+03   -0.76186E-04   -0.76105E-04   768   0.166E-03 0.241E-05
  17 F= -.66965934E+03 E0= -.66964301E+03  d E =-.358287E-01  mag=     1.2693
       N       E                     dE             d eps       ncg     rms          ort
SDA:   1    -0.663032530205E+03    0.74504E-01    0.00000E+00   768   0.202E+00 0.000E+00
CGA:   2    -0.663074329045E+03   -0.41799E-01   -0.41794E-01   768   0.123E+00 0.820E-04
CGA:   3    -0.663096154437E+03   -0.21825E-01   -0.21824E-01   768   0.610E-01-0.194E-03
CGA:   4    -0.663104856209E+03   -0.87018E-02   -0.87057E-02   768   0.167E-01-0.104E-06
CGA:   5    -0.663107711722E+03   -0.28555E-02   -0.28552E-02   768   0.670E-02-0.146E-04
CGA:   6    -0.663108784296E+03   -0.10726E-02   -0.10727E-02   768   0.354E-02 0.168E-05
CGA:   7    -0.663109366417E+03   -0.58212E-03   -0.58198E-03   768   0.167E-02-0.625E-05
CGA:   8    -0.663109694636E+03   -0.32822E-03   -0.32826E-03   768   0.730E-03-0.278E-05
CGA:   9    -0.663109833286E+03   -0.13865E-03   -0.13868E-03   768   0.369E-03-0.246E-05
CGA:  10    -0.663109888585E+03   -0.55300E-04   -0.55325E-04   768   0.159E-03 0.845E-06
  18 F= -.66966210E+03 E0= -.66964645E+03  d E =-.385916E-01  mag=     1.2360
       N       E                     dE             d eps       ncg     rms          ort
SDA:   1    -0.662663904409E+03    0.44593E+00    0.00000E+00   768   0.134E+01 0.000E+00
CGA:   2    -0.662891262681E+03   -0.22736E+00   -0.22736E+00   768   0.671E+00-0.956E-03
CGA:   3    -0.663026949019E+03   -0.13569E+00   -0.13570E+00   768   0.451E+00-0.805E-03
CGA:   4    -0.663099454491E+03   -0.72505E-01   -0.72480E-01   768   0.141E+00-0.779E-03
CGA:   5    -0.663124445776E+03   -0.24991E-01   -0.24992E-01   768   0.498E-01 0.878E-04
CGA:   6    -0.663133802540E+03   -0.93568E-02   -0.93592E-02   768   0.244E-01-0.156E-03
CGA:   7    -0.663137737085E+03   -0.39345E-02   -0.39361E-02   768   0.146E-01 0.320E-04
CGA:   8    -0.663139905852E+03   -0.21688E-02   -0.21670E-02   768   0.534E-02-0.243E-04
CGA:   9    -0.663140950657E+03   -0.10448E-02   -0.10447E-02   768   0.161E-02 0.244E-05
CGA:  10    -0.663141252491E+03   -0.30183E-03   -0.30186E-03   768   0.754E-03-0.220E-05
CGA:  11    -0.663141350667E+03   -0.98176E-04   -0.98250E-04   768   0.297E-03 0.143E-05
  19 F= -.66969347E+03 E0= -.66967805E+03  d E =-.313680E-01  mag=     1.1969
       N       E                     dE             d eps       ncg     rms          ort
SDA:   1    -0.660455042598E+03    0.26862E+01    0.00000E+00   768   0.767E+01 0.000E+00
CGA:   2    -0.661751268073E+03   -0.12962E+01   -0.12965E+01   768   0.380E+01-0.825E-02
CGA:   3    -0.662522273739E+03   -0.77101E+00   -0.77278E+00   768   0.264E+01-0.550E-01
CGA:   4    -0.662933459207E+03   -0.41119E+00   -0.41142E+00   768   0.796E+00-0.179E-02
CGA:   5    -0.663075979964E+03   -0.14252E+00   -0.14254E+00   768   0.293E+00-0.632E-02
CGA:   6    -0.663127482334E+03   -0.51502E-01   -0.51502E-01   768   0.148E+00 0.105E-02
CGA:   7    -0.663149810120E+03   -0.22328E-01   -0.22280E-01   768   0.854E-01-0.691E-03
CGA:   8    -0.663163228537E+03   -0.13418E-01   -0.13427E-01   768   0.296E-01 0.161E-03
CGA:   9    -0.663169308596E+03   -0.60801E-02   -0.60850E-02   768   0.987E-02-0.114E-03
CGA:  10    -0.663171001107E+03   -0.16925E-02   -0.16926E-02   768   0.505E-02 0.139E-04
CGA:  11    -0.663171653536E+03   -0.65243E-03   -0.65206E-03   768   0.170E-02-0.230E-05
CGA:  12    -0.663172016156E+03   -0.36262E-03   -0.36248E-03   768   0.700E-03 0.363E-05
CGA:  13    -0.663172164948E+03   -0.14879E-03   -0.14873E-03   768   0.632E-03 0.136E-05
CGA:  14    -0.663172262729E+03   -0.97781E-04   -0.97822E-04   768   0.336E-03 0.242E-05
  20 F= -.66972393E+03 E0= -.66970913E+03  d E =-.618338E-01  mag=     1.1057
       N       E                     dE             d eps       ncg     rms          ort
SDA:   1    -0.662490021730E+03    0.68214E+00    0.00000E+00   768   0.191E+01 0.000E+00
CGA:   2    -0.662843897651E+03   -0.35388E+00   -0.35389E+00   768   0.109E+01-0.288E-02
CGA:   3    -0.663049437216E+03   -0.20554E+00   -0.20550E+00   768   0.660E+00 0.390E-02
CGA:   4    -0.663148747009E+03   -0.99310E-01   -0.99101E-01   768   0.209E+00-0.198E-02
CGA:   5    -0.663180630673E+03   -0.31884E-01   -0.31921E-01   768   0.899E-01 0.395E-03
CGA:   6    -0.663193540760E+03   -0.12910E-01   -0.12887E-01   768   0.422E-01-0.195E-03
CGA:   7    -0.663201041803E+03   -0.75010E-02   -0.75010E-02   768   0.192E-01 0.650E-04
CGA:   8    -0.663204812783E+03   -0.37710E-02   -0.37729E-02   768   0.951E-02-0.671E-04
CGA:   9    -0.663206256870E+03   -0.14441E-02   -0.14446E-02   768   0.449E-02 0.692E-05
CGA:  10    -0.663206924519E+03   -0.66765E-03   -0.66739E-03   768   0.138E-02-0.460E-05
CGA:  11    -0.663207181750E+03   -0.25723E-03   -0.25720E-03   768   0.603E-03 0.270E-05
CGA:  12    -0.663207272738E+03   -0.90988E-04   -0.90991E-04   768   0.312E-03 0.128E-06
  21 F= -.66975883E+03 E0= -.66974462E+03  d E =-.348981E-01  mag=     1.0711
       N       E                     dE             d eps       ncg     rms          ort
SDA:   1    -0.661327694649E+03    0.18795E+01    0.00000E+00   768   0.506E+01 0.000E+00
CGA:   2    -0.662266927137E+03   -0.93923E+00   -0.93934E+00   768   0.290E+01-0.112E-01
CGA:   3    -0.662810118025E+03   -0.54319E+00   -0.54286E+00   768   0.175E+01 0.154E-01
CGA:   4    -0.663073669644E+03   -0.26355E+00   -0.26283E+00   768   0.555E+00-0.101E-01
CGA:   5    -0.663157409944E+03   -0.83740E-01   -0.83862E-01   768   0.240E+00 0.148E-02
CGA:   6    -0.663191329915E+03   -0.33920E-01   -0.33834E-01   768   0.113E+00-0.885E-03
CGA:   7    -0.663211726297E+03   -0.20396E-01   -0.20392E-01   768   0.506E-01 0.267E-03
CGA:   8    -0.663221673036E+03   -0.99467E-02   -0.99564E-02   768   0.258E-01-0.273E-03
CGA:   9    -0.663225478435E+03   -0.38054E-02   -0.38077E-02   768   0.121E-01 0.324E-04
CGA:  10    -0.663227288066E+03   -0.18096E-02   -0.18089E-02   768   0.367E-02-0.141E-04
CGA:  11    -0.663227970574E+03   -0.68251E-03   -0.68241E-03   768   0.163E-02 0.563E-05
CGA:  12    -0.663228205554E+03   -0.23498E-03   -0.23497E-03   768   0.788E-03-0.286E-06
CGA:  13    -0.663228351622E+03   -0.14607E-03   -0.14604E-03   768   0.369E-03 0.235E-05
CGA:  14    -0.663228431095E+03   -0.79473E-04   -0.79451E-04   768   0.320E-03 0.336E-06
  22 F= -.66977969E+03 E0= -.66976625E+03  d E =-.557522E-01  mag=     1.0249
       N       E                     dE             d eps       ncg     rms          ort
SDA:   1    -0.662219280229E+03    0.10091E+01    0.00000E+00   768   0.254E+01 0.000E+00
CGA:   2    -0.662847787903E+03   -0.62851E+00   -0.62869E+00   768   0.163E+01-0.136E-02
CGA:   3    -0.663098410144E+03   -0.25062E+00   -0.25110E+00   768   0.773E+00 0.817E-02
CGA:   4    -0.663202053772E+03   -0.10364E+00   -0.10356E+00   768   0.216E+00 0.736E-04
CGA:   5    -0.663232498345E+03   -0.30445E-01   -0.30464E-01   768   0.858E-01 0.196E-03
CGA:   6    -0.663245938208E+03   -0.13440E-01   -0.13434E-01   768   0.355E-01-0.174E-03
CGA:   7    -0.663252546423E+03   -0.66082E-02   -0.66077E-02   768   0.178E-01 0.220E-04
CGA:   8    -0.663255531462E+03   -0.29850E-02   -0.29847E-02   768   0.102E-01-0.386E-04
CGA:   9    -0.663257187401E+03   -0.16559E-02   -0.16561E-02   768   0.423E-02 0.786E-05
CGA:  10    -0.663257963862E+03   -0.77646E-03   -0.77650E-03   768   0.190E-02-0.208E-05
CGA:  11    -0.663258257490E+03   -0.29363E-03   -0.29372E-03   768   0.890E-03 0.520E-05
CGA:  12    -0.663258400465E+03   -0.14297E-03   -0.14299E-03   768   0.322E-03 0.998E-06
CGA:  13    -0.663258460059E+03   -0.59595E-04   -0.59575E-04   768   0.183E-03 0.150E-05
  23 F= -.66980949E+03 E0= -.66979675E+03  d E =-.298014E-01  mag=     0.9996
       N       E                     dE             d eps       ncg     rms          ort
SDA:   1    -0.663248180637E+03    0.10220E-01    0.00000E+00   768   0.260E-01 0.000E+00
CGA:   2    -0.663254627690E+03   -0.64471E-02   -0.64476E-02   768   0.161E-01-0.749E-05
CGA:   3    -0.663257238497E+03   -0.26108E-02   -0.26109E-02   768   0.747E-02-0.343E-06
CGA:   4    -0.663258266013E+03   -0.10275E-02   -0.10275E-02   768   0.187E-02 0.244E-05
CGA:   5    -0.663258573913E+03   -0.30790E-03   -0.30791E-03   768   0.746E-03 0.130E-05
CGA:   6    -0.663258677818E+03   -0.10390E-03   -0.10386E-03   768   0.407E-03-0.101E-05
CGA:   7    -0.663258747591E+03   -0.69774E-04   -0.69776E-04   768   0.176E-03-0.166E-05
  24 F= -.66980975E+03 E0= -.66979708E+03  d E =-.300619E-01  mag=     0.9971
       N       E                     dE             d eps       ncg     rms          ort
SDA:   1    -0.662717317848E+03    0.54136E+00    0.00000E+00   768   0.140E+01 0.000E+00
CGA:   2    -0.663065522084E+03   -0.34820E+00   -0.34818E+00   768   0.821E+00 0.429E-03
CGA:   3    -0.663205407119E+03   -0.13989E+00   -0.13985E+00   768   0.415E+00-0.237E-02
CGA:   4    -0.663258899092E+03   -0.53492E-01   -0.53570E-01   768   0.110E+00 0.194E-03
CGA:   5    -0.663274655915E+03   -0.15757E-01   -0.15751E-01   768   0.440E-01-0.373E-04
CGA:   6    -0.663281193904E+03   -0.65380E-02   -0.65398E-02   768   0.183E-01 0.440E-04
CGA:   7    -0.663284563980E+03   -0.33701E-02   -0.33706E-02   768   0.855E-02-0.257E-04
CGA:   8    -0.663286116269E+03   -0.15523E-02   -0.15522E-02   768   0.522E-02 0.293E-05
CGA:   9    -0.663286939379E+03   -0.82311E-03   -0.82299E-03   768   0.234E-02-0.547E-05
CGA:  10    -0.663287354332E+03   -0.41495E-03   -0.41491E-03   768   0.953E-03 0.554E-05
CGA:  11    -0.663287517865E+03   -0.16353E-03   -0.16353E-03   768   0.480E-03 0.133E-05
CGA:  12    -0.663287587867E+03   -0.70002E-04   -0.70051E-04   768   0.173E-03 0.197E-05
  25 F= -.66983914E+03 E0= -.66982633E+03  d E =-.293901E-01  mag=     0.9822
       N       E                     dE             d eps       ncg     rms          ort
SDA:   1    -0.662886595923E+03    0.40092E+00    0.00000E+00   768   0.100E+01 0.000E+00
CGA:   2    -0.663136016606E+03   -0.24942E+00   -0.24941E+00   768   0.587E+00 0.204E-03
CGA:   3    -0.663235943561E+03   -0.99927E-01   -0.99911E-01   768   0.298E+00-0.142E-02
CGA:   4    -0.663274257487E+03   -0.38314E-01   -0.38356E-01   768   0.790E-01 0.103E-03
CGA:   5    -0.663285447140E+03   -0.11190E-01   -0.11186E-01   768   0.310E-01-0.134E-04
CGA:   6    -0.663290051100E+03   -0.46040E-02   -0.46050E-02   768   0.130E-01 0.291E-04
CGA:   7    -0.663292445778E+03   -0.23947E-02   -0.23950E-02   768   0.608E-02-0.153E-04
CGA:   8    -0.663293550339E+03   -0.11046E-02   -0.11045E-02   768   0.376E-02 0.887E-06
CGA:   9    -0.663294141554E+03   -0.59122E-03   -0.59114E-03   768   0.167E-02-0.410E-05
CGA:  10    -0.663294440738E+03   -0.29918E-03   -0.29915E-03   768   0.699E-03 0.440E-05
CGA:  11    -0.663294560631E+03   -0.11989E-03   -0.11989E-03   768   0.356E-03 0.118E-05
CGA:  12    -0.663294612795E+03   -0.52164E-04   -0.52204E-04   768   0.131E-03 0.172E-05
  26 F= -.66984658E+03 E0= -.66983374E+03  d E =-.368316E-01  mag=     0.9697
       N       E                     dE             d eps       ncg     rms          ort
SDA:   1    -0.662628992444E+03    0.66557E+00    0.00000E+00   768   0.176E+01 0.000E+00
CGA:   2    -0.663041833486E+03   -0.41284E+00   -0.41253E+00   768   0.106E+01 0.388E-02
CGA:   3    -0.663202027216E+03   -0.16019E+00   -0.16012E+00   768   0.581E+00-0.157E-02
CGA:   4    -0.663277510319E+03   -0.75483E-01   -0.75527E-01   768   0.144E+00 0.125E-03
CGA:   5    -0.663299427728E+03   -0.21917E-01   -0.21912E-01   768   0.526E-01-0.750E-04
CGA:   6    -0.663307990835E+03   -0.85631E-02   -0.85638E-02   768   0.231E-01 0.723E-04
CGA:   7    -0.663311798898E+03   -0.38081E-02   -0.38078E-02   768   0.122E-01-0.225E-04
CGA:   8    -0.663313786190E+03   -0.19873E-02   -0.19873E-02   768   0.594E-02 0.559E-05
CGA:   9    -0.663314919268E+03   -0.11331E-02   -0.11333E-02   768   0.283E-02-0.884E-05
CGA:  10    -0.663315373350E+03   -0.45408E-03   -0.45414E-03   768   0.142E-02 0.598E-05
CGA:  11    -0.663315600302E+03   -0.22695E-03   -0.22697E-03   768   0.526E-03 0.238E-05
CGA:  12    -0.663315692293E+03   -0.91991E-04   -0.91975E-04   768   0.242E-03 0.308E-05
  27 F= -.66986836E+03 E0= -.66985521E+03  d E =-.217825E-01  mag=     0.9571
       N       E                     dE             d eps       ncg     rms          ort
SDA:   1    -0.663043566659E+03    0.27203E+00    0.00000E+00   768   0.706E+00 0.000E+00
CGA:   2    -0.663209295176E+03   -0.16573E+00   -0.16565E+00   768   0.428E+00 0.982E-03
CGA:   3    -0.663273318652E+03   -0.64023E-01   -0.64016E-01   768   0.233E+00-0.263E-03
CGA:   4    -0.663303669020E+03   -0.30350E-01   -0.30357E-01   768   0.586E-01 0.230E-05
CGA:   5    -0.663312495562E+03   -0.88265E-02   -0.88254E-02   768   0.209E-01-0.929E-05
CGA:   6    -0.663315940926E+03   -0.34454E-02   -0.34455E-02   768   0.931E-02 0.262E-04
CGA:   7    -0.663317467851E+03   -0.15269E-02   -0.15269E-02   768   0.491E-02-0.541E-05
CGA:   8    -0.663318271194E+03   -0.80334E-03   -0.80335E-03   768   0.242E-02 0.299E-06
CGA:   9    -0.663318733008E+03   -0.46181E-03   -0.46192E-03   768   0.114E-02-0.385E-05
CGA:  10    -0.663318918148E+03   -0.18514E-03   -0.18516E-03   768   0.587E-03 0.347E-05
CGA:  11    -0.663319011566E+03   -0.93418E-04   -0.93433E-04   768   0.218E-03 0.167E-05
  28 F= -.66987209E+03 E0= -.66985883E+03  d E =-.255098E-01  mag=     0.9492
       N       E                     dE             d eps       ncg     rms          ort
SDA:   1    -0.663156540423E+03    0.16238E+00    0.00000E+00   768   0.446E+00 0.000E+00
CGA:   2    -0.663256583147E+03   -0.10004E+00   -0.99999E-01   768   0.326E+00 0.499E-03
CGA:   3    -0.663298616619E+03   -0.42033E-01   -0.42093E-01   768   0.139E+00 0.412E-05
CGA:   4    -0.663318762035E+03   -0.20145E-01   -0.20150E-01   768   0.386E-01 0.226E-04
CGA:   5    -0.663324773287E+03   -0.60113E-02   -0.60111E-02   768   0.144E-01 0.127E-05
CGA:   6    -0.663327104790E+03   -0.23315E-02   -0.23316E-02   768   0.612E-02 0.141E-04
CGA:   7    -0.663328075752E+03   -0.97096E-03   -0.97092E-03   768   0.329E-02-0.263E-05
CGA:   8    -0.663328637896E+03   -0.56214E-03   -0.56213E-03   768   0.153E-02 0.128E-05
CGA:   9    -0.663328934875E+03   -0.29698E-03   -0.29705E-03   768   0.756E-03-0.302E-05
CGA:  10    -0.663329054011E+03   -0.11914E-03   -0.11915E-03   768   0.379E-03 0.722E-06
CGA:  11    -0.663329116046E+03   -0.62035E-04   -0.62034E-04   768   0.134E-03-0.162E-06
  29 F= -.66988271E+03 E0= -.66986996E+03  d E =-.106196E-01  mag=     0.9440
       N       E                     dE             d eps       ncg     rms          ort
SDA:   1    -0.663110291490E+03    0.21876E+00    0.00000E+00   768   0.575E+00 0.000E+00
CGA:   2    -0.663239177497E+03   -0.12889E+00   -0.12882E+00   768   0.418E+00 0.700E-03
CGA:   3    -0.663293588516E+03   -0.54411E-01   -0.54498E-01   768   0.176E+00 0.645E-04
CGA:   4    -0.663319420377E+03   -0.25832E-01   -0.25838E-01   768   0.490E-01 0.442E-04
CGA:   5    -0.663327096156E+03   -0.76758E-02   -0.76756E-02   768   0.180E-01 0.143E-05
CGA:   6    -0.663330052009E+03   -0.29559E-02   -0.29559E-02   768   0.775E-02 0.190E-04
CGA:   7    -0.663331288934E+03   -0.12369E-02   -0.12369E-02   768   0.410E-02-0.370E-05
CGA:   8    -0.663332001244E+03   -0.71231E-03   -0.71228E-03   768   0.193E-02 0.226E-05
CGA:   9    -0.663332375629E+03   -0.37438E-03   -0.37446E-03   768   0.933E-03-0.327E-05
CGA:  10    -0.663332525928E+03   -0.15030E-03   -0.15031E-03   768   0.469E-03 0.888E-06
CGA:  11    -0.663332602516E+03   -0.76588E-04   -0.76587E-04   768   0.165E-03-0.164E-06
  30 F= -.66988676E+03 E0= -.66987457E+03  d E =-.146740E-01  mag=     0.9390
       N       E                     dE             d eps       ncg     rms          ort
SDA:   1    -0.663278205267E+03    0.54321E-01    0.00000E+00   768   0.164E+00 0.000E+00
CGA:   2    -0.663309989569E+03   -0.31784E-01   -0.31781E-01   768   0.108E+00 0.629E-04
CGA:   3    -0.663325905624E+03   -0.15916E-01   -0.15915E-01   768   0.537E-01-0.847E-04
CGA:   4    -0.663333969605E+03   -0.80640E-02   -0.80644E-02   768   0.161E-01-0.154E-04
CGA:   5    -0.663336466840E+03   -0.24972E-02   -0.24972E-02   768   0.605E-02-0.169E-05
CGA:   6    -0.663337465388E+03   -0.99855E-03   -0.99857E-03   768   0.270E-02 0.862E-05
CGA:   7    -0.663337915412E+03   -0.45002E-03   -0.45002E-03   768   0.144E-02 0.138E-05
CGA:   8    -0.663338166503E+03   -0.25109E-03   -0.25108E-03   768   0.700E-03 0.181E-05
CGA:   9    -0.663338297515E+03   -0.13101E-03   -0.13105E-03   768   0.321E-03-0.193E-05
CGA:  10    -0.663338349148E+03   -0.51633E-04   -0.51633E-04   768   0.150E-03-0.173E-06
  31 F= -.66989290E+03 E0= -.66988099E+03  d E =-.613852E-02  mag=     0.9343
       N       E                     dE             d eps       ncg     rms          ort
SDA:   1    -0.663064912936E+03    0.27338E+00    0.00000E+00   768   0.764E+00 0.000E+00
CGA:   2    -0.663209616009E+03   -0.14470E+00   -0.14468E+00   768   0.520E+00 0.303E-03
CGA:   3    -0.663284423804E+03   -0.74808E-01   -0.74805E-01   768   0.250E+00-0.656E-03
CGA:   4    -0.663322926253E+03   -0.38502E-01   -0.38509E-01   768   0.727E-01 0.139E-03
CGA:   5    -0.663334537385E+03   -0.11611E-01   -0.11611E-01   768   0.279E-01-0.149E-04
CGA:   6    -0.663339145239E+03   -0.46079E-02   -0.46079E-02   768   0.123E-01 0.485E-04
CGA:   7    -0.663341176115E+03   -0.20309E-02   -0.20308E-02   768   0.657E-02-0.651E-05
CGA:   8    -0.663342325069E+03   -0.11490E-02   -0.11489E-02   768   0.306E-02 0.833E-05
CGA:   9    -0.663342914276E+03   -0.58921E-03   -0.58932E-03   768   0.140E-02-0.463E-05
CGA:  10    -0.663343135881E+03   -0.22161E-03   -0.22161E-03   768   0.643E-03 0.746E-07
CGA:  11    -0.663343241865E+03   -0.10598E-03   -0.10598E-03   768   0.232E-03-0.137E-05
CGA:  12    -0.663343284407E+03   -0.42542E-04   -0.42527E-04   768   0.114E-03 0.954E-06
  32 F= -.66989868E+03 E0= -.66988724E+03  d E =-.119128E-01  mag=     0.9267
       N       E                     dE             d eps       ncg     rms          ort
SDA:   1    -0.663234233897E+03    0.10901E+00    0.00000E+00   768   0.311E+00 0.000E+00
CGA:   2    -0.663300605815E+03   -0.66372E-01   -0.66357E-01   768   0.200E+00 0.177E-03
CGA:   3    -0.663330133072E+03   -0.29527E-01   -0.29522E-01   768   0.928E-01-0.210E-03
CGA:   4    -0.663343578058E+03   -0.13445E-01   -0.13447E-01   768   0.266E-01-0.581E-05
CGA:   5    -0.663347726256E+03   -0.41482E-02   -0.41481E-02   768   0.104E-01-0.130E-05
CGA:   6    -0.663349422548E+03   -0.16963E-02   -0.16963E-02   768   0.452E-02 0.749E-05
CGA:   7    -0.663350200676E+03   -0.77813E-03   -0.77817E-03   768   0.227E-02-0.544E-05
CGA:   8    -0.663350610808E+03   -0.41013E-03   -0.41014E-03   768   0.119E-02-0.993E-06
CGA:   9    -0.663350819167E+03   -0.20836E-03   -0.20838E-03   768   0.515E-03-0.273E-05
CGA:  10    -0.663350907461E+03   -0.88294E-04   -0.88290E-04   768   0.235E-03 0.105E-05
  33 F= -.66990663E+03 E0= -.66989539E+03  d E =-.795670E-02  mag=     0.9217
       N       E                     dE             d eps       ncg     rms          ort
SDA:   1    -0.662808046617E+03    0.54277E+00    0.00000E+00   768   0.146E+01 0.000E+00
CGA:   2    -0.663119688925E+03   -0.31164E+00   -0.31150E+00   768   0.944E+00 0.175E-02
CGA:   3    -0.663259357242E+03   -0.13967E+00   -0.13962E+00   768   0.436E+00-0.203E-02
CGA:   4    -0.663322755812E+03   -0.63399E-01   -0.63428E-01   768   0.124E+00 0.172E-03
CGA:   5    -0.663342085468E+03   -0.19330E-01   -0.19328E-01   768   0.494E-01-0.532E-04
CGA:   6    -0.663350187009E+03   -0.81015E-02   -0.81018E-02   768   0.210E-01 0.511E-04
CGA:   7    -0.663353817397E+03   -0.36304E-02   -0.36307E-02   768   0.106E-01-0.409E-04
CGA:   8    -0.663355723490E+03   -0.19061E-02   -0.19059E-02   768   0.540E-02 0.767E-05
CGA:   9    -0.663356673357E+03   -0.94987E-03   -0.94991E-03   768   0.232E-02-0.652E-05
CGA:  10    -0.663357070583E+03   -0.39723E-03   -0.39721E-03   768   0.103E-02 0.336E-05
CGA:  11    -0.663357240622E+03   -0.17004E-03   -0.17004E-03   768   0.400E-03 0.556E-06
CGA:  12    -0.663357308627E+03   -0.68005E-04   -0.68003E-04   768   0.171E-03 0.225E-05
  34 F= -.66991373E+03 E0= -.66990279E+03  d E =-.150581E-01  mag=     0.9127
       N       E                     dE             d eps       ncg     rms          ort
SDA:   1    -0.663227459029E+03    0.12978E+00    0.00000E+00   768   0.349E+00 0.000E+00
CGA:   2    -0.663312537548E+03   -0.85079E-01   -0.85077E-01   768   0.209E+00-0.264E-04
CGA:   3    -0.663343475011E+03   -0.30937E-01   -0.30931E-01   768   0.970E-01-0.188E-03
CGA:   4    -0.663357018446E+03   -0.13543E-01   -0.13546E-01   768   0.260E-01-0.106E-04
CGA:   5    -0.663361122881E+03   -0.41044E-02   -0.41045E-02   768   0.988E-02 0.870E-05
CGA:   6    -0.663362692270E+03   -0.15694E-02   -0.15695E-02   768   0.409E-02 0.642E-05
CGA:   7    -0.663363402055E+03   -0.70979E-03   -0.70982E-03   768   0.200E-02-0.567E-05
CGA:   8    -0.663363772347E+03   -0.37029E-03   -0.37034E-03   768   0.108E-02-0.303E-05
CGA:   9    -0.663363962346E+03   -0.19000E-03   -0.19001E-03   768   0.488E-03-0.248E-05
CGA:  10    -0.663364049377E+03   -0.87031E-04   -0.87016E-04   768   0.233E-03 0.177E-05
  35 F= -.66992078E+03 E0= -.66990989E+03  d E =-.704201E-02  mag=     0.9110
       N       E                     dE             d eps       ncg     rms          ort
SDA:   1    -0.662688043314E+03    0.67592E+00    0.00000E+00   768   0.174E+01 0.000E+00
CGA:   2    -0.663112404003E+03   -0.42436E+00   -0.42436E+00   768   0.104E+01-0.515E-03
CGA:   3    -0.663266968048E+03   -0.15456E+00   -0.15450E+00   768   0.482E+00-0.172E-02
CGA:   4    -0.663334220935E+03   -0.67253E-01   -0.67291E-01   768   0.129E+00 0.226E-04
CGA:   5    -0.663354448339E+03   -0.20227E-01   -0.20227E-01   768   0.506E-01-0.198E-06
CGA:   6    -0.663362489775E+03   -0.80414E-02   -0.80416E-02   768   0.202E-01 0.232E-04
CGA:   7    -0.663366022739E+03   -0.35330E-02   -0.35332E-02   768   0.999E-02-0.338E-04
CGA:   8    -0.663367847314E+03   -0.18246E-02   -0.18245E-02   768   0.529E-02-0.585E-06
CGA:   9    -0.663368776234E+03   -0.92892E-03   -0.92893E-03   768   0.237E-02-0.398E-05
CGA:  10    -0.663369201567E+03   -0.42533E-03   -0.42529E-03   768   0.111E-02 0.497E-05
CGA:  11    -0.663369389776E+03   -0.18821E-03   -0.18821E-03   768   0.455E-03 0.167E-05
CGA:  12    -0.663369466778E+03   -0.77002E-04   -0.77008E-04   768   0.198E-03 0.242E-05
  36 F= -.66992683E+03 E0= -.66991607E+03  d E =-.131001E-01  mag=     0.9079
       N       E                     dE             d eps       ncg     rms          ort
SDA:   1    -0.663079862318E+03    0.28953E+00    0.00000E+00   768   0.752E+00 0.000E+00
CGA:   2    -0.663267189695E+03   -0.18733E+00   -0.18725E+00   768   0.438E+00 0.658E-03
CGA:   3    -0.663334443587E+03   -0.67254E-01   -0.67224E-01   768   0.197E+00-0.698E-03
CGA:   4    -0.663362149480E+03   -0.27706E-01   -0.27722E-01   768   0.530E-01 0.468E-04
CGA:   5    -0.663370714893E+03   -0.85654E-02   -0.85649E-02   768   0.209E-01-0.192E-04
CGA:   6    -0.663373914415E+03   -0.31995E-02   -0.31994E-02   768   0.926E-02-0.212E-06
CGA:   7    -0.663375533970E+03   -0.16196E-02   -0.16196E-02   768   0.433E-02-0.144E-04
CGA:   8    -0.663376375162E+03   -0.84119E-03   -0.84118E-03   768   0.223E-02-0.683E-06
CGA:   9    -0.663376765452E+03   -0.39029E-03   -0.39029E-03   768   0.111E-02-0.154E-05
CGA:  10    -0.663376948856E+03   -0.18340E-03   -0.18343E-03   768   0.454E-03 0.302E-05
CGA:  11    -0.663377031245E+03   -0.82388E-04   -0.82379E-04   768   0.183E-03 0.114E-05
  37 F= -.66993461E+03 E0= -.66992381E+03  d E =-.777882E-02  mag=     0.9032
       N       E                     dE             d eps       ncg     rms          ort
SDA:   1    -0.662664854907E+03    0.71209E+00    0.00000E+00   768   0.181E+01 0.000E+00
CGA:   2    -0.663117886656E+03   -0.45303E+00   -0.45278E+00   768   0.104E+01 0.228E-02
CGA:   3    -0.663280205358E+03   -0.16232E+00   -0.16222E+00   768   0.463E+00-0.251E-02
CGA:   4    -0.663345616608E+03   -0.65411E-01   -0.65473E-01   768   0.123E+00 0.229E-03
CGA:   5    -0.663365892182E+03   -0.20276E-01   -0.20273E-01   768   0.490E-01-0.127E-03
CGA:   6    -0.663373431110E+03   -0.75389E-02   -0.75383E-02   768   0.222E-01-0.953E-05
CGA:   7    -0.663377219626E+03   -0.37885E-02   -0.37884E-02   768   0.103E-01-0.378E-04
CGA:   8    -0.663379245492E+03   -0.20259E-02   -0.20256E-02   768   0.501E-02 0.569E-05
CGA:   9    -0.663380160916E+03   -0.91542E-03   -0.91543E-03   768   0.258E-02-0.209E-05
CGA:  10    -0.663380570945E+03   -0.41003E-03   -0.41011E-03   768   0.105E-02 0.478E-05
CGA:  11    -0.663380763713E+03   -0.19277E-03   -0.19275E-03   768   0.394E-03 0.151E-05
CGA:  12    -0.663380832226E+03   -0.68513E-04   -0.68513E-04   768   0.201E-03 0.195E-05
  38 F= -.66993873E+03 E0= -.66992789E+03  d E =-.118971E-01  mag=     0.8958
       N       E                     dE             d eps       ncg     rms          ort
SDA:   1    -0.663077316666E+03    0.30345E+00    0.00000E+00   768   0.823E+00 0.000E+00
CGA:   2    -0.663253408963E+03   -0.17609E+00   -0.17603E+00   768   0.495E+00 0.865E-03
CGA:   3    -0.663331764010E+03   -0.78355E-01   -0.78312E-01   768   0.239E+00-0.138E-02
CGA:   4    -0.663367622632E+03   -0.35859E-01   -0.35873E-01   768   0.684E-01 0.831E-04
CGA:   5    -0.663379070531E+03   -0.11448E-01   -0.11447E-01   768   0.276E-01-0.807E-04
CGA:   6    -0.663383417139E+03   -0.43466E-02   -0.43469E-02   768   0.133E-01 0.924E-05
CGA:   7    -0.663385765465E+03   -0.23483E-02   -0.23484E-02   768   0.648E-02-0.193E-04
CGA:   8    -0.663386989189E+03   -0.12237E-02   -0.12236E-02   768   0.300E-02 0.515E-05
CGA:   9    -0.663387538653E+03   -0.54946E-03   -0.54949E-03   768   0.143E-02-0.179E-05
CGA:  10    -0.663387758567E+03   -0.21991E-03   -0.21996E-03   768   0.545E-03 0.202E-05
CGA:  11    -0.663387856980E+03   -0.98413E-04   -0.98414E-04   768   0.207E-03-0.266E-07
  39 F= -.66994588E+03 E0= -.66993504E+03  d E =-.715009E-02  mag=     0.8894
       N       E                     dE             d eps       ncg     rms          ort
SDA:   1    -0.662773250531E+03    0.61451E+00    0.00000E+00   768   0.164E+01 0.000E+00
CGA:   2    -0.663124840643E+03   -0.35159E+00   -0.35142E+00   768   0.974E+00 0.228E-02
CGA:   3    -0.663280993814E+03   -0.15615E+00   -0.15605E+00   768   0.470E+00-0.382E-02
CGA:   4    -0.663351398864E+03   -0.70405E-01   -0.70443E-01   768   0.133E+00 0.234E-03
CGA:   5    -0.663373887182E+03   -0.22488E-01   -0.22486E-01   768   0.537E-01-0.256E-03
CGA:   6    -0.663382477731E+03   -0.85905E-02   -0.85912E-02   768   0.263E-01 0.195E-04
CGA:   7    -0.663387025875E+03   -0.45481E-02   -0.45482E-02   768   0.129E-01-0.500E-04
CGA:   8    -0.663389443187E+03   -0.24173E-02   -0.24171E-02   768   0.576E-02 0.989E-05
CGA:   9    -0.663390526275E+03   -0.10831E-02   -0.10832E-02   768   0.274E-02-0.483E-05
CGA:  10    -0.663390944422E+03   -0.41815E-03   -0.41822E-03   768   0.108E-02 0.286E-05
CGA:  11    -0.663391136148E+03   -0.19173E-03   -0.19173E-03   768   0.391E-03-0.308E-06
CGA:  12    -0.663391206772E+03   -0.70624E-04   -0.70614E-04   768   0.201E-03 0.144E-05
  40 F= -.66994941E+03 E0= -.66993854E+03  d E =-.106836E-01  mag=     0.8798
       N       E                     dE             d eps       ncg     rms          ort
SDA:   1    -0.663159940306E+03    0.23120E+00    0.00000E+00   768   0.648E+00 0.000E+00
CGA:   2    -0.663292477183E+03   -0.13254E+00   -0.13251E+00   768   0.373E+00 0.524E-03
CGA:   3    -0.663352984738E+03   -0.60508E-01   -0.60491E-01   768   0.182E+00-0.751E-03
CGA:   4    -0.663381423491E+03   -0.28439E-01   -0.28445E-01   768   0.525E-01 0.821E-04
CGA:   5    -0.663390664120E+03   -0.92406E-02   -0.92410E-02   768   0.202E-01-0.802E-04
CGA:   6    -0.663394214523E+03   -0.35504E-02   -0.35504E-02   768   0.109E-01 0.492E-05
CGA:   7    -0.663395975409E+03   -0.17609E-02   -0.17606E-02   768   0.568E-02-0.136E-04
CGA:   8    -0.663396987421E+03   -0.10120E-02   -0.10120E-02   768   0.227E-02 0.435E-05
CGA:   9    -0.663397447862E+03   -0.46044E-03   -0.46049E-03   768   0.908E-03-0.112E-05
CGA:  10    -0.663397594248E+03   -0.14639E-03   -0.14641E-03   768   0.434E-03 0.200E-05
CGA:  11    -0.663397660443E+03   -0.66195E-04   -0.66197E-04   768   0.142E-03 0.146E-06
  41 F= -.66995581E+03 E0= -.66994500E+03  d E =-.639821E-02  mag=     0.8773
       N       E                     dE             d eps       ncg     rms          ort
SDA:   1    -0.661467548825E+03    0.19300E+01    0.00000E+00   768   0.529E+01 0.000E+00
CGA:   2    -0.662546630035E+03   -0.10791E+01   -0.10783E+01   768   0.303E+01 0.140E-01
CGA:   3    -0.663042446564E+03   -0.49582E+00   -0.49538E+00   768   0.149E+01-0.201E-01
CGA:   4    -0.663272841659E+03   -0.23040E+00   -0.23058E+00   768   0.425E+00 0.140E-02
CGA:   5    -0.663348155471E+03   -0.75314E-01   -0.75323E-01   768   0.166E+00-0.224E-02
CGA:   6    -0.663377230949E+03   -0.29075E-01   -0.29075E-01   768   0.861E-01 0.169E-03
CGA:   7    -0.663391397804E+03   -0.14167E-01   -0.14161E-01   768   0.454E-01-0.295E-03
CGA:   8    -0.663399329422E+03   -0.79316E-02   -0.79315E-02   768   0.179E-01 0.473E-04
CGA:   9    -0.663402967053E+03   -0.36376E-02   -0.36394E-02   768   0.709E-02-0.414E-04
CGA:  10    -0.663404116748E+03   -0.11497E-02   -0.11498E-02   768   0.332E-02 0.708E-05
CGA:  11    -0.663404619080E+03   -0.50233E-03   -0.50229E-03   768   0.106E-02-0.733E-06
CGA:  12    -0.663404834903E+03   -0.21582E-03   -0.21575E-03   768   0.459E-03 0.274E-05
CGA:  13    -0.663404913172E+03   -0.78269E-04   -0.78271E-04   768   0.284E-03 0.257E-06
  42 F= -.66996296E+03 E0= -.66995224E+03  d E =-.135454E-01  mag=     0.8725
       N       E                     dE             d eps       ncg     rms          ort
SDA:   1    -0.663167093022E+03    0.23774E+00    0.00000E+00   768   0.681E+00 0.000E+00
CGA:   2    -0.663298097543E+03   -0.13100E+00   -0.13100E+00   768   0.375E+00 0.102E-03
CGA:   3    -0.663361103808E+03   -0.63006E-01   -0.63003E-01   768   0.193E+00-0.284E-03
CGA:   4    -0.663392565200E+03   -0.31461E-01   -0.31462E-01   768   0.577E-01-0.147E-04
CGA:   5    -0.663403189818E+03   -0.10625E-01   -0.10625E-01   768   0.207E-01-0.152E-04
CGA:   6    -0.663407411127E+03   -0.42213E-02   -0.42219E-02   768   0.921E-02-0.179E-04
CGA:   7    -0.663409512413E+03   -0.21013E-02   -0.21012E-02   768   0.396E-02 0.920E-06
CGA:   8    -0.663410374357E+03   -0.86194E-03   -0.86217E-03   768   0.186E-02-0.367E-05
CGA:   9    -0.663410648047E+03   -0.27369E-03   -0.27376E-03   768   0.927E-03 0.200E-05
CGA:  10    -0.663410783359E+03   -0.13531E-03   -0.13530E-03   768   0.260E-03-0.129E-06
CGA:  11    -0.663410842829E+03   -0.59470E-04   -0.59413E-04   768   0.958E-04 0.115E-05
  43 F= -.66996890E+03 E0= -.66995821E+03  d E =-.594273E-02  mag=     0.8726
       N       E                     dE             d eps       ncg     rms          ort
SDA:   1    -0.662135225682E+03    0.12756E+01    0.00000E+00   768   0.359E+01 0.000E+00
CGA:   2    -0.662822847436E+03   -0.68762E+00   -0.68752E+00   768   0.197E+01 0.354E-02
CGA:   3    -0.663154961825E+03   -0.33211E+00   -0.33189E+00   768   0.103E+01-0.900E-02
CGA:   4    -0.663320127642E+03   -0.16517E+00   -0.16524E+00   768   0.307E+00 0.273E-03
CGA:   5    -0.663375753202E+03   -0.55626E-01   -0.55626E-01   768   0.115E+00-0.115E-02
CGA:   6    -0.663397354330E+03   -0.21601E-01   -0.21598E-01   768   0.582E-01 0.179E-03
CGA:   7    -0.663407226084E+03   -0.98718E-02   -0.98671E-02   768   0.347E-01-0.183E-03
CGA:   8    -0.663412497579E+03   -0.52715E-02   -0.52712E-02   768   0.131E-01-0.588E-06
CGA:   9    -0.663415154768E+03   -0.26572E-02   -0.26581E-02   768   0.438E-02-0.257E-04
CGA:  10    -0.663415973020E+03   -0.81825E-03   -0.81821E-03   768   0.205E-02 0.565E-05
CGA:  11    -0.663416249084E+03   -0.27606E-03   -0.27602E-03   768   0.793E-03-0.587E-06
CGA:  12    -0.663416402675E+03   -0.15359E-03   -0.15357E-03   768   0.282E-03 0.190E-05
CGA:  13    -0.663416464942E+03   -0.62267E-04   -0.62251E-04   768   0.215E-03 0.324E-06
  44 F= -.66997458E+03 E0= -.66996390E+03  d E =-.116249E-01  mag=     0.8722
       N       E                     dE             d eps       ncg     rms          ort
SDA:   1    -0.663254543768E+03    0.16186E+00    0.00000E+00   768   0.452E+00 0.000E+00
CGA:   2    -0.663348812170E+03   -0.94268E-01   -0.94277E-01   768   0.266E+00-0.182E-03
CGA:   3    -0.663390802030E+03   -0.41990E-01   -0.42009E-01   768   0.123E+00 0.321E-03
CGA:   4    -0.663409944974E+03   -0.19143E-01   -0.19137E-01   768   0.378E-01-0.617E-04
CGA:   5    -0.663416135464E+03   -0.61905E-02   -0.61913E-02   768   0.154E-01 0.235E-04
CGA:   6    -0.663418483511E+03   -0.23480E-02   -0.23473E-02   768   0.768E-02-0.135E-04
CGA:   7    -0.663419823799E+03   -0.13403E-02   -0.13403E-02   768   0.362E-02-0.448E-05
CGA:   8    -0.663420535898E+03   -0.71210E-03   -0.71230E-03   768   0.162E-02-0.722E-05
CGA:   9    -0.663420829829E+03   -0.29393E-03   -0.29392E-03   768   0.827E-03 0.216E-05
CGA:  10    -0.663420949366E+03   -0.11954E-03   -0.11954E-03   768   0.298E-03 0.107E-06
CGA:  11    -0.663421004658E+03   -0.55292E-04   -0.55277E-04   768   0.111E-03 0.157E-05
  45 F= -.66997917E+03 E0= -.66996849E+03  d E =-.458113E-02  mag=     0.8720
       N       E                     dE             d eps       ncg     rms          ort
SDA:   1    -0.663230332195E+03    0.19062E+00    0.00000E+00   768   0.523E+00 0.000E+00
CGA:   2    -0.663339536963E+03   -0.10920E+00   -0.10921E+00   768   0.305E+00-0.137E-03
CGA:   3    -0.663388194641E+03   -0.48658E-01   -0.48670E-01   768   0.140E+00 0.259E-03
CGA:   4    -0.663410140470E+03   -0.21946E-01   -0.21941E-01   768   0.423E-01-0.741E-04
CGA:   5    -0.663417270617E+03   -0.71301E-02   -0.71308E-02   768   0.162E-01 0.332E-04
CGA:   6    -0.663419947770E+03   -0.26772E-02   -0.26767E-02   768   0.898E-02-0.218E-04
CGA:   7    -0.663421373526E+03   -0.14258E-02   -0.14256E-02   768   0.427E-02-0.627E-05
CGA:   8    -0.663422191386E+03   -0.81786E-03   -0.81805E-03   768   0.174E-02-0.823E-05
CGA:   9    -0.663422539197E+03   -0.34781E-03   -0.34773E-03   768   0.805E-03 0.289E-05
CGA:  10    -0.663422655969E+03   -0.11677E-03   -0.11677E-03   768   0.350E-03 0.157E-06
CGA:  11    -0.663422713858E+03   -0.57889E-04   -0.57905E-04   768   0.110E-03 0.163E-05
  46 F= -.66998090E+03 E0= -.66997024E+03  d E =-.631941E-02  mag=     0.8719
       N       E                     dE             d eps       ncg     rms          ort
SDA:   1    -0.663232640163E+03    0.19002E+00    0.00000E+00   768   0.505E+00 0.000E+00
CGA:   2    -0.663349642207E+03   -0.11700E+00   -0.11703E+00   768   0.299E+00-0.380E-03
CGA:   3    -0.663396625614E+03   -0.46983E-01   -0.46998E-01   768   0.128E+00 0.255E-03
CGA:   4    -0.663415696900E+03   -0.19071E-01   -0.19064E-01   768   0.384E-01-0.514E-04
CGA:   5    -0.663421925546E+03   -0.62286E-02   -0.62293E-02   768   0.142E-01 0.186E-04
CGA:   6    -0.663424066399E+03   -0.21409E-02   -0.21404E-02   768   0.710E-02-0.930E-05
CGA:   7    -0.663425282443E+03   -0.12160E-02   -0.12160E-02   768   0.329E-02-0.524E-05
CGA:   8    -0.663425919682E+03   -0.63724E-03   -0.63741E-03   768   0.145E-02-0.697E-05
CGA:   9    -0.663426199608E+03   -0.27993E-03   -0.27991E-03   768   0.816E-03 0.104E-05
CGA:  10    -0.663426317873E+03   -0.11827E-03   -0.11824E-03   768   0.311E-03-0.526E-06
CGA:  11    -0.663426376056E+03   -0.58183E-04   -0.58168E-04   768   0.117E-03 0.121E-05
  47 F= -.66998480E+03 E0= -.66997403E+03  d E =-.389537E-02  mag=     0.8686
       N       E                     dE             d eps       ncg     rms          ort
SDA:   1    -0.663404301843E+03    0.22016E-01    0.00000E+00   768   0.581E-01 0.000E+00
CGA:   2    -0.663417803972E+03   -0.13502E-01   -0.13503E-01   768   0.340E-01-0.177E-04
CGA:   3    -0.663423232971E+03   -0.54290E-02   -0.54292E-02   768   0.144E-01 0.158E-05
CGA:   4    -0.663425397828E+03   -0.21649E-02   -0.21647E-02   768   0.431E-02 0.157E-05
CGA:   5    -0.663426102428E+03   -0.70460E-03   -0.70463E-03   768   0.149E-02 0.120E-05
CGA:   6    -0.663426346235E+03   -0.24381E-03   -0.24378E-03   768   0.834E-03-0.180E-05
CGA:   7    -0.663426478598E+03   -0.13236E-03   -0.13234E-03   768   0.405E-03-0.134E-05
CGA:   8    -0.663426555119E+03   -0.76521E-04   -0.76544E-04   768   0.169E-03-0.142E-05
  48 F= -.66998505E+03 E0= -.66997424E+03  d E =-.414986E-02  mag=     0.8673
       N       E                     dE             d eps       ncg     rms          ort
SDA:   1    -0.663286793197E+03    0.13969E+00    0.00000E+00   768   0.365E+00 0.000E+00
CGA:   2    -0.663385172156E+03   -0.98379E-01   -0.98377E-01   768   0.190E+00 0.255E-04
CGA:   3    -0.663412939732E+03   -0.27768E-01   -0.27779E-01   768   0.852E-01 0.103E-03
CGA:   4    -0.663424413692E+03   -0.11474E-01   -0.11477E-01   768   0.237E-01 0.353E-04
CGA:   5    -0.663428019273E+03   -0.36056E-02   -0.36053E-02   768   0.794E-02-0.149E-05
CGA:   6    -0.663429244602E+03   -0.12253E-02   -0.12251E-02   768   0.327E-02-0.616E-05
CGA:   7    -0.663429846332E+03   -0.60173E-03   -0.60180E-03   768   0.156E-02-0.679E-05
CGA:   8    -0.663430106469E+03   -0.26014E-03   -0.26010E-03   768   0.800E-03-0.476E-05
CGA:   9    -0.663430251543E+03   -0.14507E-03   -0.14508E-03   768   0.387E-03-0.432E-06
CGA:  10    -0.663430323361E+03   -0.71818E-04   -0.71821E-04   768   0.184E-03-0.263E-06
  49 F= -.66998907E+03 E0= -.66997830E+03  d E =-.401360E-02  mag=     0.8688
       N       E                     dE             d eps       ncg     rms          ort
SDA:   1    -0.663016864209E+03    0.41339E+00    0.00000E+00   768   0.106E+01 0.000E+00
CGA:   2    -0.663302434712E+03   -0.28557E+00   -0.28556E+00   768   0.543E+00 0.161E-03
CGA:   3    -0.663383276451E+03   -0.80842E-01   -0.80904E-01   768   0.240E+00 0.698E-03
CGA:   4    -0.663416101214E+03   -0.32825E-01   -0.32831E-01   768   0.685E-01 0.132E-03
CGA:   5    -0.663426174381E+03   -0.10073E-01   -0.10072E-01   768   0.226E-01-0.718E-05
CGA:   6    -0.663429737091E+03   -0.35627E-02   -0.35623E-02   768   0.924E-02-0.171E-04
CGA:   7    -0.663431439408E+03   -0.17023E-02   -0.17025E-02   768   0.438E-02-0.117E-04
CGA:   8    -0.663432179163E+03   -0.73976E-03   -0.73970E-03   768   0.225E-02-0.852E-05
CGA:   9    -0.663432580824E+03   -0.40166E-03   -0.40166E-03   768   0.109E-02-0.239E-06
CGA:  10    -0.663432784866E+03   -0.20404E-03   -0.20405E-03   768   0.502E-03-0.485E-06
CGA:  11    -0.663432867413E+03   -0.82547E-04   -0.82563E-04   768   0.229E-03 0.159E-05
  50 F= -.66999202E+03 E0= -.66998134E+03  d E =-.696429E-02  mag=     0.8716
       N       E                     dE             d eps       ncg     rms          ort
SDA:   1    -0.663339106128E+03    0.93679E-01    0.00000E+00   768   0.251E+00 0.000E+00
CGA:   2    -0.663405741123E+03   -0.66635E-01   -0.66628E-01   768   0.123E+00 0.565E-04
CGA:   3    -0.663425471054E+03   -0.19730E-01   -0.19728E-01   768   0.501E-01-0.596E-04
CGA:   4    -0.663432931998E+03   -0.74609E-02   -0.74619E-02   768   0.138E-01 0.285E-05
CGA:   5    -0.663435159567E+03   -0.22276E-02   -0.22274E-02   768   0.420E-02-0.595E-05
CGA:   6    -0.663435913432E+03   -0.75386E-03   -0.75388E-03   768   0.212E-02-0.328E-05
CGA:   7    -0.663436239791E+03   -0.32636E-03   -0.32627E-03   768   0.110E-02-0.362E-05
CGA:   8    -0.663436422379E+03   -0.18259E-03   -0.18258E-03   768   0.452E-03-0.131E-05
CGA:   9    -0.663436525042E+03   -0.10266E-03   -0.10273E-03   768   0.214E-03-0.129E-05
CGA:  10    -0.663436563650E+03   -0.38607E-04   -0.38605E-04   768   0.126E-03 0.608E-06
  51 F= -.66999601E+03 E0= -.66998540E+03  d E =-.399161E-02  mag=     0.8728
       N       E                     dE             d eps       ncg     rms          ort
SDA:   1    -0.663207583915E+03    0.22894E+00    0.00000E+00   768   0.594E+00 0.000E+00
CGA:   2    -0.663365360940E+03   -0.15778E+00   -0.15776E+00   768   0.292E+00 0.162E-03
CGA:   3    -0.663412129340E+03   -0.46768E-01   -0.46765E-01   768   0.119E+00-0.972E-04
CGA:   4    -0.663429855172E+03   -0.17726E-01   -0.17728E-01   768   0.321E-01 0.632E-05
CGA:   5    -0.663435212932E+03   -0.53578E-02   -0.53575E-02   768   0.932E-02-0.118E-04
CGA:   6    -0.663437059337E+03   -0.18464E-02   -0.18465E-02   768   0.389E-02-0.467E-05
CGA:   7    -0.663437858301E+03   -0.79896E-03   -0.79920E-03   768   0.187E-02-0.737E-05
CGA:   8    -0.663438165936E+03   -0.30764E-03   -0.30762E-03   768   0.123E-02-0.113E-05
CGA:   9    -0.663438360977E+03   -0.19504E-03   -0.19500E-03   768   0.455E-03-0.177E-05
CGA:  10    -0.663438462748E+03   -0.10177E-03   -0.10172E-03   768   0.165E-03 0.101E-05
CGA:  11    -0.663438495992E+03   -0.33244E-04   -0.33250E-04   768   0.102E-03-0.314E-06
  52 F= -.66999838E+03 E0= -.66998789E+03  d E =-.636557E-02  mag=     0.8745
       N       E                     dE             d eps       ncg     rms          ort
SDA:   1    -0.663351241201E+03    0.87222E-01    0.00000E+00   768   0.241E+00 0.000E+00
CGA:   2    -0.663409043115E+03   -0.57802E-01   -0.57799E-01   768   0.128E+00 0.184E-04
CGA:   3    -0.663428736723E+03   -0.19694E-01   -0.19686E-01   768   0.555E-01-0.126E-03
CGA:   4    -0.663436920394E+03   -0.81837E-02   -0.81848E-02   768   0.166E-01-0.862E-05
CGA:   5    -0.663439503690E+03   -0.25833E-02   -0.25830E-02   768   0.569E-02-0.464E-05
CGA:   6    -0.663440355823E+03   -0.85213E-03   -0.85210E-03   768   0.268E-02-0.372E-06
CGA:   7    -0.663440826254E+03   -0.47043E-03   -0.47043E-03   768   0.121E-02-0.246E-05
CGA:   8    -0.663441054646E+03   -0.22839E-03   -0.22839E-03   768   0.576E-03 0.864E-10
CGA:   9    -0.663441161239E+03   -0.10659E-03   -0.10660E-03   768   0.326E-03-0.134E-05
CGA:  10    -0.663441213170E+03   -0.51931E-04   -0.51939E-04   768   0.129E-03 0.430E-06
  53 F= -.67000141E+03 E0= -.66999093E+03  d E =-.302986E-02  mag=     0.8739
       N       E                     dE             d eps       ncg     rms          ort
SDA:   1    -0.663244305310E+03    0.19686E+00    0.00000E+00   768   0.532E+00 0.000E+00
CGA:   2    -0.663371170633E+03   -0.12687E+00   -0.12685E+00   768   0.287E+00 0.123E-03
CGA:   3    -0.663414595944E+03   -0.43425E-01   -0.43400E-01   768   0.125E+00-0.404E-03
CGA:   4    -0.663432843293E+03   -0.18247E-01   -0.18249E-01   768   0.376E-01-0.351E-04
CGA:   5    -0.663438545857E+03   -0.57026E-02   -0.57018E-02   768   0.134E-01-0.133E-04
CGA:   6    -0.663440564982E+03   -0.20191E-02   -0.20191E-02   768   0.576E-02 0.404E-07
CGA:   7    -0.663441619827E+03   -0.10548E-02   -0.10549E-02   768   0.273E-02-0.613E-05
CGA:   8    -0.663442113433E+03   -0.49361E-03   -0.49360E-03   768   0.135E-02 0.268E-06
CGA:   9    -0.663442352255E+03   -0.23882E-03   -0.23883E-03   768   0.712E-03-0.221E-05
CGA:  10    -0.663442474342E+03   -0.12209E-03   -0.12209E-03   768   0.286E-03 0.702E-06
CGA:  11    -0.663442526523E+03   -0.52181E-04   -0.52185E-04   768   0.131E-03-0.553E-06
  54 F= -.67000318E+03 E0= -.66999268E+03  d E =-.479465E-02  mag=     0.8727
       N       E                     dE             d eps       ncg     rms          ort
SDA:   1    -0.663354381122E+03    0.88093E-01    0.00000E+00   768   0.244E+00 0.000E+00
CGA:   2    -0.663413846492E+03   -0.59465E-01   -0.59456E-01   768   0.126E+00 0.106E-03
CGA:   3    -0.663433380421E+03   -0.19534E-01   -0.19530E-01   768   0.523E-01-0.882E-04
CGA:   4    -0.663441310931E+03   -0.79305E-02   -0.79315E-02   768   0.148E-01 0.268E-05
CGA:   5    -0.663443684103E+03   -0.23732E-02   -0.23730E-02   768   0.484E-02-0.534E-05
CGA:   6    -0.663444488331E+03   -0.80423E-03   -0.80422E-03   768   0.250E-02-0.142E-05
CGA:   7    -0.663444875362E+03   -0.38703E-03   -0.38695E-03   768   0.120E-02-0.330E-05
CGA:   8    -0.663445096275E+03   -0.22091E-03   -0.22092E-03   768   0.497E-03-0.901E-06
CGA:   9    -0.663445203552E+03   -0.10728E-03   -0.10733E-03   768   0.260E-03-0.127E-05
CGA:  10    -0.663445244440E+03   -0.40888E-04   -0.40903E-04   768   0.132E-03 0.813E-06
  55 F= -.67000611E+03 E0= -.66999565E+03  d E =-.292665E-02  mag=     0.8737
       N       E                     dE             d eps       ncg     rms          ort
SDA:   1    -0.663204737602E+03    0.24047E+00    0.00000E+00   768   0.652E+00 0.000E+00
CGA:   2    -0.663362633425E+03   -0.15790E+00   -0.15784E+00   768   0.339E+00 0.591E-03
CGA:   3    -0.663414659701E+03   -0.52026E-01   -0.52004E-01   768   0.143E+00-0.431E-03
CGA:   4    -0.663436020898E+03   -0.21361E-01   -0.21367E-01   768   0.410E-01 0.240E-04
CGA:   5    -0.663442414618E+03   -0.63937E-02   -0.63926E-02   768   0.144E-01-0.252E-04
CGA:   6    -0.663444622998E+03   -0.22084E-02   -0.22083E-02   768   0.684E-02-0.244E-05
CGA:   7    -0.663445767597E+03   -0.11446E-02   -0.11445E-02   768   0.308E-02-0.861E-05
CGA:   8    -0.663446358328E+03   -0.59073E-03   -0.59071E-03   768   0.139E-02-0.700E-07
CGA:   9    -0.663446625074E+03   -0.26675E-03   -0.26680E-03   768   0.790E-03-0.241E-05
CGA:  10    -0.663446747033E+03   -0.12196E-03   -0.12199E-03   768   0.320E-03 0.135E-05
CGA:  11    -0.663446806418E+03   -0.59385E-04   -0.59385E-04   768   0.118E-03 0.196E-07
  56 F= -.67000798E+03 E0= -.66999758E+03  d E =-.480057E-02  mag=     0.8753
       N       E                     dE             d eps       ncg     rms          ort
SDA:   1    -0.663387685910E+03    0.59061E-01    0.00000E+00   768   0.165E+00 0.000E+00
CGA:   2    -0.663429972158E+03   -0.42286E-01   -0.42285E-01   768   0.742E-01 0.838E-05
CGA:   3    -0.663442082309E+03   -0.12110E-01   -0.12109E-01   768   0.323E-01-0.456E-04
CGA:   4    -0.663446807491E+03   -0.47252E-02   -0.47258E-02   768   0.891E-02 0.705E-06
CGA:   5    -0.663448199002E+03   -0.13915E-02   -0.13915E-02   768   0.278E-02 0.139E-05
CGA:   6    -0.663448646708E+03   -0.44771E-03   -0.44770E-03   768   0.137E-02-0.940E-07
CGA:   7    -0.663448860196E+03   -0.21349E-03   -0.21344E-03   768   0.608E-03-0.215E-05
CGA:   8    -0.663448973785E+03   -0.11359E-03   -0.11360E-03   768   0.261E-03-0.117E-05
CGA:   9    -0.663449029583E+03   -0.55798E-04   -0.55834E-04   768   0.151E-03-0.885E-06
  57 F= -.67001044E+03 E0= -.67000003E+03  d E =-.246297E-02  mag=     0.8750
       N       E                     dE             d eps       ncg     rms          ort
SDA:   1    -0.662899590409E+03    0.54938E+00    0.00000E+00   768   0.149E+01 0.000E+00
CGA:   2    -0.663278890854E+03   -0.37930E+00   -0.37925E+00   768   0.678E+00 0.402E-03
CGA:   3    -0.663387896217E+03   -0.10901E+00   -0.10897E+00   768   0.299E+00-0.103E-02
CGA:   4    -0.663430960027E+03   -0.43064E-01   -0.43089E-01   768   0.823E-01 0.873E-04
CGA:   5    -0.663443853889E+03   -0.12894E-01   -0.12891E-01   768   0.276E-01-0.511E-04
CGA:   6    -0.663447955452E+03   -0.41016E-02   -0.41015E-02   768   0.126E-01 0.179E-06
CGA:   7    -0.663450061731E+03   -0.21063E-02   -0.21062E-02   768   0.527E-02-0.115E-04
CGA:   8    -0.663451066748E+03   -0.10050E-02   -0.10050E-02   768   0.242E-02 0.148E-06
CGA:   9    -0.663451538475E+03   -0.47173E-03   -0.47180E-03   768   0.145E-02-0.334E-05
CGA:  10    -0.663451767835E+03   -0.22936E-03   -0.22940E-03   768   0.617E-03 0.232E-05
CGA:  11    -0.663451886012E+03   -0.11818E-03   -0.11817E-03   768   0.238E-03 0.250E-06
CGA:  12    -0.663451928366E+03   -0.42353E-04   -0.42351E-04   768   0.127E-03 0.111E-05
  58 F= -.67001400E+03 E0= -.67000354E+03  d E =-.601959E-02  mag=     0.8736
       N       E                     dE             d eps       ncg     rms          ort
SDA:   1    -0.663312446061E+03    0.13944E+00    0.00000E+00   768   0.385E+00 0.000E+00
CGA:   2    -0.663413645432E+03   -0.10120E+00   -0.10120E+00   768   0.158E+00 0.725E-05
CGA:   3    -0.663440222645E+03   -0.26577E-01   -0.26575E-01   768   0.718E-01-0.121E-03
CGA:   4    -0.663450122619E+03   -0.99000E-02   -0.99031E-02   768   0.201E-01 0.395E-06
CGA:   5    -0.663453162797E+03   -0.30402E-02   -0.30400E-02   768   0.615E-02 0.223E-06
CGA:   6    -0.663454078622E+03   -0.91582E-03   -0.91580E-03   768   0.276E-02-0.332E-06
CGA:   7    -0.663454545355E+03   -0.46673E-03   -0.46671E-03   768   0.108E-02-0.355E-05
CGA:   8    -0.663454750011E+03   -0.20466E-03   -0.20468E-03   768   0.532E-03-0.147E-05
CGA:   9    -0.663454849856E+03   -0.99845E-04   -0.99864E-04   768   0.320E-03-0.148E-05
  59 F= -.67001746E+03 E0= -.67000705E+03  d E =-.346407E-02  mag=     0.8742
       N       E                     dE             d eps       ncg     rms          ort
SDA:   1    -0.663129558350E+03    0.32519E+00    0.00000E+00   768   0.883E+00 0.000E+00
CGA:   2    -0.663361617760E+03   -0.23206E+00   -0.23206E+00   768   0.359E+00-0.808E-04
CGA:   3    -0.663422986672E+03   -0.61369E-01   -0.61365E-01   768   0.159E+00-0.245E-03
CGA:   4    -0.663445557620E+03   -0.22571E-01   -0.22580E-01   768   0.415E-01 0.365E-04
CGA:   5    -0.663452357345E+03   -0.67997E-02   -0.67991E-02   768   0.124E-01-0.179E-04
CGA:   6    -0.663454367851E+03   -0.20105E-02   -0.20106E-02   768   0.617E-02 0.790E-06
CGA:   7    -0.663455305437E+03   -0.93759E-03   -0.93747E-03   768   0.261E-02-0.473E-05
CGA:   8    -0.663455779390E+03   -0.47395E-03   -0.47396E-03   768   0.111E-02-0.153E-05
CGA:   9    -0.663456031341E+03   -0.25195E-03   -0.25207E-03   768   0.621E-03-0.219E-05
CGA:  10    -0.663456132991E+03   -0.10165E-03   -0.10167E-03   768   0.342E-03 0.108E-05
CGA:  11    -0.663456190680E+03   -0.57689E-04   -0.57685E-04   768   0.118E-03-0.433E-06
  60 F= -.67001960E+03 E0= -.67000925E+03  d E =-.560431E-02  mag=     0.8752
       N       E                     dE             d eps       ncg     rms          ort
SDA:   1    -0.663295057755E+03    0.16108E+00    0.00000E+00   768   0.441E+00 0.000E+00
CGA:   2    -0.663413699198E+03   -0.11864E+00   -0.11862E+00   768   0.169E+00 0.221E-03
CGA:   3    -0.663443649412E+03   -0.29950E-01   -0.29951E-01   768   0.729E-01 0.281E-04
CGA:   4    -0.663453937562E+03   -0.10288E-01   -0.10287E-01   768   0.194E-01-0.425E-05
CGA:   5    -0.663457022137E+03   -0.30846E-02   -0.30847E-02   768   0.503E-02 0.251E-05
CGA:   6    -0.663457957058E+03   -0.93492E-03   -0.93496E-03   768   0.230E-02-0.483E-05
CGA:   7    -0.663458309281E+03   -0.35222E-03   -0.35215E-03   768   0.112E-02-0.293E-05
CGA:   8    -0.663458485888E+03   -0.17661E-03   -0.17655E-03   768   0.473E-03-0.284E-05
CGA:   9    -0.663458594015E+03   -0.10813E-03   -0.10813E-03   768   0.219E-03-0.110E-06
CGA:  10    -0.663458639596E+03   -0.45582E-04   -0.45590E-04   768   0.133E-03-0.280E-06
  61 F= -.67002253E+03 E0= -.67001223E+03  d E =-.293175E-02  mag=     0.8761
       N       E                     dE             d eps       ncg     rms          ort
SDA:   1    -0.663245709797E+03    0.21288E+00    0.00000E+00   768   0.576E+00 0.000E+00
CGA:   2    -0.663400558277E+03   -0.15485E+00   -0.15481E+00   768   0.220E+00 0.341E-03
CGA:   3    -0.663439791310E+03   -0.39233E-01   -0.39234E-01   768   0.938E-01 0.383E-04
CGA:   4    -0.663453209243E+03   -0.13418E-01   -0.13417E-01   768   0.246E-01-0.440E-05
CGA:   5    -0.663457146030E+03   -0.39368E-02   -0.39369E-02   768   0.660E-02 0.259E-05
CGA:   6    -0.663458378793E+03   -0.12328E-02   -0.12328E-02   768   0.281E-02-0.594E-05
CGA:   7    -0.663458845769E+03   -0.46698E-03   -0.46693E-03   768   0.143E-02-0.328E-05
CGA:   8    -0.663459057800E+03   -0.21203E-03   -0.21194E-03   768   0.642E-03-0.289E-05
CGA:   9    -0.663459198428E+03   -0.14063E-03   -0.14062E-03   768   0.278E-03-0.216E-07
CGA:  10    -0.663459260497E+03   -0.62069E-04   -0.62081E-04   768   0.153E-03-0.281E-06
  62 F= -.67002369E+03 E0= -.67001342E+03  d E =-.408619E-02  mag=     0.8770
       N       E                     dE             d eps       ncg     rms          ort
SDA:   1    -0.663375098644E+03    0.84100E-01    0.00000E+00   768   0.232E+00 0.000E+00
CGA:   2    -0.663438562197E+03   -0.63464E-01   -0.63470E-01   768   0.830E-01-0.620E-04
CGA:   3    -0.663454231315E+03   -0.15669E-01   -0.15669E-01   768   0.338E-01-0.792E-06
CGA:   4    -0.663459068016E+03   -0.48367E-02   -0.48373E-02   768   0.916E-02 0.353E-05
CGA:   5    -0.663460492346E+03   -0.14243E-02   -0.14243E-02   768   0.237E-02-0.139E-06
CGA:   6    -0.663460953013E+03   -0.46067E-03   -0.46068E-03   768   0.955E-03-0.991E-06
CGA:   7    -0.663461122713E+03   -0.16970E-03   -0.16969E-03   768   0.437E-03-0.144E-05
CGA:   8    -0.663461188505E+03   -0.65792E-04   -0.65787E-04   768   0.244E-03-0.151E-06
  63 F= -.67002595E+03 E0= -.67001566E+03  d E =-.226090E-02  mag=     0.8762
       N       E                     dE             d eps       ncg     rms          ort
SDA:   1    -0.662773114400E+03    0.68801E+00    0.00000E+00   768   0.186E+01 0.000E+00
CGA:   2    -0.663279989324E+03   -0.50687E+00   -0.50701E+00   768   0.678E+00-0.133E-02
CGA:   3    -0.663404819866E+03   -0.12483E+00   -0.12483E+00   768   0.287E+00-0.129E-03
CGA:   4    -0.663444020019E+03   -0.39200E-01   -0.39239E-01   768   0.811E-01 0.963E-04
CGA:   5    -0.663456497290E+03   -0.12477E-01   -0.12474E-01   768   0.226E-01-0.331E-04
CGA:   6    -0.663459982795E+03   -0.34855E-02   -0.34853E-02   768   0.111E-01-0.230E-05
CGA:   7    -0.663461708271E+03   -0.17255E-02   -0.17254E-02   768   0.375E-02-0.316E-05
CGA:   8    -0.663462428705E+03   -0.72043E-03   -0.72042E-03   768   0.178E-02 0.908E-06
CGA:   9    -0.663462795826E+03   -0.36712E-03   -0.36716E-03   768   0.110E-02-0.138E-05
CGA:  10    -0.663462970601E+03   -0.17478E-03   -0.17480E-03   768   0.522E-03 0.141E-05
CGA:  11    -0.663463076385E+03   -0.10578E-03   -0.10580E-03   768   0.215E-03-0.581E-06
CGA:  12    -0.663463116721E+03   -0.40336E-04   -0.40333E-04   768   0.117E-03 0.530E-06
  64 F= -.67002880E+03 E0= -.67001843E+03  d E =-.511319E-02  mag=     0.8733
       N       E                     dE             d eps       ncg     rms          ort
SDA:   1    -0.663308463685E+03    0.15461E+00    0.00000E+00   768   0.429E+00 0.000E+00
CGA:   2    -0.663423347502E+03   -0.11488E+00   -0.11489E+00   768   0.164E+00-0.443E-04
CGA:   3    -0.663451289458E+03   -0.27942E-01   -0.27945E-01   768   0.722E-01 0.953E-04
CGA:   4    -0.663461377761E+03   -0.10088E-01   -0.10085E-01   768   0.196E-01 0.347E-05
CGA:   5    -0.663464378124E+03   -0.30004E-02   -0.30006E-02   768   0.541E-02 0.274E-05
CGA:   6    -0.663465216608E+03   -0.83848E-03   -0.83839E-03   768   0.265E-02-0.319E-05
CGA:   7    -0.663465625026E+03   -0.40842E-03   -0.40837E-03   768   0.945E-03-0.191E-05
CGA:   8    -0.663465805217E+03   -0.18019E-03   -0.18021E-03   768   0.426E-03-0.144E-05
CGA:   9    -0.663465896123E+03   -0.90906E-04   -0.90882E-04   768   0.259E-03 0.679E-06
  65 F= -.67003185E+03 E0= -.67002147E+03  d E =-.305157E-02  mag=     0.8729
       N       E                     dE             d eps       ncg     rms          ort
[...]
CGA:  12    -0.663470375560E+03   -0.84549E-04   -0.84552E-04   768   0.247E-03-0.948E-06
  66 F= -.67003713E+03 E0= -.67002669E+03  d E =-.832899E-02  mag=     0.8714
       N       E                     dE             d eps       ncg     rms          ort
SDA:   1    -0.663155106884E+03    0.31518E+00    0.00000E+00   768   0.860E+00 0.000E+00
CGA:   2    -0.663384676701E+03   -0.22957E+00   -0.22959E+00   768   0.335E+00-0.197E-03
CGA:   3    -0.663440037070E+03   -0.55360E-01   -0.55377E-01   768   0.153E+00 0.411E-03
CGA:   4    -0.663460890129E+03   -0.20853E-01   -0.20843E-01   768   0.423E-01 0.151E-04
CGA:   5    -0.663467154777E+03   -0.62646E-02   -0.62652E-02   768   0.122E-01 0.997E-05
CGA:   6    -0.663468968170E+03   -0.18134E-02   -0.18132E-02   768   0.527E-02-0.470E-05
CGA:   7    -0.663469867485E+03   -0.89931E-03   -0.89930E-03   768   0.190E-02-0.224E-05
CGA:   8    -0.663470220617E+03   -0.35313E-03   -0.35316E-03   768   0.955E-03-0.215E-05
CGA:   9    -0.663470398949E+03   -0.17833E-03   -0.17832E-03   768   0.557E-03 0.113E-05
CGA:  10    -0.663470496565E+03   -0.97615E-04   -0.97614E-04   768   0.250E-03-0.475E-06
  67 F= -.67003762E+03 E0= -.67002715E+03  d E =-.881639E-02  mag=     0.8709
       N       E                     dE             d eps       ncg     rms          ort
SDA:   1    -0.663195753445E+03    0.27465E+00    0.00000E+00   768   0.756E+00 0.000E+00
CGA:   2    -0.663399751799E+03   -0.20400E+00   -0.20401E+00   768   0.302E+00-0.193E-04
CGA:   3    -0.663446054356E+03   -0.46303E-01   -0.46317E-01   768   0.150E+00 0.197E-03
CGA:   4    -0.663465672398E+03   -0.19618E-01   -0.19626E-01   768   0.380E-01 0.712E-04
CGA:   5    -0.663471419532E+03   -0.57471E-02   -0.57473E-02   768   0.102E-01 0.541E-05
CGA:   6    -0.663473112859E+03   -0.16933E-02   -0.16932E-02   768   0.406E-02-0.824E-05
CGA:   7    -0.663473805274E+03   -0.69242E-03   -0.69239E-03   768   0.173E-02-0.380E-05
CGA:   8    -0.663474074864E+03   -0.26959E-03   -0.26955E-03   768   0.782E-03-0.196E-05
CGA:   9    -0.663474235128E+03   -0.16026E-03   -0.16022E-03   768   0.395E-03 0.131E-05
CGA:  10    -0.663474312086E+03   -0.76958E-04   -0.76962E-04   768   0.225E-03-0.221E-06
  68 F= -.67004171E+03 E0= -.67003126E+03  d E =-.408911E-02  mag=     0.8718
       N       E                     dE             d eps       ncg     rms          ort
SDA:   1    -0.660968953856E+03    0.25053E+01    0.00000E+00   768   0.684E+01 0.000E+00
CGA:   2    -0.662807530414E+03   -0.18386E+01   -0.18388E+01   768   0.273E+01-0.694E-03
CGA:   3    -0.663228185334E+03   -0.42065E+00   -0.42116E+00   768   0.131E+01 0.774E-02
CGA:   4    -0.663400872460E+03   -0.17269E+00   -0.17283E+00   768   0.350E+00 0.171E-02
CGA:   5    -0.663453672793E+03   -0.52800E-01   -0.52805E-01   768   0.937E-01 0.171E-03
CGA:   6    -0.663468895641E+03   -0.15223E-01   -0.15221E-01   768   0.371E-01-0.857E-04
CGA:   7    -0.663475347441E+03   -0.64518E-02   -0.64518E-02   768   0.151E-01 0.160E-05
CGA:   8    -0.663477706242E+03   -0.23588E-02   -0.23587E-02   768   0.706E-02-0.505E-05
CGA:   9    -0.663479105652E+03   -0.13994E-02   -0.13991E-02   768   0.345E-02 0.102E-04
CGA:  10    -0.663479786889E+03   -0.68124E-03   -0.68125E-03   768   0.189E-02-0.526E-06
CGA:  11    -0.663480104304E+03   -0.31741E-03   -0.31744E-03   768   0.903E-03 0.287E-05
CGA:  12    -0.663480274060E+03   -0.16976E-03   -0.16977E-03   768   0.359E-03-0.147E-05
CGA:  13    -0.663480338353E+03   -0.64293E-04   -0.64292E-04   768   0.181E-03 0.818E-06
  69 F= -.67004854E+03 E0= -.67003816E+03  d E =-.109245E-01  mag=     0.8748
       N       E                     dE             d eps       ncg     rms          ort
SDA:   1    -0.662819438987E+03    0.66084E+00    0.00000E+00   768   0.182E+01 0.000E+00
CGA:   2    -0.663299133095E+03   -0.47969E+00   -0.47999E+00   768   0.774E+00-0.275E-02
CGA:   3    -0.663415213546E+03   -0.11608E+00   -0.11614E+00   768   0.368E+00 0.869E-03
CGA:   4    -0.663464092615E+03   -0.48879E-01   -0.48891E-01   768   0.969E-01 0.231E-03
CGA:   5    -0.663479099473E+03   -0.15007E-01   -0.15008E-01   768   0.263E-01 0.276E-04
CGA:   6    -0.663483284523E+03   -0.41851E-02   -0.41846E-02   768   0.106E-01-0.189E-04
CGA:   7    -0.663485137277E+03   -0.18528E-02   -0.18528E-02   768   0.443E-02-0.375E-05
CGA:   8    -0.663485836391E+03   -0.69911E-03   -0.69905E-03   768   0.205E-02-0.287E-05
CGA:   9    -0.663486248836E+03   -0.41245E-03   -0.41235E-03   768   0.103E-02 0.350E-05
CGA:  10    -0.663486446925E+03   -0.19809E-03   -0.19810E-03   768   0.556E-03-0.367E-06
CGA:  11    -0.663486541858E+03   -0.94933E-04   -0.94938E-04   768   0.264E-03 0.942E-06
  70 F= -.67005518E+03 E0= -.67004480E+03  d E =-.664090E-02  mag=     0.8746
       N       E                     dE             d eps       ncg     rms          ort
SDA:   1    -0.663093764207E+03    0.39268E+00    0.00000E+00   768   0.107E+01 0.000E+00
CGA:   2    -0.663377377953E+03   -0.28361E+00   -0.28375E+00   768   0.452E+00-0.124E-02
CGA:   3    -0.663445943714E+03   -0.68566E-01   -0.68588E-01   768   0.216E+00 0.344E-03
CGA:   4    -0.663474437959E+03   -0.28494E-01   -0.28502E-01   768   0.577E-01 0.117E-03
CGA:   5    -0.663483216550E+03   -0.87786E-02   -0.87790E-02   768   0.153E-01 0.121E-04
CGA:   6    -0.663485731857E+03   -0.25153E-02   -0.25151E-02   768   0.627E-02-0.115E-04
CGA:   7    -0.663486813227E+03   -0.10814E-02   -0.10814E-02   768   0.268E-02-0.354E-05
CGA:   8    -0.663487236612E+03   -0.42339E-03   -0.42334E-03   768   0.123E-02-0.203E-05
CGA:   9    -0.663487483754E+03   -0.24714E-03   -0.24708E-03   768   0.621E-03 0.243E-05
CGA:  10    -0.663487604055E+03   -0.12030E-03   -0.12031E-03   768   0.340E-03-0.220E-06
CGA:  11    -0.663487661417E+03   -0.57361E-04   -0.57366E-04   768   0.161E-03 0.676E-06
  71 F= -.67005663E+03 E0= -.67004624E+03  d E =-.808738E-02  mag=     0.8743
       N       E                     dE             d eps       ncg     rms          ort
SDA:   1    -0.663133999549E+03    0.35360E+00    0.00000E+00   768   0.978E+00 0.000E+00
CGA:   2    -0.663390321784E+03   -0.25632E+00   -0.25636E+00   768   0.439E+00-0.242E-03
CGA:   3    -0.663450954190E+03   -0.60632E-01   -0.60627E-01   768   0.207E+00 0.128E-03
CGA:   4    -0.663479534667E+03   -0.28580E-01   -0.28592E-01   768   0.514E-01 0.129E-03
CGA:   5    -0.663487613507E+03   -0.80788E-02   -0.80792E-02   768   0.134E-01 0.877E-05
CGA:   6    -0.663489853886E+03   -0.22404E-02   -0.22402E-02   768   0.560E-02-0.135E-04
CGA:   7    -0.663490771120E+03   -0.91723E-03   -0.91716E-03   768   0.245E-02-0.553E-05
CGA:   8    -0.663491157748E+03   -0.38663E-03   -0.38657E-03   768   0.104E-02-0.303E-05
CGA:   9    -0.663491379353E+03   -0.22161E-03   -0.22153E-03   768   0.540E-03 0.191E-05
CGA:  10    -0.663491479878E+03   -0.10053E-03   -0.10053E-03   768   0.313E-03-0.333E-06
CGA:  11    -0.663491531626E+03   -0.51748E-04   -0.51754E-04   768   0.128E-03 0.613E-06
  72 F= -.67006074E+03 E0= -.67005039E+03  d E =-.410890E-02  mag=     0.8753
       N       E                     dE             d eps       ncg     rms          ort
SDA:   1    -0.660269852285E+03    0.32216E+01    0.00000E+00   768   0.887E+01 0.000E+00
CGA:   2    -0.662576748075E+03   -0.23069E+01   -0.23079E+01   768   0.405E+01-0.715E-02
CGA:   3    -0.663125452486E+03   -0.54870E+00   -0.54860E+00   768   0.185E+01 0.734E-02
CGA:   4    -0.663385028259E+03   -0.25958E+00   -0.25989E+00   768   0.473E+00 0.348E-02
CGA:   5    -0.663459848366E+03   -0.74820E-01   -0.74833E-01   768   0.126E+00 0.317E-03
CGA:   6    -0.663480546905E+03   -0.20699E-01   -0.20695E-01   768   0.515E-01-0.183E-03
CGA:   7    -0.663489161180E+03   -0.86143E-02   -0.86142E-02   768   0.226E-01-0.879E-05
CGA:   8    -0.663492652758E+03   -0.34916E-02   -0.34913E-02   768   0.947E-02-0.122E-04
CGA:   9    -0.663494658657E+03   -0.20059E-02   -0.20051E-02   768   0.483E-02 0.176E-04
CGA:  10    -0.663495560928E+03   -0.90227E-03   -0.90229E-03   768   0.276E-02-0.167E-05
CGA:  11    -0.663496016410E+03   -0.45548E-03   -0.45553E-03   768   0.116E-02 0.345E-05
CGA:  12    -0.663496248877E+03   -0.23247E-03   -0.23253E-03   768   0.505E-03-0.248E-05
CGA:  13    -0.663496331574E+03   -0.82697E-04   -0.82705E-04   768   0.250E-03 0.739E-06
  73 F= -.67006621E+03 E0= -.67005599E+03  d E =-.958265E-02  mag=     0.8784
       N       E                     dE             d eps       ncg     rms          ort
SDA:   1    -0.663416576848E+03    0.79672E-01    0.00000E+00   768   0.223E+00 0.000E+00
CGA:   2    -0.663477130141E+03   -0.60553E-01   -0.60535E-01   768   0.102E+00 0.178E-03
CGA:   3    -0.663491351646E+03   -0.14222E-01   -0.14224E-01   768   0.477E-01 0.180E-04
CGA:   4    -0.663497891110E+03   -0.65395E-02   -0.65406E-02   768   0.118E-01 0.180E-04
CGA:   5    -0.663499762354E+03   -0.18712E-02   -0.18712E-02   768   0.320E-02-0.253E-05
CGA:   6    -0.663500263545E+03   -0.50119E-03   -0.50108E-03   768   0.127E-02-0.545E-05
CGA:   7    -0.663500480194E+03   -0.21665E-03   -0.21663E-03   768   0.551E-03-0.359E-05
CGA:   8    -0.663500566453E+03   -0.86259E-04   -0.86226E-04   768   0.247E-03-0.178E-05
  74 F= -.67007052E+03 E0= -.67006029E+03  d E =-.430511E-02  mag=     0.8791
       N       E                     dE             d eps       ncg     rms          ort
SDA:   1    -0.663477641613E+03    0.22839E-01    0.00000E+00   768   0.629E-01 0.000E+00
CGA:   2    -0.663494233267E+03   -0.16592E-01   -0.16589E-01   768   0.327E-01 0.267E-04
CGA:   3    -0.663498308174E+03   -0.40749E-02   -0.40735E-02   768   0.141E-01-0.295E-05
CGA:   4    -0.663500377249E+03   -0.20691E-02   -0.20694E-02   768   0.316E-02 0.835E-05
CGA:   5    -0.663500954260E+03   -0.57701E-03   -0.57702E-03   768   0.883E-03-0.182E-05
CGA:   6    -0.663501098709E+03   -0.14445E-03   -0.14441E-03   768   0.432E-03-0.261E-05
CGA:   7    -0.663501167436E+03   -0.68727E-04   -0.68694E-04   768   0.181E-03-0.197E-05
  75 F= -.67007115E+03 E0= -.67006093E+03  d E =-.494121E-02  mag=     0.8795
       N       E                     dE             d eps       ncg     rms          ort
SDA:   1    -0.663436731426E+03    0.64367E-01    0.00000E+00   768   0.176E+00 0.000E+00
CGA:   2    -0.663487040357E+03   -0.50309E-01   -0.50315E-01   768   0.656E-01-0.510E-04
CGA:   3    -0.663498862718E+03   -0.11822E-01   -0.11822E-01   768   0.274E-01 0.770E-05
CGA:   4    -0.663502637870E+03   -0.37752E-02   -0.37752E-02   768   0.737E-02 0.477E-06
CGA:   5    -0.663503854780E+03   -0.12169E-02   -0.12169E-02   768   0.180E-02 0.194E-06
CGA:   6    -0.663504213618E+03   -0.35884E-03   -0.35883E-03   768   0.733E-03 0.184E-06
CGA:   7    -0.663504343308E+03   -0.12969E-03   -0.12969E-03   768   0.330E-03-0.567E-06
CGA:   8    -0.663504395629E+03   -0.52322E-04   -0.52331E-04   768   0.203E-03 0.462E-06
  76 F= -.67007458E+03 E0= -.67006426E+03  d E =-.342280E-02  mag=     0.8779
       N       E                     dE             d eps       ncg     rms          ort
SDA:   1    -0.663451114570E+03    0.53229E-01    0.00000E+00   768   0.141E+00 0.000E+00
CGA:   2    -0.663491424849E+03   -0.40310E-01   -0.40315E-01   768   0.519E-01-0.399E-04
CGA:   3    -0.663501075609E+03   -0.96508E-02   -0.96507E-02   768   0.214E-01 0.889E-05
CGA:   4    -0.663503971292E+03   -0.28957E-02   -0.28956E-02   768   0.571E-02 0.260E-06
CGA:   5    -0.663504952140E+03   -0.98085E-03   -0.98085E-03   768   0.137E-02 0.724E-06
CGA:   6    -0.663505245290E+03   -0.29315E-03   -0.29316E-03   768   0.539E-03-0.188E-06
CGA:   7    -0.663505351969E+03   -0.10668E-03   -0.10668E-03   768   0.197E-03-0.309E-06
CGA:   8    -0.663505405425E+03   -0.53456E-04   -0.53409E-04   768   0.904E-04 0.540E-06
  77 F= -.67007575E+03 E0= -.67006535E+03  d E =-.459723E-02  mag=     0.8762
       N       E                     dE             d eps       ncg     rms          ort
SDA:   1    -0.663489986147E+03    0.15366E-01    0.00000E+00   768   0.417E-01 0.000E+00
CGA:   2    -0.663503132345E+03   -0.13146E-01   -0.13147E-01   768   0.152E-01-0.996E-05
CGA:   3    -0.663505943638E+03   -0.28113E-02   -0.28113E-02   768   0.649E-02 0.218E-05
CGA:   4    -0.663506710310E+03   -0.76667E-03   -0.76619E-03   768   0.195E-02-0.247E-05
CGA:   5    -0.663507006807E+03   -0.29650E-03   -0.29650E-03   768   0.520E-03-0.614E-07
CGA:   6    -0.663507095882E+03   -0.89075E-04   -0.89088E-04   768   0.213E-03 0.674E-06
  78 F= -.67007753E+03 E0= -.67006712E+03  d E =-.178011E-02  mag=     0.8753
       N       E                     dE             d eps       ncg     rms          ort
SDA:   1    -0.663488187218E+03    0.18820E-01    0.00000E+00   768   0.473E-01 0.000E+00
CGA:   2    -0.663503022733E+03   -0.14836E-01   -0.14837E-01   768   0.186E-01-0.126E-04
CGA:   3    -0.663506046226E+03   -0.30235E-02   -0.30237E-02   768   0.916E-02 0.459E-05
CGA:   4    -0.663507137728E+03   -0.10915E-02   -0.10903E-02   768   0.247E-02-0.214E-05
CGA:   5    -0.663507551060E+03   -0.41333E-03   -0.41332E-03   768   0.565E-03-0.450E-06
CGA:   6    -0.663507661885E+03   -0.11083E-03   -0.11082E-03   768   0.273E-03 0.865E-06
CGA:   7    -0.663507704613E+03   -0.42728E-04   -0.42749E-04   768   0.129E-03 0.622E-06
  79 F= -.67007823E+03 E0= -.67006780E+03  d E =-.248111E-02  mag=     0.8742
       N       E                     dE             d eps       ncg     rms          ort
SDA:   1    -0.663490859115E+03    0.16803E-01    0.00000E+00   768   0.441E-01 0.000E+00
CGA:   2    -0.663504539594E+03   -0.13680E-01   -0.13677E-01   768   0.176E-01 0.265E-04
CGA:   3    -0.663507400504E+03   -0.28609E-02   -0.28606E-02   768   0.812E-02-0.555E-05
CGA:   4    -0.663508350747E+03   -0.95024E-03   -0.95096E-03   768   0.223E-02 0.111E-05
CGA:   5    -0.663508726108E+03   -0.37536E-03   -0.37534E-03   768   0.510E-03-0.115E-05
CGA:   6    -0.663508819632E+03   -0.93523E-04   -0.93520E-04   768   0.240E-03-0.127E-05
  80 F= -.67007940E+03 E0= -.67006900E+03  d E =-.117167E-02  mag=     0.8748
       N       E                     dE             d eps       ncg     rms          ort
SDA:   1    -0.663500132079E+03    0.85940E-02    0.00000E+00   768   0.218E-01 0.000E+00
CGA:   2    -0.663506860246E+03   -0.67282E-02   -0.67269E-02   768   0.953E-02 0.984E-05
CGA:   3    -0.663508198501E+03   -0.13383E-02   -0.13378E-02   768   0.468E-02-0.422E-05
CGA:   4    -0.663508801507E+03   -0.60301E-03   -0.60329E-03   768   0.115E-02 0.173E-05
CGA:   5    -0.663509006110E+03   -0.20460E-03   -0.20460E-03   768   0.260E-03-0.932E-06
CGA:   6    -0.663509058368E+03   -0.52258E-04   -0.52271E-04   768   0.137E-03-0.860E-06
  81 F= -.67007968E+03 E0= -.67006931E+03  d E =-.144945E-02  mag=     0.8755
       N       E                     dE             d eps       ncg     rms          ort
SDA:   1    -0.663486968392E+03    0.22038E-01    0.00000E+00   768   0.569E-01 0.000E+00
CGA:   2    -0.663504997790E+03   -0.18029E-01   -0.18029E-01   768   0.203E-01-0.156E-06
CGA:   3    -0.663508821043E+03   -0.38233E-02   -0.38233E-02   768   0.744E-02 0.549E-06
CGA:   4    -0.663509762224E+03   -0.94118E-03   -0.94166E-03   768   0.279E-02 0.288E-05
CGA:   5    -0.663510150216E+03   -0.38799E-03   -0.38798E-03   768   0.620E-03 0.121E-06
CGA:   6    -0.663510271536E+03   -0.12132E-03   -0.12132E-03   768   0.290E-03 0.960E-07
CGA:   7    -0.663510316925E+03   -0.45389E-04   -0.45387E-04   768   0.115E-03-0.727E-07
  82 F= -.67008103E+03 E0= -.67007067E+03  d E =-.134992E-02  mag=     0.8764
       N       E                     dE             d eps       ncg     rms          ort
SDA:   1    -0.663391682490E+03    0.11859E+00    0.00000E+00   768   0.292E+00 0.000E+00
CGA:   2    -0.663483996528E+03   -0.92314E-01   -0.92316E-01   768   0.103E+00-0.241E-04
CGA:   3    -0.663504539187E+03   -0.20543E-01   -0.20543E-01   768   0.280E-01 0.150E-04
CGA:   4    -0.663509279393E+03   -0.47402E-02   -0.47405E-02   768   0.100E-01 0.314E-05
CGA:   5    -0.663510517571E+03   -0.12382E-02   -0.12384E-02   768   0.322E-02 0.217E-05
CGA:   6    -0.663511062339E+03   -0.54477E-03   -0.54477E-03   768   0.133E-02 0.424E-06
CGA:   7    -0.663511273104E+03   -0.21076E-03   -0.21076E-03   768   0.504E-03-0.159E-06
CGA:   8    -0.663511380463E+03   -0.10736E-03   -0.10733E-03   768   0.285E-03 0.108E-05
CGA:   9    -0.663511430129E+03   -0.49666E-04   -0.49671E-04   768   0.164E-03 0.362E-06
  83 F= -.67008235E+03 E0= -.67007201E+03  d E =-.266562E-02  mag=     0.8782
       N       E                     dE             d eps       ncg     rms          ort
SDA:   1    -0.663465943629E+03    0.45437E-01    0.00000E+00   768   0.116E+00 0.000E+00
CGA:   2    -0.663501861194E+03   -0.35918E-01   -0.35927E-01   768   0.421E-01-0.710E-04
CGA:   3    -0.663509864622E+03   -0.80034E-02   -0.80035E-02   768   0.148E-01 0.171E-04
CGA:   4    -0.663511773014E+03   -0.19084E-02   -0.19085E-02   768   0.513E-02 0.575E-05
CGA:   5    -0.663512503593E+03   -0.73058E-03   -0.73050E-03   768   0.142E-02-0.438E-06
CGA:   6    -0.663512733912E+03   -0.23032E-03   -0.23032E-03   768   0.615E-03 0.196E-06
CGA:   7    -0.663512836757E+03   -0.10285E-03   -0.10286E-03   768   0.218E-03 0.110E-05
CGA:   8    -0.663512877487E+03   -0.40730E-04   -0.40728E-04   768   0.133E-03 0.709E-06
  84 F= -.67008386E+03 E0= -.67007345E+03  d E =-.151139E-02  mag=     0.8766
       N       E                     dE             d eps       ncg     rms          ort
SDA:   1    -0.663483732314E+03    0.29104E-01    0.00000E+00   768   0.727E-01 0.000E+00
CGA:   2    -0.663506185784E+03   -0.22453E-01   -0.22459E-01   768   0.269E-01-0.365E-04
CGA:   3    -0.663511204053E+03   -0.50183E-02   -0.50183E-02   768   0.995E-02 0.779E-05
CGA:   4    -0.663512410317E+03   -0.12063E-02   -0.12065E-02   768   0.344E-02 0.476E-05
CGA:   5    -0.663512940975E+03   -0.53066E-03   -0.53064E-03   768   0.851E-03-0.484E-07
CGA:   6    -0.663513084135E+03   -0.14316E-03   -0.14316E-03   768   0.437E-03 0.115E-06
CGA:   7    -0.663513152640E+03   -0.68505E-04   -0.68527E-04   768   0.141E-03 0.859E-06
  85 F= -.67008418E+03 E0= -.67007372E+03  d E =-.183566E-02  mag=     0.8751
       N       E                     dE             d eps       ncg     rms          ort
SDA:   1    -0.663489163351E+03    0.23921E-01    0.00000E+00   768   0.621E-01 0.000E+00
CGA:   2    -0.663508326484E+03   -0.19163E-01   -0.19161E-01   768   0.223E-01 0.159E-04
CGA:   3    -0.663512472344E+03   -0.41459E-02   -0.41459E-02   768   0.842E-02 0.393E-05
CGA:   4    -0.663513488064E+03   -0.10157E-02   -0.10167E-02   768   0.318E-02 0.323E-05
CGA:   5    -0.663513952613E+03   -0.46455E-03   -0.46444E-03   768   0.631E-03-0.202E-05
CGA:   6    -0.663514089409E+03   -0.13680E-03   -0.13685E-03   768   0.280E-03-0.167E-05
CGA:   7    -0.663514131140E+03   -0.41732E-04   -0.41721E-04   768   0.132E-03-0.268E-06
  86 F= -.67008516E+03 E0= -.67007467E+03  d E =-.975264E-03  mag=     0.8746
       N       E                     dE             d eps       ncg     rms          ort
SDA:   1    -0.663462245948E+03    0.51843E-01    0.00000E+00   768   0.130E+00 0.000E+00
CGA:   2    -0.663502237220E+03   -0.39991E-01   -0.39984E-01   768   0.493E-01 0.577E-04
CGA:   3    -0.663510609742E+03   -0.83725E-02   -0.83723E-02   768   0.224E-01-0.283E-05
CGA:   4    -0.663513165652E+03   -0.25559E-02   -0.25589E-02   768   0.626E-02 0.271E-05
CGA:   5    -0.663514211694E+03   -0.10460E-02   -0.10460E-02   768   0.144E-02-0.231E-05
CGA:   6    -0.663514470128E+03   -0.25843E-03   -0.25842E-03   768   0.714E-03-0.231E-05
CGA:   7    -0.663514579233E+03   -0.10910E-03   -0.10909E-03   768   0.259E-03-0.441E-06
CGA:   8    -0.663514624215E+03   -0.44983E-04   -0.44985E-04   768   0.157E-03 0.218E-06
  87 F= -.67008565E+03 E0= -.67007513E+03  d E =-.146193E-02  mag=     0.8741
