       N       E                     dE             d eps       ncg     rms          rms(c)
DAV:   1     0.258440380910E+04    0.25844E+04   -0.11276E+05  3712   0.129E+03
DAV:   2    -0.101583179352E+03   -0.26860E+04   -0.25984E+04  4544   0.332E+02
DAV:   3    -0.503255491601E+03   -0.40167E+03   -0.39738E+03  3932   0.151E+02
DAV:   4    -0.519474545400E+03   -0.16219E+02   -0.15942E+02  4336   0.413E+01
DAV:   5    -0.520075753244E+03   -0.60121E+00   -0.59768E+00  4744   0.607E+00    0.422E+01
DAV:   6    -0.493089776387E+03    0.26986E+02   -0.45590E+01  4336   0.229E+01    0.259E+01
DAV:   7    -0.486854482879E+03    0.62353E+01   -0.23536E+01  4288   0.134E+01    0.159E+01
DAV:   8    -0.485725823209E+03    0.11287E+01   -0.38594E+00  4144   0.583E+00    0.679E+00
DAV:   9    -0.485734670369E+03   -0.88472E-02   -0.84354E-01  3912   0.281E+00    0.223E+00
DAV:  10    -0.485684231481E+03    0.50439E-01   -0.18947E-01  4056   0.135E+00    0.106E+00
DAV:  11    -0.485672812200E+03    0.11419E-01   -0.54891E-02  3856   0.669E-01    0.426E-01
DAV:  12    -0.485670979779E+03    0.18324E-02   -0.78972E-03  4336   0.303E-01    0.188E-01
DAV:  13    -0.485670963386E+03    0.16393E-04   -0.23303E-03  3888   0.146E-01    0.960E-02
DAV:  14    -0.485670953710E+03    0.96760E-05   -0.28633E-04  2552   0.583E-02
   1 F= -.49012190E+03 E0= -.49012190E+03  d E =0.000000E+00  mag=    -0.0000
