       N       E                     dE             d eps       ncg     rms          rms(c)
DAV:   1     0.247634776422E+04    0.24763E+04   -0.95003E+04  3824   0.110E+03
DAV:   2     0.779870080826E+02   -0.23984E+04   -0.22920E+04  4800   0.273E+02
DAV:   3    -0.467150244721E+03   -0.54514E+03   -0.54052E+03  4216   0.143E+02
DAV:   4    -0.490842419228E+03   -0.23692E+02   -0.23059E+02  4112   0.404E+01
DAV:   5    -0.492005855469E+03   -0.11634E+01   -0.11513E+01  5000   0.759E+00    0.358E+01
DAV:   6    -0.470982574320E+03    0.21023E+02   -0.55911E+01  4088   0.194E+01    0.213E+01
DAV:   7    -0.469105934501E+03    0.18766E+01   -0.24299E+01  4344   0.154E+01    0.147E+01
DAV:   8    -0.467688611658E+03    0.14173E+01   -0.87923E+00  4024   0.109E+01    0.105E+01
DAV:   9    -0.467937923870E+03   -0.24931E+00   -0.16004E+01  4560   0.862E+00    0.641E+00
DAV:  10    -0.467170670164E+03    0.76725E+00   -0.67810E+00  4240   0.684E+00    0.323E+00
DAV:  11    -0.467083134993E+03    0.87535E-01   -0.22342E+00  4416   0.404E+00    0.249E+00
DAV:  12    -0.466974015053E+03    0.10912E+00   -0.14836E+00  4624   0.260E+00    0.139E+00
DAV:  13    -0.466940359576E+03    0.33655E-01   -0.13920E-01  3848   0.122E+00    0.802E-01
DAV:  14    -0.466934250024E+03    0.61096E-02   -0.10764E-01  4056   0.735E-01    0.469E-01
DAV:  15    -0.466935537148E+03   -0.12871E-02   -0.96788E-02  4056   0.568E-01    0.480E-01
DAV:  16    -0.466932537792E+03    0.29994E-02   -0.55828E-02  4080   0.397E-01    0.235E-01
DAV:  17    -0.466932409225E+03    0.12857E-03   -0.93256E-03  3880   0.179E-01    0.115E-01
DAV:  18    -0.466932581526E+03   -0.17230E-03   -0.25972E-03  3904   0.993E-02    0.114E-01
DAV:  19    -0.466932489451E+03    0.92075E-04   -0.20664E-03  2656   0.737E-02    0.506E-02
DAV:  20    -0.466932597219E+03   -0.10777E-03   -0.44516E-04  2376   0.366E-02    0.672E-02
DAV:  21    -0.466932382387E+03    0.21483E-03   -0.12224E-03  2264   0.321E-02    0.449E-02
DAV:  22    -0.466932394690E+03   -0.12303E-04   -0.53534E-04  2328   0.260E-02
   1 F= -.47072101E+03 E0= -.47072101E+03  d E =0.000000E+00  mag=    -0.0000
