       N       E                     dE             d eps       ncg     rms          rms(c)
DAV:   1     0.261632628831E+04    0.26163E+04   -0.96883E+04  4288   0.107E+03
DAV:   2     0.185502982936E+03   -0.24308E+04   -0.23176E+04  5068   0.260E+02
DAV:   3    -0.485621734306E+03   -0.67112E+03   -0.66567E+03  4104   0.147E+02
DAV:   4    -0.520728271316E+03   -0.35107E+02   -0.34225E+02  4240   0.464E+01
DAV:   5    -0.522199184019E+03   -0.14709E+01   -0.14506E+01  4896   0.865E+00    0.424E+01
DAV:   6    -0.498438173782E+03    0.23761E+02   -0.14494E+02  4504   0.262E+01    0.271E+01
DAV:   7    -0.492278042391E+03    0.61601E+01   -0.26176E+01  4680   0.208E+01    0.204E+01
DAV:   8    -0.486319868997E+03    0.59582E+01   -0.10088E+01  4200   0.114E+01    0.142E+01
DAV:   9    -0.490381077081E+03   -0.40612E+01   -0.79312E+01  4400   0.114E+01    0.968E+00
DAV:  10    -0.486718129874E+03    0.36629E+01   -0.20103E+00  4184   0.755E+00    0.715E+00
DAV:  11    -0.487364455476E+03   -0.64633E+00   -0.32100E+01  4480   0.696E+00    0.718E+00
DAV:  12    -0.485792538167E+03    0.15719E+01   -0.91774E-01  4096   0.390E+00    0.614E+00
DAV:  13    -0.486287991970E+03   -0.49545E+00   -0.12198E+01  4304   0.238E+00    0.626E+00
DAV:  14    -0.485933373045E+03    0.35462E+00   -0.51832E+00  4080   0.220E+00    0.603E+00
DAV:  15    -0.486020386086E+03   -0.87013E-01   -0.68616E+00  4468   0.157E+00    0.600E+00
DAV:  16    -0.485841642957E+03    0.17874E+00   -0.27782E-02  3784   0.635E-01    0.586E+00
DAV:  17    -0.485693836466E+03    0.14781E+00   -0.42009E-01  4720   0.581E-01    0.533E+00
DAV:  18    -0.485916575496E+03   -0.22274E+00   -0.45021E+00  4320   0.734E-01    0.590E+00
DAV:  19    -0.485798236473E+03    0.11834E+00   -0.41405E-03  3952   0.316E-01    0.579E+00
DAV:  20    -0.485710493281E+03    0.87743E-01   -0.73847E-01  5024   0.453E-01    0.572E+00
DAV:  21    -0.485735995162E+03   -0.25502E-01   -0.11425E+00  3848   0.297E-01    0.566E+00
DAV:  22    -0.485742756952E+03   -0.67618E-02   -0.12695E+00  3936   0.335E-01    0.587E+00
DAV:  23    -0.485693803378E+03    0.48954E-01   -0.31509E-01  3504   0.241E-01    0.481E+00
DAV:  24    -0.485701507497E+03   -0.77041E-02   -0.28894E-01  3320   0.131E-01    0.472E+00
DAV:  25    -0.485699438642E+03    0.20689E-02   -0.16158E-01  3480   0.139E-01    0.555E+00
DAV:  26    -0.485722935354E+03   -0.23497E-01   -0.91515E-01  3360   0.239E-01    0.562E+00
DAV:  27    -0.485699415003E+03    0.23520E-01   -0.39985E-01  3136   0.230E-01    0.537E+00
DAV:  28    -0.485714840388E+03   -0.15425E-01   -0.68371E-01  2972   0.185E-01    0.554E+00
DAV:  29    -0.485698099734E+03    0.16741E-01   -0.36938E-01  2976   0.186E-01    0.531E+00
DAV:  30    -0.485709449977E+03   -0.11350E-01   -0.56984E-01  2964   0.172E-01    0.546E+00
DAV:  31    -0.485696294805E+03    0.13155E-01   -0.32446E-01  2944   0.168E-01    0.519E+00
DAV:  32    -0.485706635504E+03   -0.10341E-01   -0.50108E-01  2944   0.161E-01    0.541E+00
DAV:  33    -0.485695316566E+03    0.11319E-01   -0.29891E-01  2944   0.160E-01    0.511E+00
DAV:  34    -0.485703760783E+03   -0.84442E-02   -0.43641E-01  2944   0.153E-01    0.533E+00
DAV:  35    -0.485694597407E+03    0.91634E-02   -0.27673E-01  2936   0.151E-01    0.503E+00
DAV:  36    -0.485701548814E+03   -0.69514E-02   -0.38603E-01  2928   0.146E-01    0.525E+00
DAV:  37    -0.485693917351E+03    0.76315E-02   -0.25542E-01  2928   0.145E-01    0.495E+00
DAV:  38    -0.485699851074E+03   -0.59337E-02   -0.34537E-01  2928   0.141E-01    0.517E+00
DAV:  39    -0.485693311832E+03    0.65392E-02   -0.23598E-01  2928   0.140E-01    0.486E+00
DAV:  40    -0.485698444196E+03   -0.51324E-02   -0.31049E-01  2928   0.136E-01    0.508E+00
DAV:  41    -0.485692757317E+03    0.56869E-02   -0.21757E-01  2928   0.135E-01    0.477E+00
DAV:  42    -0.485697277445E+03   -0.45201E-02   -0.28016E-01  2928   0.132E-01    0.499E+00
DAV:  43    -0.485692253068E+03    0.50244E-02   -0.20018E-01  2928   0.131E-01    0.467E+00
DAV:  44    -0.485696279039E+03   -0.40260E-02   -0.25302E-01  2912   0.128E-01    0.490E+00
DAV:  45    -0.485691784133E+03    0.44949E-02   -0.18340E-01  2912   0.127E-01    0.456E+00
DAV:  46    -0.485695416111E+03   -0.36320E-02   -0.22828E-01  2904   0.125E-01    0.479E+00
DAV:  47    -0.485691345638E+03    0.40705E-02   -0.16708E-01  2904   0.123E-01    0.444E+00
DAV:  48    -0.485694661821E+03   -0.33162E-02   -0.20531E-01  2904   0.121E-01    0.468E+00
DAV:  49    -0.485690932519E+03    0.37293E-02   -0.15106E-01  2892   0.119E-01    0.430E+00
DAV:  50    -0.485693991021E+03   -0.30585E-02   -0.18352E-01  2880   0.117E-01    0.456E+00
DAV:  51    -0.485691131297E+03    0.28597E-02   -0.14730E-01  2880   0.117E-01    0.431E+00
DAV:  52    -0.485693251220E+03   -0.21199E-02   -0.17054E-01  2880   0.116E-01    0.444E+00
DAV:  53    -0.485690545291E+03    0.27059E-02   -0.12719E-01  2880   0.113E-01    0.409E+00
DAV:  54    -0.485693371895E+03   -0.28266E-02   -0.15923E-01  2880   0.112E-01    0.441E+00
DAV:  55    -0.485690304649E+03    0.30672E-02   -0.12114E-01  2880   0.112E-01    0.402E+00
DAV:  56    -0.485693213344E+03   -0.29087E-02   -0.15136E-01  2880   0.111E-01    0.435E+00
DAV:  57    -0.485690238751E+03    0.29746E-02   -0.11677E-01  2880   0.110E-01    0.397E+00
DAV:  58    -0.485692488545E+03   -0.22498E-02   -0.13502E-01  2880   0.109E-01    0.418E+00
DAV:  59    -0.485689723112E+03    0.27654E-02   -0.95467E-02  2880   0.106E-01    0.367E+00
DAV:  60    -0.485692913565E+03   -0.31905E-02   -0.12686E-01  2880   0.104E-01    0.419E+00
DAV:  61    -0.485688866572E+03    0.40470E-02   -0.78960E-02  2868   0.103E-01    0.327E+00
DAV:  62    -0.485690972409E+03   -0.21058E-02   -0.69851E-02  2864   0.947E-02    0.331E+00
DAV:  63    -0.485690242298E+03    0.73011E-03   -0.64167E-02  2752   0.891E-02    0.342E+00
DAV:  64    -0.485690542648E+03   -0.30035E-03   -0.71996E-02  2752   0.924E-02    0.330E+00
DAV:  65    -0.485690075732E+03    0.46692E-03   -0.58493E-02  2752   0.904E-02    0.326E+00
DAV:  66    -0.485690080878E+03   -0.51466E-05   -0.55453E-02  2752   0.880E-02    0.291E+00
DAV:  67    -0.485693099687E+03   -0.30188E-02   -0.87833E-03  2744   0.796E-02    0.354E+00
DAV:  68    -0.485687120608E+03    0.59791E-02   -0.40918E-02  2568   0.572E-02    0.241E+00
DAV:  69    -0.485690457030E+03   -0.33364E-02   -0.30526E-02  2864   0.957E-02    0.240E+00
DAV:  70    -0.485689585113E+03    0.87192E-03   -0.18818E-02  2676   0.674E-02    0.202E+00
DAV:  71    -0.485690134217E+03   -0.54910E-03   -0.16878E-02  2636   0.653E-02    0.189E+00
DAV:  72    -0.485689918940E+03    0.21528E-03   -0.11137E-02  2600   0.578E-02    0.172E+00
DAV:  73    -0.485690169881E+03   -0.25094E-03   -0.12231E-02  2596   0.546E-02    0.170E+00
DAV:  74    -0.485690006964E+03    0.16292E-03   -0.92439E-03  2592   0.521E-02    0.163E+00
DAV:  75    -0.485690142410E+03   -0.13545E-03   -0.10415E-02  2580   0.514E-02    0.158E+00
DAV:  76    -0.485690028824E+03    0.11359E-03   -0.73153E-03  2576   0.493E-02    0.143E+00
DAV:  77    -0.485690143348E+03   -0.11452E-03   -0.71546E-03  2504   0.462E-02    0.132E+00
DAV:  78    -0.485690161634E+03   -0.18286E-04   -0.57801E-03  2400   0.421E-02    0.136E+00
DAV:  79    -0.485690167651E+03   -0.60178E-05   -0.67536E-03  2376   0.416E-02    0.124E+00
DAV:  80    -0.485690166664E+03    0.98765E-06   -0.48625E-03  2336   0.401E-02    0.119E+00
DAV:  81    -0.485690141799E+03    0.24865E-04   -0.47508E-03  2496   0.415E-02    0.109E+00
DAV:  82    -0.485690027979E+03    0.11382E-03   -0.25152E-03  2600   0.494E-02    0.698E-01
DAV:  83    -0.485690224242E+03   -0.19626E-03   -0.94517E-04  2548   0.417E-02    0.396E-01
DAV:  84    -0.485690318175E+03   -0.93933E-04   -0.14102E-04  2216   0.253E-02
   1 F= -.48918637E+03 E0= -.48918637E+03  d E =0.000000E+00  mag=    -0.0000
