       N       E                     dE             d eps       ncg     rms          rms(c)
DAV:   1     0.253208597878E+04    0.25321E+04   -0.11169E+05  4368   0.106E+03
DAV:   2    -0.241026638885E+03   -0.27731E+04   -0.26493E+04  5520   0.280E+02
DAV:   3    -0.702873863791E+03   -0.46185E+03   -0.45852E+03  4616   0.120E+02
DAV:   4    -0.719463707659E+03   -0.16590E+02   -0.16445E+02  4616   0.280E+01
DAV:   5    -0.720003159235E+03   -0.53945E+00   -0.53785E+00  5264   0.427E+00    0.477E+01
DAV:   6    -0.719736226905E+03    0.26693E+00   -0.89950E+01  4816   0.276E+01    0.747E+01
DAV:   7    -0.673461763470E+03    0.46274E+02   -0.65196E+01  4944   0.536E+01    0.267E+01
DAV:   8    -0.670147112788E+03    0.33147E+01   -0.38637E+01  4872   0.138E+01    0.265E+01
DAV:   9    -0.664644615973E+03    0.55025E+01   -0.26059E+01  4632   0.142E+01    0.209E+01
DAV:  10    -0.662157088926E+03    0.24875E+01   -0.20742E+01  5184   0.137E+01    0.113E+01
DAV:  11    -0.661531304641E+03    0.62578E+00   -0.14238E+00  5272   0.314E+00    0.694E+00
DAV:  12    -0.661856339628E+03   -0.32503E+00   -0.57559E-01  4608   0.180E+00    0.674E+00
DAV:  13    -0.661992402973E+03   -0.13606E+00   -0.40851E-01  5040   0.148E+00    0.441E+00
DAV:  14    -0.662024821638E+03   -0.32419E-01   -0.12465E-01  4696   0.726E-01    0.362E+00
DAV:  15    -0.662009387695E+03    0.15434E-01   -0.96721E-02  4736   0.587E-01    0.259E+00
DAV:  16    -0.661996689329E+03    0.12698E-01   -0.13732E-02  4568   0.275E-01    0.205E+00
DAV:  17    -0.661982097611E+03    0.14592E-01   -0.70245E-03  5312   0.240E-01    0.168E+00
DAV:  18    -0.661969643553E+03    0.12454E-01   -0.73303E-03  5160   0.249E-01    0.124E+00
DAV:  19    -0.661961103844E+03    0.85397E-02   -0.89333E-03  5056   0.232E-01    0.709E-01
DAV:  20    -0.661959619023E+03    0.14848E-02   -0.12336E-03  4024   0.945E-02    0.518E-01
DAV:  21    -0.661958521365E+03    0.10977E-02   -0.18564E-03  4112   0.140E-01    0.227E-01
DAV:  22    -0.661958457256E+03    0.64109E-04   -0.74365E-04  3984   0.639E-02
   1 F= -.66838614E+03 E0= -.66838614E+03  d E =0.000000E+00  mag=    -1.0012
