 vasp.5.4.4.18Apr17-6-g9f103f2a35 (build Jan 14 2022 15:04:31) complex          
  
 executed on             LinuxIFC date 2023.01.27  22:54:36
 running on   48 total cores
 distrk:  each k-point on   48 cores,    1 groups
 distr:  one band on NCORES_PER_BAND=  12 cores,    4 groups


--------------------------------------------------------------------------------------------------------


 INCAR:
 POTCAR:    PAW_PBE C 08Apr2002                   
 POTCAR:    PAW_PBE N 08Apr2002                   
 POTCAR:    PAW_PBE C 08Apr2002                   
 POTCAR:    PAW_PBE Cr_pv 02Aug2007               
 POTCAR:    PAW_PBE C 08Apr2002                   
 POTCAR:    PAW_PBE O 08Apr2002                   
 POTCAR:    PAW_PBE C 08Apr2002                   
   SHA256 =  253f7b50bb8d59471dbedb8285d89021f4a42ed1a2c5d38a03a736e69125dd95 C/
   COPYR  = (c) Copyright 08Apr2002 Georg Kresse                                
   COPYR  = This file is part of the software VASP. Any use, copying, and all ot
   COPYR  = If you do not have a valid VASP license, you may not use, copy or di
   VRHFIN =C: s2p2                                                              
   LEXCH  = PE                                                                  
   EATOM  =   147.1560 eV,   10.8157 Ry                                         
                                                                                
   TITEL  = PAW_PBE C 08Apr2002                                                 
   LULTRA =        F    use ultrasoft PP ?                                      
   IUNSCR =        1    unscreen: 0-lin 1-nonlin 2-no                           
   RPACOR =    1.200    partial core radius                                     
   POMASS =   12.011; ZVAL   =    4.000    mass and valenz                      
   RCORE  =    1.500    outmost cutoff radius                                   
   RWIGS  =    1.630; RWIGS  =    0.863    wigner-seitz radius (au A)           
   ENMAX  =  400.000; ENMIN  =  300.000 eV                                      
   ICORE  =        2    local potential                                         
   LCOR   =        T    correct aug charges                                     
   LPAW   =        T    paw PP                                                  
   EAUG   =  644.873                                                            
   DEXC   =    0.000                                                            
   RMAX   =    1.529    core radius for proj-oper                               
   RAUG   =    1.300    factor for augmentation sphere                          
   RDEP   =    1.501    radius for radial grids                                 
   RDEPT  =    1.300    core radius for aug-charge                              
                                                                                
   Atomic configuration                                                         
    4 entries                                                                   
     n  l   j            E        occ.                                          
     1  0  0.50      -273.3789   2.0000                                         
     2  0  0.50       -13.7508   2.0000                                         
     2  1  0.50        -5.2854   2.0000                                         
     3  2  1.50        -5.4423   0.0000                                         
   Description                                                                  
     l       E           TYP  RCUT    TYP  RCUT                                 
     0    -13.7508458     23  1.200                                             
     0     -8.2022199     23  1.200                                             
     1     -5.2854383     23  1.500                                             
     1     34.0145650     23  1.500                                             
     2     -5.4423304      7  1.500                                             
  local pseudopotential read in
  partial core-charges read in
  partial kinetic energy density read in
  atomic valenz-charges read in
  non local Contribution for L=           0  read in
    real space projection operators read in
  non local Contribution for L=           0  read in
    real space projection operators read in
  non local Contribution for L=           1  read in
    real space projection operators read in
  non local Contribution for L=           1  read in
    real space projection operators read in
    PAW grid and wavefunctions read in
 
   number of l-projection  operators is LMAX  =           4
   number of lm-projection operators is LMMAX =           8
 
 POTCAR:    PAW_PBE N 08Apr2002                   
   SHA256 =  e053789ff3a61a86a1b75d8a110fcc91f86041011e7b0817c7c99e4e8a6349d7 N/
   COPYR  = (c) Copyright 08Apr2002 Georg Kresse                                
   COPYR  = This file is part of the software VASP. Any use, copying, and all ot
   COPYR  = If you do not have a valid VASP license, you may not use, copy or di
   VRHFIN =N: s2p3                                                              
   LEXCH  = PE                                                                  
   EATOM  =   264.5486 eV,   19.4438 Ry                                         
                                                                                
   TITEL  = PAW_PBE N 08Apr2002                                                 
   LULTRA =        F    use ultrasoft PP ?                                      
   IUNSCR =        1    unscreen: 0-lin 1-nonlin 2-no                           
   RPACOR =    1.200    partial core radius                                     
   POMASS =   14.001; ZVAL   =    5.000    mass and valenz                      
   RCORE  =    1.500    outmost cutoff radius                                   
   RWIGS  =    1.400; RWIGS  =    0.741    wigner-seitz radius (au A)           
   ENMAX  =  400.000; ENMIN  =  300.000 eV                                      
   ICORE  =        2    local potential                                         
   LCOR   =        T    correct aug charges                                     
   LPAW   =        T    paw PP                                                  
   EAUG   =  627.112                                                            
   DEXC   =    0.000                                                            
   RMAX   =    1.529    core radius for proj-oper                               
   RAUG   =    1.300    factor for augmentation sphere                          
   RDEP   =    1.514    radius for radial grids                                 
   RDEPT  =    1.338    core radius for aug-charge                              
                                                                                
   Atomic configuration                                                         
    4 entries                                                                   
     n  l   j            E        occ.                                          
     1  0  0.50      -384.7179   2.0000                                         
     2  0  0.50       -18.5828   2.0000                                         
     2  1  0.50        -7.0898   3.0000                                         
     3  2  1.50        -6.8029   0.0000                                         
   Description                                                                  
     l       E           TYP  RCUT    TYP  RCUT                                 
     0    -18.5828119     23  1.200                                             
     0    -13.5018863     23  1.200                                             
     1     -7.0897853     23  1.500                                             
     1      9.5240782     23  1.500                                             
     2     -6.8029130      7  1.500                                             
  local pseudopotential read in
  partial core-charges read in
  partial kinetic energy density read in
  atomic valenz-charges read in
  non local Contribution for L=           0  read in
    real space projection operators read in
  non local Contribution for L=           0  read in
    real space projection operators read in
  non local Contribution for L=           1  read in
    real space projection operators read in
  non local Contribution for L=           1  read in
    real space projection operators read in
    PAW grid and wavefunctions read in
 
   number of l-projection  operators is LMAX  =           4
   number of lm-projection operators is LMMAX =           8
 
 POTCAR:    PAW_PBE C 08Apr2002                   
   SHA256 =  253f7b50bb8d59471dbedb8285d89021f4a42ed1a2c5d38a03a736e69125dd95 C/
   COPYR  = (c) Copyright 08Apr2002 Georg Kresse                                
   COPYR  = This file is part of the software VASP. Any use, copying, and all ot
   COPYR  = If you do not have a valid VASP license, you may not use, copy or di
   VRHFIN =C: s2p2                                                              
   LEXCH  = PE                                                                  
   EATOM  =   147.1560 eV,   10.8157 Ry                                         
                                                                                
   TITEL  = PAW_PBE C 08Apr2002                                                 
   LULTRA =        F    use ultrasoft PP ?                                      
   IUNSCR =        1    unscreen: 0-lin 1-nonlin 2-no                           
   RPACOR =    1.200    partial core radius                                     
   POMASS =   12.011; ZVAL   =    4.000    mass and valenz                      
   RCORE  =    1.500    outmost cutoff radius                                   
   RWIGS  =    1.630; RWIGS  =    0.863    wigner-seitz radius (au A)           
   ENMAX  =  400.000; ENMIN  =  300.000 eV                                      
   ICORE  =        2    local potential                                         
   LCOR   =        T    correct aug charges                                     
   LPAW   =        T    paw PP                                                  
   EAUG   =  644.873                                                            
   DEXC   =    0.000                                                            
   RMAX   =    1.529    core radius for proj-oper                               
   RAUG   =    1.300    factor for augmentation sphere                          
   RDEP   =    1.501    radius for radial grids                                 
   RDEPT  =    1.300    core radius for aug-charge                              
                                                                                
   Atomic configuration                                                         
    4 entries                                                                   
     n  l   j            E        occ.                                          
     1  0  0.50      -273.3789   2.0000                                         
     2  0  0.50       -13.7508   2.0000                                         
     2  1  0.50        -5.2854   2.0000                                         
     3  2  1.50        -5.4423   0.0000                                         
   Description                                                                  
     l       E           TYP  RCUT    TYP  RCUT                                 
     0    -13.7508458     23  1.200                                             
     0     -8.2022199     23  1.200                                             
     1     -5.2854383     23  1.500                                             
     1     34.0145650     23  1.500                                             
     2     -5.4423304      7  1.500                                             
  local pseudopotential read in
  partial core-charges read in
  partial kinetic energy density read in
  atomic valenz-charges read in
  non local Contribution for L=           0  read in
    real space projection operators read in
  non local Contribution for L=           0  read in
    real space projection operators read in
  non local Contribution for L=           1  read in
    real space projection operators read in
  non local Contribution for L=           1  read in
    real space projection operators read in
    PAW grid and wavefunctions read in
 
   number of l-projection  operators is LMAX  =           4
   number of lm-projection operators is LMMAX =           8
 
 POTCAR:    PAW_PBE Cr_pv 02Aug2007               
   SHA256 =  c9a7df34d3cdbacf1090e328ef39c0b420964e11c23f63548d1ac9dd218cdba0 Cr
   COPYR  = (c) Copyright 02Aug2007 Georg Kresse                                
   COPYR  = This file is part of the software VASP. Any use, copying, and all ot
   COPYR  = If you do not have a valid VASP license, you may not use, copy or di
   VRHFIN =Cr : p6d5s1                                                          
   LEXCH  = PE                                                                  
   EATOM  =  1647.9177 eV,  121.1185 Ry                                         
                                                                                
   TITEL  = PAW_PBE Cr_pv 02Aug2007                                             
   LULTRA =        F    use ultrasoft PP ?                                      
   IUNSCR =        1    unscreen: 0-lin 1-nonlin 2-no                           
   RPACOR =    2.080    partial core radius                                     
   POMASS =   51.996; ZVAL   =   12.000    mass and valenz                      
   RCORE  =    2.300    outmost cutoff radius                                   
   RWIGS  =    2.500; RWIGS  =    1.323    wigner-seitz radius (au A)           
   ENMAX  =  265.681; ENMIN  =  199.261 eV                                      
   ICORE  =        3    local potential                                         
   LCOR   =        T    correct aug charges                                     
   LPAW   =        T    paw PP                                                  
   EAUG   =  519.424                                                            
   DEXC   =    0.000                                                            
   RMAX   =    2.356    core radius for proj-oper                               
   RAUG   =    1.300    factor for augmentation sphere                          
   RDEP   =    2.447    radius for radial grids                                 
   RDEPT  =    1.882    core radius for aug-charge                              
                                                                                
   Atomic configuration                                                         
    8 entries                                                                   
     n  l   j            E        occ.                                          
     1  0  0.50     -5880.4963   2.0000                                         
     2  0  0.50      -667.0865   2.0000                                         
     2  1  1.50      -560.6250   6.0000                                         
     3  0  0.50       -73.9860   2.0000                                         
     3  1  1.50       -45.4378   6.0000                                         
     3  2  2.50        -2.9137   5.0000                                         
     4  0  0.50        -4.0071   1.0000                                         
     4  3  2.50        -1.3606   0.0000                                         
   Description                                                                  
     l       E           TYP  RCUT    TYP  RCUT                                 
     1    -45.4377911     23  2.000                                             
     1      1.3605826     23  2.000                                             
     2     -2.9136672     23  2.300                                             
     2     -4.2742498     23  2.300                                             
     0     -4.0071320     23  2.300                                             
     0      9.4498803     23  2.300                                             
     3      2.7211652     23  2.300                                             
  local pseudopotential read in
  partial core-charges read in
  partial kinetic energy density read in
  atomic valenz-charges read in
  non local Contribution for L=           1  read in
    real space projection operators read in
  non local Contribution for L=           1  read in
    real space projection operators read in
  non local Contribution for L=           2  read in
    real space projection operators read in
  non local Contribution for L=           2  read in
    real space projection operators read in
  non local Contribution for L=           0  read in
    real space projection operators read in
  non local Contribution for L=           0  read in
    real space projection operators read in
    PAW grid and wavefunctions read in
 
   number of l-projection  operators is LMAX  =           6
   number of lm-projection operators is LMMAX =          18
 
 POTCAR:    PAW_PBE C 08Apr2002                   
   SHA256 =  253f7b50bb8d59471dbedb8285d89021f4a42ed1a2c5d38a03a736e69125dd95 C/
   COPYR  = (c) Copyright 08Apr2002 Georg Kresse                                
   COPYR  = This file is part of the software VASP. Any use, copying, and all ot
   COPYR  = If you do not have a valid VASP license, you may not use, copy or di
   VRHFIN =C: s2p2                                                              
   LEXCH  = PE                                                                  
   EATOM  =   147.1560 eV,   10.8157 Ry                                         
                                                                                
   TITEL  = PAW_PBE C 08Apr2002                                                 
   LULTRA =        F    use ultrasoft PP ?                                      
   IUNSCR =        1    unscreen: 0-lin 1-nonlin 2-no                           
   RPACOR =    1.200    partial core radius                                     
   POMASS =   12.011; ZVAL   =    4.000    mass and valenz                      
   RCORE  =    1.500    outmost cutoff radius                                   
   RWIGS  =    1.630; RWIGS  =    0.863    wigner-seitz radius (au A)           
   ENMAX  =  400.000; ENMIN  =  300.000 eV                                      
   ICORE  =        2    local potential                                         
   LCOR   =        T    correct aug charges                                     
   LPAW   =        T    paw PP                                                  
   EAUG   =  644.873                                                            
   DEXC   =    0.000                                                            
   RMAX   =    1.529    core radius for proj-oper                               
   RAUG   =    1.300    factor for augmentation sphere                          
   RDEP   =    1.501    radius for radial grids                                 
   RDEPT  =    1.300    core radius for aug-charge                              
                                                                                
   Atomic configuration                                                         
    4 entries                                                                   
     n  l   j            E        occ.                                          
     1  0  0.50      -273.3789   2.0000                                         
     2  0  0.50       -13.7508   2.0000                                         
     2  1  0.50        -5.2854   2.0000                                         
     3  2  1.50        -5.4423   0.0000                                         
   Description                                                                  
     l       E           TYP  RCUT    TYP  RCUT                                 
     0    -13.7508458     23  1.200                                             
     0     -8.2022199     23  1.200                                             
     1     -5.2854383     23  1.500                                             
     1     34.0145650     23  1.500                                             
     2     -5.4423304      7  1.500                                             
  local pseudopotential read in
  partial core-charges read in
  partial kinetic energy density read in
  atomic valenz-charges read in
  non local Contribution for L=           0  read in
    real space projection operators read in
  non local Contribution for L=           0  read in
    real space projection operators read in
  non local Contribution for L=           1  read in
    real space projection operators read in
  non local Contribution for L=           1  read in
    real space projection operators read in
    PAW grid and wavefunctions read in
 
   number of l-projection  operators is LMAX  =           4
   number of lm-projection operators is LMMAX =           8
 
 POTCAR:    PAW_PBE O 08Apr2002                   
   SHA256 =  818f92134a0a090dccd8ba1447fa70422a3b330e708bb4f08108d8ae51209ddf O/
   COPYR  = (c) Copyright 08Apr2002 Georg Kresse                                
   COPYR  = This file is part of the software VASP. Any use, copying, and all ot
   COPYR  = If you do not have a valid VASP license, you may not use, copy or di
   VRHFIN =O: s2p4                                                              
   LEXCH  = PE                                                                  
   EATOM  =   432.3788 eV,   31.7789 Ry                                         
                                                                                
   TITEL  = PAW_PBE O 08Apr2002                                                 
   LULTRA =        F    use ultrasoft PP ?                                      
   IUNSCR =        1    unscreen: 0-lin 1-nonlin 2-no                           
   RPACOR =    1.200    partial core radius                                     
   POMASS =   16.000; ZVAL   =    6.000    mass and valenz                      
   RCORE  =    1.520    outmost cutoff radius                                   
   RWIGS  =    1.550; RWIGS  =    0.820    wigner-seitz radius (au A)           
   ENMAX  =  400.000; ENMIN  =  300.000 eV                                      
   ICORE  =        2    local potential                                         
   LCOR   =        T    correct aug charges                                     
   LPAW   =        T    paw PP                                                  
   EAUG   =  605.392                                                            
   DEXC   =    0.000                                                            
   RMAX   =    1.553    core radius for proj-oper                               
   RAUG   =    1.300    factor for augmentation sphere                          
   RDEP   =    1.550    radius for radial grids                                 
   RDEPT  =    1.329    core radius for aug-charge                              
                                                                                
   Atomic configuration                                                         
    4 entries                                                                   
     n  l   j            E        occ.                                          
     1  0  0.50      -514.6923   2.0000                                         
     2  0  0.50       -23.9615   2.0000                                         
     2  1  0.50        -9.0305   4.0000                                         
     3  2  1.50        -9.5241   0.0000                                         
   Description                                                                  
     l       E           TYP  RCUT    TYP  RCUT                                 
     0    -23.9615318     23  1.200                                             
     0     -9.5240782     23  1.200                                             
     1     -9.0304911     23  1.520                                             
     1      8.1634956     23  1.520                                             
     2     -9.5240782      7  1.500                                             
  local pseudopotential read in
  partial core-charges read in
  partial kinetic energy density read in
  kinetic energy density of atom read in
  atomic valenz-charges read in
  non local Contribution for L=           0  read in
    real space projection operators read in
  non local Contribution for L=           0  read in
    real space projection operators read in
  non local Contribution for L=           1  read in
    real space projection operators read in
  non local Contribution for L=           1  read in
    real space projection operators read in
    PAW grid and wavefunctions read in
 
   number of l-projection  operators is LMAX  =           4
   number of lm-projection operators is LMMAX =           8
 

 ----------------------------------------------------------------------------- 
|                                                                             |
|  ADVICE TO THIS USER RUNNING 'VASP/VAMP'   (HEAR YOUR MASTER'S VOICE ...):  |
|                                                                             |
|      You have a (more or less) 'large supercell' and for larger cells       |
|      it might be more efficient to use real space projection opertators     |
|      So try LREAL= Auto  in the INCAR   file.                               |
|      Mind:          For very  accurate calculation you might also keep the  |
|      reciprocal projection scheme          (i.e. LREAL=.FALSE.)             |
|                                                                             |
 ----------------------------------------------------------------------------- 

  PAW_PBE C 08Apr2002                   :
 energy of atom  1       EATOM= -147.1560
 kinetic energy error for atom=    0.0132 (will be added to EATOM!!)
  PAW_PBE N 08Apr2002                   :
 energy of atom  2       EATOM= -264.5486
 kinetic energy error for atom=    0.0298 (will be added to EATOM!!)
  PAW_PBE C 08Apr2002                   :
 energy of atom  3       EATOM= -147.1560
 kinetic energy error for atom=    0.0132 (will be added to EATOM!!)
  PAW_PBE Cr_pv 02Aug2007               :
 energy of atom  4       EATOM=-1647.9177
 kinetic energy error for atom=    0.0134 (will be added to EATOM!!)
  PAW_PBE C 08Apr2002                   :
 energy of atom  5       EATOM= -147.1560
 kinetic energy error for atom=    0.0132 (will be added to EATOM!!)
  PAW_PBE O 08Apr2002                   :
 energy of atom  6       EATOM= -432.3788
 kinetic energy error for atom=    0.0458 (will be added to EATOM!!)
 
 
 POSCAR: POSCAR-clean                            
  positions in cartesian coordinates
  No initial velocities read in
 exchange correlation table for  LEXCH =        8
   RHO(1)=    0.500       N(1)  =     2000
   RHO(2)=  100.500       N(2)  =     4000

 VTST: version 3.2, (02/03/18)

 CHAIN: initializing optimizer
 
 OPT: Using VASP Dynamics algorithm
 CHAIN: Read ICHAIN            0
 
 POSCAR: POSCAR-clean                            
  positions in cartesian coordinates
  No initial velocities read in
 


--------------------------------------------------------------------------------------------------------


 ion  position               nearest neighbor table
   1  1.000  1.000  0.484-   2 1.42  60 1.42  70 1.43
   2  0.056  0.111  0.484-   1 1.42  13 1.42  15 1.43
   3  0.168  0.002  0.483-   4 1.42  62 1.43  60 1.43
   4  0.224  0.113  0.484-   3 1.42  15 1.42  17 1.43
   5  0.334  0.002  0.484-   6 1.42  64 1.42  62 1.43
   6  0.390  0.113  0.484-  19 1.42   5 1.42  17 1.43
   7  0.501  0.000  0.484-  66 1.43  64 1.43   8 1.43
   8  0.557  0.112  0.484-  21 1.42   7 1.43  19 1.43
   9  0.666  0.999  0.484-  66 1.42  10 1.42  68 1.44
  10  0.722  0.110  0.484-  21 1.42  23 1.42   9 1.42
  11  0.832  0.998  0.484-  70 1.42  12 1.42  68 1.43
  12  0.888  0.110  0.484-  23 1.42  11 1.42  13 1.43
  13  0.999  0.166  0.484-  14 1.42   2 1.42  12 1.43
  14  0.054  0.277  0.484-  13 1.42  25 1.42  27 1.43
  15  0.167  0.168  0.484-   4 1.42  16 1.42   2 1.43
  16  0.223  0.280  0.486-  15 1.42  27 1.42  29 1.44
  17  0.335  0.170  0.485-  18 1.42   6 1.43   4 1.43
  18  0.391  0.281  0.488-  17 1.42  29 1.44  31 1.44
  19  0.501  0.168  0.484-   6 1.42  20 1.42   8 1.43
  20  0.558  0.279  0.486-  33 1.42  19 1.42  31 1.45
  21  0.667  0.167  0.484-  22 1.40   8 1.42  10 1.42
  22  0.723  0.277  0.484-  21 1.40  35 1.41  33 1.41
  23  0.833  0.165  0.483-  24 1.42  12 1.42  10 1.42
  24  0.887  0.276  0.484-  23 1.42  35 1.42  25 1.43
  25  0.999  0.333  0.484-  26 1.42  14 1.42  24 1.43
  26  0.054  0.444  0.485-  37 1.41  39 1.42  25 1.42
  27  0.166  0.333  0.486-  28 1.42  16 1.42  14 1.43
  28  0.219  0.444  0.488-  41 1.41  27 1.42  39 1.42
  29  0.336  0.338  0.489-  30 1.42  18 1.44  16 1.44
  30  0.388  0.448  0.495-  41 1.41  29 1.42  71 1.99
  31  0.503  0.338  0.490-  32 1.41  18 1.44  20 1.45
  32  0.561  0.449  0.496-  43 1.40  31 1.41  71 2.01
  33  0.668  0.332  0.486-  22 1.41  34 1.41  20 1.42
  34  0.725  0.443  0.487-  33 1.41  43 1.41  45 1.42
  35  0.832  0.332  0.484-  22 1.41  36 1.42  24 1.42
  36  0.889  0.443  0.484-  45 1.41  35 1.42  37 1.43
  37  1.000  0.499  0.484-  26 1.41  38 1.42  36 1.43
  38  0.055  0.611  0.484-  47 1.42  49 1.42  37 1.42
  39  0.165  0.500  0.487-  26 1.42  28 1.42  40 1.42
  40  0.220  0.611  0.487-  49 1.41  39 1.42  51 1.42
  41  0.329  0.499  0.491-  30 1.41  28 1.41  42 1.44
  42  0.386  0.612  0.491-  53 1.41  51 1.41  41 1.44
  43  0.670  0.499  0.491-  32 1.40  34 1.41  44 1.44
  44  0.726  0.611  0.491-  55 1.41  57 1.41  43 1.44
  45  0.835  0.500  0.486-  36 1.41  46 1.42  34 1.42
  46  0.891  0.611  0.486-  47 1.42  45 1.42  57 1.42
  47  0.001  0.667  0.484-  46 1.42  38 1.42  48 1.42
  48  0.056  0.779  0.484-  47 1.42  59 1.42  61 1.43
  49  0.166  0.667  0.485-  40 1.41  38 1.42  50 1.43
  50  0.223  0.779  0.484-  61 1.42  63 1.42  49 1.43
  51  0.331  0.667  0.488-  42 1.41  52 1.42  40 1.42
  52  0.388  0.778  0.486-  51 1.42  65 1.42  63 1.42
  53  0.495  0.663  0.495-  42 1.41  54 1.42  71 1.99
  54  0.553  0.774  0.489-  53 1.42  67 1.44  65 1.44
  55  0.668  0.662  0.496-  44 1.41  56 1.42  71 2.00
  56  0.720  0.773  0.489-  55 1.42  67 1.44  69 1.44
  57  0.836  0.667  0.487-  44 1.41  58 1.42  46 1.42
  58  0.890  0.778  0.486-  57 1.42  69 1.42  59 1.42
  59  0.001  0.834  0.484-  60 1.42  48 1.42  58 1.42
  60  0.057  0.946  0.484-  59 1.42   1 1.42   3 1.43
  61  0.168  0.835  0.483-  50 1.42  62 1.42  48 1.43
  62  0.223  0.946  0.483-  61 1.42   5 1.43   3 1.43
  63  0.334  0.834  0.484-  64 1.42  52 1.42  50 1.42
  64  0.390  0.946  0.484-  63 1.42   5 1.42   7 1.43
  65  0.499  0.832  0.486-  52 1.42  66 1.43  54 1.44
  66  0.555  0.944  0.484-   9 1.42  65 1.43   7 1.43
  67  0.665  0.830  0.488-  68 1.42  54 1.44  56 1.44
  68  0.721  0.942  0.485-  67 1.42  11 1.43   9 1.44
  69  0.832  0.831  0.486-  58 1.42  70 1.43  56 1.44
  70  0.888  0.943  0.484-  11 1.42  69 1.43   1 1.43
  71  0.527  0.556  0.541-  53 1.99  30 1.99  55 2.00  32 2.01
  72  0.527  0.556  0.940-  73 1.16
  73  0.477  0.499  0.996-  72 1.16
 

IMPORTANT INFORMATION: All symmetrisations will be switched off!
NOSYMM: (Re-)initialisation of all symmetry stuff for point group C_1.

 
 
 KPOINTS: K-Points                                

Automatic generation of k-mesh.
Space group operators:
 irot       det(A)        alpha          n_x          n_y          n_z        tau_x        tau_y        tau_z
    1     1.000000     0.000000     1.000000     0.000000     0.000000     0.000000     0.000000     0.000000
 
 Subroutine IBZKPT returns following result:
 ===========================================
 
 Found      5 irreducible k-points:
 
 Following reciprocal coordinates:
            Coordinates               Weight
  0.000000  0.000000  0.000000      1.000000
  0.333333  0.000000  0.000000      2.000000
  0.000000  0.333333  0.000000      2.000000
  0.333333  0.333333  0.000000      2.000000
 -0.333333  0.333333  0.000000      2.000000
 
 Following cartesian coordinates:
            Coordinates               Weight
  0.000000  0.000000  0.000000      1.000000
  0.022459  0.013069  0.000000      2.000000
 -0.000003  0.026139  0.000000      2.000000
  0.022456  0.039208  0.000000      2.000000
 -0.022462  0.013069  0.000000      2.000000
 
 TETIRR: Found     24 inequivalent tetrahedra from       54


--------------------------------------------------------------------------------------------------------




 Dimension of arrays:
   k-points           NKPTS =      5   k-points in BZ     NKDIM =      5   number of bands    NBANDS=    192
   number of dos      NEDOS =   4000   number of ions     NIONS =     73
   non local maximal  LDIM  =      6   non local SUM 2l+1 LMDIM =     18
   total plane-waves  NPLWV = 512000
   max r-space proj   IRMAX =      1   max aug-charges    IRDMAX=   6474
   dimension x,y,z NGX =    80 NGY =   80 NGZ =   80
   dimension x,y,z NGXF=   160 NGYF=  160 NGZF=  160
   support grid    NGXF=   160 NGYF=  160 NGZF=  160
   ions per type =              21   1  48   1   1   1
   NGX,Y,Z   is equivalent  to a cutoff of   8.96,  9.01,  8.87 a.u.
   NGXF,Y,Z  is equivalent  to a cutoff of  17.92, 18.03, 17.73 a.u.

 SYSTEM =  unknown system                          
 POSCAR =  POSCAR-clean                            

 Startparameter for this run:
   NWRITE =      2    write-flag & timer
   PREC   = normal    normal or accurate (medium, high low for compatibility)
   ISTART =      0    job   : 0-new  1-cont  2-samecut
   ICHARG =      2    charge: 1-file 2-atom 10-const
   ISPIN  =      2    spin polarized calculation?
   LNONCOLLINEAR =      F non collinear calculations
   LSORBIT =      F    spin-orbit coupling
   INIWAV =      1    electr: 0-lowe 1-rand  2-diag
   LASPH  =      F    aspherical Exc in radial PAW
   METAGGA=      F    non-selfconsistent MetaGGA calc.

 Electronic Relaxation 1
   ENCUT  =  440.0 eV  32.34 Ry    5.69 a.u.  25.38 25.23 25.66*2*pi/ulx,y,z
   ENINI  =  440.0     initial cutoff
   ENAUG  =  644.9 eV  augmentation charge cutoff
   NELM   =    100;   NELMIN=  2; NELMDL= -5     # of ELM steps 
   EDIFF  = 0.1E-03   stopping-criterion for ELM
   LREAL  =      F    real-space projection
   NLSPLINE    = F    spline interpolate recip. space projectors
   LCOMPAT=      F    compatible to vasp.4.4
   GGA_COMPAT  = T    GGA compatible to vasp.4.4-vasp.4.6
   LMAXPAW     = -100 max onsite density
   LMAXMIX     =    2 max onsite mixed and CHGCAR
   VOSKOWN=      0    Vosko Wilk Nusair interpolation
   ROPT   =    0.00000   0.00000   0.00000   0.00000
   ROPT   =    0.00000   0.00000
 Ionic relaxation
   EDIFFG = -.1E-01   stopping-criterion for IOM
   NSW    =      0    number of steps for IOM
   NBLOCK =      1;   KBLOCK =      1    inner block; outer block 
   IBRION =     -1    ionic relax: 0-MD 1-quasi-New 2-CG
   NFREE  =      0    steps in history (QN), initial steepest desc. (CG)
   ISIF   =      2    stress and relaxation
   IWAVPR =     10    prediction:  0-non 1-charg 2-wave 3-comb
   ISYM   =      0    0-nonsym 1-usesym 2-fastsym
   LCORR  =      T    Harris-Foulkes like correction to forces

   POTIM  = 0.5000    time-step for ionic-motion
   TEIN   =    0.0    initial temperature
   TEBEG  =    0.0;   TEEND  =   0.0 temperature during run
   SMASS  =  -3.00    Nose mass-parameter (am)
   estimated Nose-frequenzy (Omega)   =  0.10E-29 period in steps =****** mass=  -0.503E-26a.u.
   SCALEE = 1.0000    scale energy and forces
   NPACO  =    256;   APACO  = 16.0  distance and # of slots for P.C.
   PSTRESS=    0.0 pullay stress

  Mass of Ions in am
   POMASS =  12.01 14.00 12.01 52.00 12.01 16.00
  Ionic Valenz
   ZVAL   =   4.00  5.00  4.00 12.00  4.00  6.00
  Atomic Wigner-Seitz radii
   RWIGS  =  -1.00 -1.00 -1.00 -1.00 -1.00 -1.00
  virtual crystal weights 
   VCA    =   1.00  1.00  1.00  1.00  1.00  1.00
   NELECT =     303.0000    total number of electrons
   NUPDOWN=      -1.0000    fix difference up-down

 DOS related values:
   EMIN   = -14.00;   EMAX   =  6.00  energy-range for DOS
   EFERMI =   0.00
   ISMEAR =    -5;   SIGMA  =   0.20  broadening in eV -4-tet -1-fermi 0-gaus

 Electronic relaxation 2 (details)
   IALGO  =     38    algorithm
   LDIAG  =      T    sub-space diagonalisation (order eigenvalues)
   LSUBROT=      F    optimize rotation matrix (better conditioning)
   TURBO    =      0    0=normal 1=particle mesh
   IRESTART =      0    0=no restart 2=restart with 2 vectors
   NREBOOT  =      0    no. of reboots
   NMIN     =      0    reboot dimension
   EREF     =   0.00    reference energy to select bands
   IMIX   =      4    mixing-type and parameters
     AMIX     =   0.25;   BMIX     =  0.00
     AMIX_MAG =   1.00;   BMIX_MAG =  0.00
     AMIN     =   0.10
     WC   =   100.;   INIMIX=   1;  MIXPRE=   1;  MAXMIX= -45

 Intra band minimization:
   WEIMIN = 0.0000     energy-eigenvalue tresh-hold
   EBREAK =  0.13E-06  absolut break condition
   DEPER  =   0.30     relativ break condition  

   TIME   =   0.40     timestep for ELM

  volume/ion in A,a.u.               =      38.89       262.43
  Fermi-wavevector in a.u.,A,eV,Ry     =   0.776558  1.467482  8.204890  0.603042
  Thomas-Fermi vector in A             =   1.879061
 
 Write flags
   LWAVE        =      F    write WAVECAR
   LDOWNSAMPLE  =      F    k-point downsampling of WAVECAR
   LCHARG       =      F    write CHGCAR
   LVTOT        =      F    write LOCPOT, total local potential
   LVHAR        =      F    write LOCPOT, Hartree potential only
   LELF         =      F    write electronic localiz. function (ELF)
   LORBIT       =     11    0 simple, 1 ext, 2 COOP (PROOUT), +10 PAW based schemes


 Dipole corrections
   LMONO  =      F    monopole corrections only (constant potential shift)
   LDIPOL =      F    correct potential (dipole corrections)
   IDIPOL =      0    1-x, 2-y, 3-z, 4-all directions 
   EPSILON=  1.0000000 bulk dielectric constant

 Exchange correlation treatment:
   GGA     =    --    GGA type
   LEXCH   =     8    internal setting for exchange type
   VOSKOWN=      0    Vosko Wilk Nusair interpolation
   LHFCALC =     F    Hartree Fock is set to
   LHFONE  =     F    Hartree Fock one center treatment
   AEXX    =    0.0000 exact exchange contribution

 Linear response parameters
   LEPSILON=     F    determine dielectric tensor
   LRPA    =     F    only Hartree local field effects (RPA)
   LNABLA  =     F    use nabla operator in PAW spheres
   LVEL    =     F    velocity operator in full k-point grid
   LINTERFAST=   F  fast interpolation
   KINTER  =     0    interpolate to denser k-point grid
   CSHIFT  =0.1000    complex shift for real part using Kramers Kronig
   OMEGAMAX=  -1.0    maximum frequency
   DEG_THRESHOLD= 0.2000000E-02 threshold for treating states as degnerate
   RTIME   =   -0.100 relaxation time in fs
  (WPLASMAI=    0.000 imaginary part of plasma frequency in eV, 0.658/RTIME)
   DFIELD  = 0.0000000 0.0000000 0.0000000 field for delta impulse in time
 
 Orbital magnetization related:
   ORBITALMAG=     F  switch on orbital magnetization
   LCHIMAG   =     F  perturbation theory with respect to B field
   DQ        =  0.001000  dq finite difference perturbation B field
   LLRAUG    =     F  two centre corrections for induced B field



--------------------------------------------------------------------------------------------------------


 Static calculation
 charge density and potential will be updated during run
 spin polarized calculation
 Variant of blocked Davidson
 Davidson routine will perform the subspace rotation
 perform sub-space diagonalisation
    after iterative eigenvector-optimisation
 modified Broyden-mixing scheme, WC =      100.0
 initial mixing is a Kerker type mixing with AMIX =  0.2500 and BMIX =      0.0001
 Hartree-type preconditioning will be used
 using additional bands           40
 reciprocal scheme for non local part
 use partial core corrections
 calculate Harris-corrections to forces 
   (improved forces if not selfconsistent)
 use gradient corrections 
 use of overlap-Matrix (Vanderbilt PP)
 Fermi weights with tetrahedron method with Bloechl corrections


--------------------------------------------------------------------------------------------------------


  energy-cutoff  :      440.00
  volume of cell :     2838.87
      direct lattice vectors                 reciprocal lattice vectors
    14.840819483  0.001624541  0.000000000     0.067377432  0.039207918  0.000000000
    -7.420409742 12.751714014  0.000000000    -0.000008584  0.078415835  0.000000000
     0.000000000  0.000000000 15.000000000     0.000000000  0.000000000  0.066666667

  length of vectors
    14.840819572 14.753599256 15.000000000     0.077954982  0.078415836  0.066666667


 
 k-points in units of 2pi/SCALE and weight: K-Points                                
   0.00000000  0.00000000  0.00000000       0.111
   0.02245914  0.01306931  0.00000000       0.222
  -0.00000286  0.02613861  0.00000000       0.222
   0.02245628  0.03920792  0.00000000       0.222
  -0.02246201  0.01306931  0.00000000       0.222
 
 k-points in reciprocal lattice and weights: K-Points                                
   0.00000000  0.00000000  0.00000000       0.111
   0.33333333  0.00000000  0.00000000       0.222
   0.00000000  0.33333333  0.00000000       0.222
   0.33333333  0.33333333  0.00000000       0.222
  -0.33333333  0.33333333  0.00000000       0.222
 
 position of ions in fractional coordinates (direct lattice) 
   0.99996669  0.99983929  0.48364011
   0.05576540  0.11140279  0.48372530
   0.16791504  0.00183371  0.48344577
   0.22356818  0.11327133  0.48419375
   0.33438912  0.00175103  0.48352325
   0.39027718  0.11333705  0.48420780
   0.50080079  0.00046369  0.48372085
   0.55655220  0.11237796  0.48364183
   0.66582124  0.99868719  0.48428087
   0.72184878  0.11042099  0.48356631
   0.83226522  0.99800157  0.48427791
   0.88795812  0.10958595  0.48356918
   0.99930307  0.16584272  0.48370803
   0.05428931  0.27693373  0.48445585
   0.16745211  0.16805274  0.48439056
   0.22310657  0.27959797  0.48598037
   0.33538236  0.17016970  0.48525876
   0.39118519  0.28120318  0.48825240
   0.50075838  0.16792889  0.48424932
   0.55759101  0.27940525  0.48590731
   0.66720342  0.16676191  0.48363362
   0.72256227  0.27689527  0.48419008
   0.83287001  0.16513025  0.48348095
   0.88745225  0.27629294  0.48358228
   0.99877463  0.33250445  0.48415050
   0.05443342  0.44384055  0.48465024
   0.16553025  0.33298329  0.48615383
   0.21940787  0.44392997  0.48803680
   0.33561671  0.33766773  0.48893633
   0.38791268  0.44840113  0.49469567
   0.50346052  0.33799218  0.48952680
   0.56120938  0.44857922  0.49617495
   0.66821651  0.33244728  0.48580505
   0.72500320  0.44319735  0.48735602
   0.83235368  0.33190083  0.48389211
   0.88850408  0.44313672  0.48417999
   0.99959253  0.49923404  0.48402668
   0.05540409  0.61083977  0.48402105
   0.16473274  0.49986115  0.48654779
   0.22041512  0.61121226  0.48652930
   0.32932863  0.49934925  0.49115207
   0.38556847  0.61192395  0.49123249
   0.67025275  0.49851411  0.49135317
   0.72643008  0.61134750  0.49116648
   0.83548599  0.50002615  0.48565837
   0.89085816  0.61101522  0.48568554
   0.00117597  0.66709561  0.48417923
   0.05644772  0.77858271  0.48381149
   0.16616386  0.66702598  0.48460320
   0.22251241  0.77878212  0.48409126
   0.33117373  0.66729325  0.48807221
   0.38834574  0.77835798  0.48618779
   0.49513951  0.66304552  0.49504259
   0.55330705  0.77376943  0.48901119
   0.66753573  0.66192729  0.49555651
   0.72017628  0.77316613  0.48924541
   0.83611537  0.66698549  0.48732118
   0.89003806  0.77803949  0.48574631
   0.00109389  0.83413325  0.48407878
   0.05654196  0.94550903  0.48350952
   0.16755277  0.83458461  0.48349727
   0.22330249  0.94604649  0.48340277
   0.33353578  0.83449371  0.48442994
   0.38958188  0.94587840  0.48367811
   0.49918448  0.83183437  0.48603248
   0.55516196  0.94359131  0.48442458
   0.66522613  0.83024173  0.48815928
   0.72075867  0.94161630  0.48530134
   0.83242200  0.83134539  0.48596386
   0.88817411  0.94310423  0.48435588
   0.52677722  0.55567889  0.54093166
   0.52677722  0.55567889  0.93959833
   0.47668931  0.49876400  0.99595414
 
 position of ions in cartesian coordinates  (Angst):
   7.42110790 12.75128913  7.25460165
   0.00094984  1.42066715  7.25587946
   2.47838996  0.02365578  7.25168659
   2.47741540  1.44476678  7.26290631
   4.94961527  0.02287184  7.25284873
   4.95102588  1.44587561  7.26311699
   7.42885334  0.00672639  7.25581270
   7.42580014  1.43391581  7.25462738
   2.47066474 12.73605505  7.26421299
   9.89345850  1.40922951  7.25349459
   4.94591729 12.72758270  7.26416859
  12.36485352  1.39885119  7.25353776
  13.59985560  2.11640229  7.25562046
  -1.24926392  3.53146798  7.26683771
   1.23810638  2.14323251  7.26585841
   1.23635275  3.56571582  7.28970555
   3.71462011  2.17050016  7.27888137
   3.71886590  3.58645803  7.32378598
   6.18556359  2.14219464  7.26373984
   6.20180618  3.56380163  7.28860965
   8.66440376  2.12758411  7.25450432
   8.66873982  3.53206311  7.26285121
  11.13513935  2.10704679  7.25221427
  11.12031187  3.52465020  7.25373413
  12.35531463  4.24162426  7.26225751
  -2.48564219  5.65981613  7.26975367
  -0.01426787  4.24637653  7.29230740
  -0.03794973  5.66122451  7.32055194
   2.47519413  4.30638753  7.33404502
   2.42962194  5.71851320  7.42043510
   4.96372627  4.31079748  7.34290207
   5.00016547  5.72106565  7.44262423
   7.44998552  4.24035822  7.28707577
   7.47093562  5.65270363  7.31034033
   9.88997050  4.23365665  7.25838172
   9.89787256  5.65219614  7.26269982
  11.13025116  6.36771364  7.26040025
  -3.71043923  7.78934401  7.26031576
  -1.26440575  6.37435410  7.29821683
  -1.26430441  7.79436195  7.29793954
   1.18213064  6.36809384  7.36728104
   1.18142560  7.80370562  7.36848729
   6.24792110  6.35799824  7.37029758
   6.24436871  7.79690854  7.36749726
   8.68889781  6.37754770  7.28487558
   8.68708183  7.79293854  7.28528315
  -4.93267036  8.50661437  7.26268848
  -4.93967222  9.92835570  7.25717242
  -2.48359829  8.50599450  7.26904797
  -2.47661585  9.93116830  7.26136886
  -0.03669984  8.50967072  7.32108321
  -0.01236607  9.92602928  7.29281692
   2.42820669  8.45577122  7.42563878
   2.46984392  9.86778532  7.33516781
   4.99500554  8.44179192  7.43334772
   4.95079673  9.86036327  7.33868109
   7.45933170  8.50656651  7.30981767
   7.43552228  9.92278302  7.28619464
  -6.17337623 10.63663046  7.26118171
  -6.17693542 12.05695263  7.25264280
  -3.70633936 10.64265644  7.25245901
  -3.70606061 12.06407707  7.25104150
  -1.24234100 10.64176702  7.26644911
  -1.23709093 12.06220376  7.25517159
   1.23575480 10.60812500  7.29048717
   1.23722429 12.03330844  7.26636875
   3.71176712 10.58808575  7.32238916
   3.70947054 12.00839273  7.27952017
   6.18490129 10.60243093  7.28945795
   6.18301182 12.02763833  7.26533814
   3.69444063  7.08671403  8.11397489
   3.69444063  7.08671403 14.09397489
   3.37342668  6.36087034 14.93931208
 


--------------------------------------------------------------------------------------------------------


 k-point  1 :   0.0000 0.0000 0.0000  plane waves:   59513
 k-point  2 :   0.3333 0.0000 0.0000  plane waves:   59472
 k-point  3 :   0.0000 0.3333 0.0000  plane waves:   59520
 k-point  4 :   0.3333 0.3333 0.0000  plane waves:   59532
 k-point  5 :  -0.3333 0.3333 0.0000  plane waves:   59473

 maximum and minimum number of plane-waves per node :      4987     4935

 maximum number of plane-waves:     59532
 maximum index in each direction: 
   IXMAX=   25   IYMAX=   25   IZMAX=   25
   IXMIN=  -25   IYMIN=  -25   IZMIN=  -25


 parallel 3D FFT for wavefunctions:
    minimum data exchange during FFTs selected (reduces bandwidth)
 parallel 3D FFT for charge:
    minimum data exchange during FFTs selected (reduces bandwidth)


 total amount of memory used by VASP MPI-rank0   115936. kBytes
=======================================================================

   base      :      30000. kBytes
   nonl-proj :      27242. kBytes
   fftplans  :       4700. kBytes
   grid      :      15193. kBytes
   one-center:        217. kBytes
   wavefun   :      38584. kBytes
 
     INWAV:  cpu time    0.0000: real time    0.0002
 Broyden mixing: mesh for mixing (old mesh)
   NGX = 51   NGY = 51   NGZ = 51
  (NGX  =160   NGY  =160   NGZ  =160)
  gives a total of 132651 points

 initial charge density was supplied:
 charge density of overlapping atoms calculated
 number of electron     303.0000000 magnetization       2.0000000
 keeping initial charge density in first step


--------------------------------------------------------------------------------------------------------


 Maximum index for augmentation-charges          178 (set IRDMAX)


--------------------------------------------------------------------------------------------------------


 First call to EWALD:  gamma=   0.125
 Maximum number of real-space cells 3x 3x 3
 Maximum number of reciprocal cells 3x 3x 3

    FEWALD:  cpu time    0.0038: real time    0.0040


--------------------------------------- Iteration      1(   1)  ---------------------------------------


    POTLOK:  cpu time    0.1867: real time    0.2315
    SETDIJ:  cpu time    0.0086: real time    0.0096
     EDDAV:  cpu time   11.4340: real time   11.5486
 BZINTS: Fermi energy:  7.970097;303.000000 electrons
         Band energy:***********;  BLOECHL correction: -0.014688
       DOS:  cpu time    0.1098: real time    0.1102
    --------------------------------------------
      LOOP:  cpu time   11.7392: real time   11.9000

 eigenvalue-minimisations  :  4368
 total energy-change (2. order) : 0.2532086E+04  (-0.1116872E+05)
 number of electron     303.0000000 magnetization       2.0000000
 augmentation part      303.0000000 magnetization       2.0000000

 Free energy of the ion-electron system (eV)
  ---------------------------------------------------
  alpha Z        PSCENC =       167.50487419
  Ewald energy   TEWEN  =     28947.24083928
  -Hartree energ DENC   =    -38622.22292026
  -exchange      EXHF   =         0.00000000
  -V(xc)+E(xc)   XCENC  =      1022.50516197
  PAW double counting   =      9455.23336183    -9546.47664214
  entropy T*S    EENTRO =         0.00000000
  eigenvalues    EBANDS =     -1536.45184957
  atomic energy  EATOM  =     12644.75315347
  Solvation  Ediel_sol  =         0.00000000
  ---------------------------------------------------
  free energy    TOTEN  =      2532.08597878 eV

  energy without entropy =     2532.08597878  energy(sigma->0) =     2532.08597878


--------------------------------------------------------------------------------------------------------




--------------------------------------- Iteration      1(   2)  ---------------------------------------


     EDDAV:  cpu time   15.3406: real time   15.6839
 BZINTS: Fermi energy: -1.332257;303.000000 electrons
         Band energy:***********;  BLOECHL correction: -0.064338
       DOS:  cpu time    0.0116: real time    0.0117
    --------------------------------------------
      LOOP:  cpu time   15.3522: real time   15.6956

 eigenvalue-minimisations  :  5520
 total energy-change (2. order) :-0.2773113E+04  (-0.2649278E+04)
 number of electron     303.0000000 magnetization       2.0000000
 augmentation part      303.0000000 magnetization       2.0000000

 Free energy of the ion-electron system (eV)
  ---------------------------------------------------
  alpha Z        PSCENC =       167.50487419
  Ewald energy   TEWEN  =     28947.24083928
  -Hartree energ DENC   =    -38622.22292026
  -exchange      EXHF   =         0.00000000
  -V(xc)+E(xc)   XCENC  =      1022.50516197
  PAW double counting   =      9455.23336183    -9546.47664214
  entropy T*S    EENTRO =         0.00000000
  eigenvalues    EBANDS =     -4309.56446724
  atomic energy  EATOM  =     12644.75315347
  Solvation  Ediel_sol  =         0.00000000
  ---------------------------------------------------
  free energy    TOTEN  =      -241.02663889 eV

  energy without entropy =     -241.02663889  energy(sigma->0) =     -241.02663889


--------------------------------------------------------------------------------------------------------




--------------------------------------- Iteration      1(   3)  ---------------------------------------


     EDDAV:  cpu time   12.8989: real time   13.1639
 BZINTS: Fermi energy: -4.543661;303.000000 electrons
         Band energy:***********;  BLOECHL correction: -0.038222
       DOS:  cpu time    0.0117: real time    0.0117
    --------------------------------------------
      LOOP:  cpu time   12.9106: real time   13.1756

 eigenvalue-minimisations  :  4616
 total energy-change (2. order) :-0.4618472E+03  (-0.4585215E+03)
 number of electron     303.0000000 magnetization       2.0000000
 augmentation part      303.0000000 magnetization       2.0000000

 Free energy of the ion-electron system (eV)
  ---------------------------------------------------
  alpha Z        PSCENC =       167.50487419
  Ewald energy   TEWEN  =     28947.24083928
  -Hartree energ DENC   =    -38622.22292026
  -exchange      EXHF   =         0.00000000
  -V(xc)+E(xc)   XCENC  =      1022.50516197
  PAW double counting   =      9455.23336183    -9546.47664214
  entropy T*S    EENTRO =         0.00000000
  eigenvalues    EBANDS =     -4771.41169214
  atomic energy  EATOM  =     12644.75315347
  Solvation  Ediel_sol  =         0.00000000
  ---------------------------------------------------
  free energy    TOTEN  =      -702.87386379 eV

  energy without entropy =     -702.87386379  energy(sigma->0) =     -702.87386379


--------------------------------------------------------------------------------------------------------




--------------------------------------- Iteration      1(   4)  ---------------------------------------


     EDDAV:  cpu time   13.2042: real time   13.4773
 BZINTS: Fermi energy: -4.713832;303.000000 electrons
         Band energy:***********;  BLOECHL correction: -0.042771
       DOS:  cpu time    0.0119: real time    0.0120
    --------------------------------------------
      LOOP:  cpu time   13.2161: real time   13.4893

 eigenvalue-minimisations  :  4616
 total energy-change (2. order) :-0.1658984E+02  (-0.1644528E+02)
 number of electron     303.0000000 magnetization       2.0000000
 augmentation part      303.0000000 magnetization       2.0000000

 Free energy of the ion-electron system (eV)
  ---------------------------------------------------
  alpha Z        PSCENC =       167.50487419
  Ewald energy   TEWEN  =     28947.24083928
  -Hartree energ DENC   =    -38622.22292026
  -exchange      EXHF   =         0.00000000
  -V(xc)+E(xc)   XCENC  =      1022.50516197
  PAW double counting   =      9455.23336183    -9546.47664214
  entropy T*S    EENTRO =         0.00000000
  eigenvalues    EBANDS =     -4788.00153601
  atomic energy  EATOM  =     12644.75315347
  Solvation  Ediel_sol  =         0.00000000
  ---------------------------------------------------
  free energy    TOTEN  =      -719.46370766 eV

  energy without entropy =     -719.46370766  energy(sigma->0) =     -719.46370766


--------------------------------------------------------------------------------------------------------




--------------------------------------- Iteration      1(   5)  ---------------------------------------


     EDDAV:  cpu time   14.8657: real time   15.0011
 BZINTS: Fermi energy: -4.722594;303.000000 electrons
         Band energy:***********;  BLOECHL correction: -0.042720
       DOS:  cpu time    0.0117: real time    0.0117
    CHARGE:  cpu time    0.2107: real time    0.2151
    MIXING:  cpu time    0.0048: real time    0.0049
    --------------------------------------------
      LOOP:  cpu time   15.0929: real time   15.2328

 eigenvalue-minimisations  :  5264
 total energy-change (2. order) :-0.5394516E+00  (-0.5378458E+00)
 number of electron     302.9999976 magnetization       0.0163443
 augmentation part       12.3924823 magnetization       0.0679927

 Broyden mixing:
  rms(total) = 0.47746E+01    rms(broyden)= 0.47741E+01
  rms(prec ) = 0.55316E+01
  weight for this iteration     100.00

 Free energy of the ion-electron system (eV)
  ---------------------------------------------------
  alpha Z        PSCENC =       167.50487419
  Ewald energy   TEWEN  =     28947.24083928
  -Hartree energ DENC   =    -38622.22292026
  -exchange      EXHF   =         0.00000000
  -V(xc)+E(xc)   XCENC  =      1022.50516197
  PAW double counting   =      9455.23336183    -9546.47664214
  entropy T*S    EENTRO =         0.00000000
  eigenvalues    EBANDS =     -4788.54098759
  atomic energy  EATOM  =     12644.75315347
  Solvation  Ediel_sol  =         0.00000000
  ---------------------------------------------------
  free energy    TOTEN  =      -720.00315923 eV

  energy without entropy =     -720.00315923  energy(sigma->0) =     -720.00315923


--------------------------------------------------------------------------------------------------------




--------------------------------------- Iteration      1(   6)  ---------------------------------------


    POTLOK:  cpu time    0.1516: real time    0.1539
    SETDIJ:  cpu time    0.0109: real time    0.0109
     EDDAV:  cpu time   12.5098: real time   12.6516
 BZINTS: Fermi energy: -5.529224;303.000000 electrons
         Band energy:***********;  BLOECHL correction: -0.019427
       DOS:  cpu time    0.0115: real time    0.0116
    CHARGE:  cpu time    0.1674: real time    0.1739
    MIXING:  cpu time    0.0036: real time    0.0039
    --------------------------------------------
      LOOP:  cpu time   12.8548: real time   13.0058

 eigenvalue-minimisations  :  4816
 total energy-change (2. order) : 0.2669323E+00  (-0.8994977E+01)
 number of electron     303.0000021 magnetization       0.0145891
 augmentation part       18.0352488 magnetization       0.0351731

 Broyden mixing:
  rms(total) = 0.74678E+01    rms(broyden)= 0.74675E+01
  rms(prec ) = 0.85412E+01
  weight for this iteration     100.00

 eigenvalues of (default mixing * dielectric matrix)
  average eigenvalue GAMMA=   0.2832
  0.2832

 Free energy of the ion-electron system (eV)
  ---------------------------------------------------
  alpha Z        PSCENC =       167.50487419
  Ewald energy   TEWEN  =     28947.24083928
  -Hartree energ DENC   =    -38999.47484152
  -exchange      EXHF   =         0.00000000
  -V(xc)+E(xc)   XCENC  =      1035.33498888
  PAW double counting   =     13254.33924289   -13345.56717488
  entropy T*S    EENTRO =         0.00000000
  eigenvalues    EBANDS =     -4423.86730923
  atomic energy  EATOM  =     12644.75315347
  Solvation  Ediel_sol  =         0.00000000
  ---------------------------------------------------
  free energy    TOTEN  =      -719.73622691 eV

  energy without entropy =     -719.73622691  energy(sigma->0) =     -719.73622691


--------------------------------------------------------------------------------------------------------




--------------------------------------- Iteration      1(   7)  ---------------------------------------


    POTLOK:  cpu time    0.1432: real time    0.1513
    SETDIJ:  cpu time    0.0087: real time    0.0086
     EDDAV:  cpu time   13.1534: real time   13.2822
 BZINTS: Fermi energy: -4.118090;303.000000 electrons
         Band energy:***********;  BLOECHL correction: -0.017396
       DOS:  cpu time    0.0121: real time    0.0121
    CHARGE:  cpu time    0.1672: real time    0.1706
    MIXING:  cpu time    0.0038: real time    0.0041
    --------------------------------------------
      LOOP:  cpu time   13.4884: real time   13.6288

 eigenvalue-minimisations  :  4944
 total energy-change (2. order) : 0.4627446E+02  (-0.6519593E+01)
 number of electron     303.0000010 magnetization       0.5762834
 augmentation part       14.5380442 magnetization       0.3462122

 Broyden mixing:
  rms(total) = 0.26708E+01    rms(broyden)= 0.26702E+01
  rms(prec ) = 0.29467E+01
  weight for this iteration     100.00

 eigenvalues of (default mixing * dielectric matrix)
  average eigenvalue GAMMA=   0.6369
  0.9552  0.3185

 Free energy of the ion-electron system (eV)
  ---------------------------------------------------
  alpha Z        PSCENC =       167.50487419
  Ewald energy   TEWEN  =     28947.24083928
  -Hartree energ DENC   =    -39141.15227785
  -exchange      EXHF   =         0.00000000
  -V(xc)+E(xc)   XCENC  =      1039.82364884
  PAW double counting   =     14480.73210460   -14576.51394759
  entropy T*S    EENTRO =         0.00000000
  eigenvalues    EBANDS =     -4235.85015842
  atomic energy  EATOM  =     12644.75315347
  Solvation  Ediel_sol  =         0.00000000
  ---------------------------------------------------
  free energy    TOTEN  =      -673.46176347 eV

  energy without entropy =     -673.46176347  energy(sigma->0) =     -673.46176347


--------------------------------------------------------------------------------------------------------




--------------------------------------- Iteration      1(   8)  ---------------------------------------


    POTLOK:  cpu time    0.1802: real time    0.1837
    SETDIJ:  cpu time    0.0107: real time    0.0107
     EDDAV:  cpu time   12.8655: real time   13.0123
 BZINTS: Fermi energy: -2.441509;303.000000 electrons
         Band energy:***********;  BLOECHL correction: -0.031211
       DOS:  cpu time    0.0114: real time    0.0115
    CHARGE:  cpu time    0.1634: real time    0.1649
    MIXING:  cpu time    0.0032: real time    0.0032
    --------------------------------------------
      LOOP:  cpu time   13.2344: real time   13.3864

 eigenvalue-minimisations  :  4872
 total energy-change (2. order) : 0.3314651E+01  (-0.3863652E+01)
 number of electron     302.9999984 magnetization       0.2029061
 augmentation part       12.2360745 magnetization       0.1655664

 Broyden mixing:
  rms(total) = 0.26454E+01    rms(broyden)= 0.26447E+01
  rms(prec ) = 0.31260E+01
  weight for this iteration     100.00

 eigenvalues of (default mixing * dielectric matrix)
  average eigenvalue GAMMA=   1.1297
  2.5967  0.3962  0.3962

 Free energy of the ion-electron system (eV)
  ---------------------------------------------------
  alpha Z        PSCENC =       167.50487419
  Ewald energy   TEWEN  =     28947.24083928
  -Hartree energ DENC   =    -39430.64479291
  -exchange      EXHF   =         0.00000000
  -V(xc)+E(xc)   XCENC  =      1049.62080845
  PAW double counting   =     18155.71834361   -18254.74743842
  entropy T*S    EENTRO =         0.00000000
  eigenvalues    EBANDS =     -3949.59290046
  atomic energy  EATOM  =     12644.75315347
  Solvation  Ediel_sol  =         0.00000000
  ---------------------------------------------------
  free energy    TOTEN  =      -670.14711279 eV

  energy without entropy =     -670.14711279  energy(sigma->0) =     -670.14711279


--------------------------------------------------------------------------------------------------------




--------------------------------------- Iteration      1(   9)  ---------------------------------------


    POTLOK:  cpu time    0.1398: real time    0.1421
    SETDIJ:  cpu time    0.0087: real time    0.0087
     EDDAV:  cpu time   12.2858: real time   12.3739
 BZINTS: Fermi energy: -2.798948;303.000000 electrons
         Band energy:***********;  BLOECHL correction: -0.083604
       DOS:  cpu time    0.0113: real time    0.0114
    CHARGE:  cpu time    0.1671: real time    0.1677
    MIXING:  cpu time    0.0036: real time    0.0037
    --------------------------------------------
      LOOP:  cpu time   12.6163: real time   12.7074

 eigenvalue-minimisations  :  4632
 total energy-change (2. order) : 0.5502497E+01  (-0.2605855E+01)
 number of electron     303.0000016 magnetization      -0.1102946
 augmentation part       15.0232033 magnetization      -0.1280036

 Broyden mixing:
  rms(total) = 0.20898E+01    rms(broyden)= 0.20883E+01
  rms(prec ) = 0.26882E+01
  weight for this iteration     100.00

 eigenvalues of (default mixing * dielectric matrix)
  average eigenvalue GAMMA=   1.0888
  2.8277  0.8249  0.3514  0.3514

 Free energy of the ion-electron system (eV)
  ---------------------------------------------------
  alpha Z        PSCENC =       167.50487419
  Ewald energy   TEWEN  =     28947.24083928
  -Hartree energ DENC   =    -39852.74950060
  -exchange      EXHF   =         0.00000000
  -V(xc)+E(xc)   XCENC  =      1064.96780305
  PAW double counting   =     25996.92992017   -26099.37056454
  entropy T*S    EENTRO =         0.00000000
  eigenvalues    EBANDS =     -3533.92114100
  atomic energy  EATOM  =     12644.75315347
  Solvation  Ediel_sol  =         0.00000000
  ---------------------------------------------------
  free energy    TOTEN  =      -664.64461597 eV

  energy without entropy =     -664.64461597  energy(sigma->0) =     -664.64461597


--------------------------------------------------------------------------------------------------------




--------------------------------------- Iteration      1(  10)  ---------------------------------------


    POTLOK:  cpu time    0.1534: real time    0.1566
    SETDIJ:  cpu time    0.0105: real time    0.0106
     EDDAV:  cpu time   13.4066: real time   13.6453
 BZINTS: Fermi energy: -1.251113;303.000000 electrons
         Band energy:***********;  BLOECHL correction: -0.051732
       DOS:  cpu time    0.0117: real time    0.0117
    CHARGE:  cpu time    0.1644: real time    0.1648
    MIXING:  cpu time    0.0039: real time    0.0039
    --------------------------------------------
      LOOP:  cpu time   13.7505: real time   13.9929

 eigenvalue-minimisations  :  5184
 total energy-change (2. order) : 0.2487527E+01  (-0.2074177E+01)
 number of electron     303.0000004 magnetization      -0.1396897
 augmentation part       12.6485703 magnetization      -0.0852961

 Broyden mixing:
  rms(total) = 0.11282E+01    rms(broyden)= 0.11262E+01
  rms(prec ) = 0.13285E+01
  weight for this iteration     100.00

 eigenvalues of (default mixing * dielectric matrix)
  average eigenvalue GAMMA=   1.1835
  3.4121  1.1997  0.6433  0.3313  0.3313

 Free energy of the ion-electron system (eV)
  ---------------------------------------------------
  alpha Z        PSCENC =       167.50487419
  Ewald energy   TEWEN  =     28947.24083928
  -Hartree energ DENC   =    -39887.06425627
  -exchange      EXHF   =         0.00000000
  -V(xc)+E(xc)   XCENC  =      1066.30578978
  PAW double counting   =     28028.84366067   -28131.77177174
  entropy T*S    EENTRO =         0.00000000
  eigenvalues    EBANDS =     -3497.96937830
  atomic energy  EATOM  =     12644.75315347
  Solvation  Ediel_sol  =         0.00000000
  ---------------------------------------------------
  free energy    TOTEN  =      -662.15708893 eV

  energy without entropy =     -662.15708893  energy(sigma->0) =     -662.15708893


--------------------------------------------------------------------------------------------------------




--------------------------------------- Iteration      1(  11)  ---------------------------------------


    POTLOK:  cpu time    0.1366: real time    0.1394
    SETDIJ:  cpu time    0.0087: real time    0.0087
     EDDAV:  cpu time   13.5729: real time   13.7224
 BZINTS: Fermi energy: -1.708859;303.000000 electrons
         Band energy:***********;  BLOECHL correction: -0.014955
       DOS:  cpu time    0.0116: real time    0.0116
    CHARGE:  cpu time    0.1765: real time    0.1785
    MIXING:  cpu time    0.0038: real time    0.0039
    --------------------------------------------
      LOOP:  cpu time   13.9100: real time   14.0645

 eigenvalue-minimisations  :  5272
 total energy-change (2. order) : 0.6257843E+00  (-0.1423818E+00)
 number of electron     303.0000010 magnetization      -0.6895836
 augmentation part       13.4192948 magnetization      -0.3420230

 Broyden mixing:
  rms(total) = 0.69445E+00    rms(broyden)= 0.69349E+00
  rms(prec ) = 0.71025E+00
  weight for this iteration     100.00

 eigenvalues of (default mixing * dielectric matrix)
  average eigenvalue GAMMA=   1.1473
  3.4380  1.4598  0.9604  0.3416  0.3416  0.3426

 Free energy of the ion-electron system (eV)
  ---------------------------------------------------
  alpha Z        PSCENC =       167.50487419
  Ewald energy   TEWEN  =     28947.24083928
  -Hartree energ DENC   =    -39867.32155848
  -exchange      EXHF   =         0.00000000
  -V(xc)+E(xc)   XCENC  =      1065.91263090
  PAW double counting   =     29712.90449994   -29815.28027439
  entropy T*S    EENTRO =         0.00000000
  eigenvalues    EBANDS =     -3517.24546955
  atomic energy  EATOM  =     12644.75315347
  Solvation  Ediel_sol  =         0.00000000
  ---------------------------------------------------
  free energy    TOTEN  =      -661.53130464 eV

  energy without entropy =     -661.53130464  energy(sigma->0) =     -661.53130464


--------------------------------------------------------------------------------------------------------




--------------------------------------- Iteration      1(  12)  ---------------------------------------


    POTLOK:  cpu time    0.1405: real time    0.1438
    SETDIJ:  cpu time    0.0114: real time    0.0121
     EDDAV:  cpu time   12.5400: real time   12.8041
 BZINTS: Fermi energy: -1.984496;303.000000 electrons
         Band energy:***********;  BLOECHL correction:  0.000000
       DOS:  cpu time    0.0080: real time    0.0081
    CHARGE:  cpu time    0.1644: real time    0.1661
    MIXING:  cpu time    0.0036: real time    0.0036
    --------------------------------------------
      LOOP:  cpu time   12.8680: real time   13.1378

 eigenvalue-minimisations  :  4608
 total energy-change (2. order) :-0.3250350E+00  (-0.5755931E-01)
 number of electron     303.0000010 magnetization      -0.9265142
 augmentation part       13.7051789 magnetization      -0.6255442

 Broyden mixing:
  rms(total) = 0.67402E+00    rms(broyden)= 0.67359E+00
  rms(prec ) = 0.74768E+00
  weight for this iteration     100.00

 eigenvalues of (default mixing * dielectric matrix)
  average eigenvalue GAMMA=   1.1932
  3.5428  1.4211  1.4211  0.6512  0.6512  0.3325  0.3325

 Free energy of the ion-electron system (eV)
  ---------------------------------------------------
  alpha Z        PSCENC =       167.50487419
  Ewald energy   TEWEN  =     28947.24083928
  -Hartree energ DENC   =    -39825.86862254
  -exchange      EXHF   =         0.00000000
  -V(xc)+E(xc)   XCENC  =      1064.73470348
  PAW double counting   =     30715.80281823   -30817.47223961
  entropy T*S    EENTRO =         0.00000000
  eigenvalues    EBANDS =     -3558.55186613
  atomic energy  EATOM  =     12644.75315347
  Solvation  Ediel_sol  =         0.00000000
  ---------------------------------------------------
  free energy    TOTEN  =      -661.85633963 eV

  energy without entropy =     -661.85633963  energy(sigma->0) =     -661.85633963


--------------------------------------------------------------------------------------------------------




--------------------------------------- Iteration      1(  13)  ---------------------------------------


    POTLOK:  cpu time    0.1471: real time    0.1494
    SETDIJ:  cpu time    0.0085: real time    0.0086
     EDDAV:  cpu time   13.1952: real time   13.5154
 BZINTS: Fermi energy: -2.071979;303.000000 electrons
         Band energy:***********;  BLOECHL correction:  0.000000
       DOS:  cpu time    0.0058: real time    0.0058
    CHARGE:  cpu time    0.1619: real time    0.1632
    MIXING:  cpu time    0.0041: real time    0.0042
    --------------------------------------------
      LOOP:  cpu time   13.5227: real time   13.8467

 eigenvalue-minimisations  :  5040
 total energy-change (2. order) :-0.1360633E+00  (-0.4085056E-01)
 number of electron     303.0000007 magnetization      -0.9007205
 augmentation part       13.6561228 magnetization      -0.8396536

 Broyden mixing:
  rms(total) = 0.44103E+00    rms(broyden)= 0.44091E+00
  rms(prec ) = 0.50845E+00
  weight for this iteration     100.00

 eigenvalues of (default mixing * dielectric matrix)
  average eigenvalue GAMMA=   1.2928
  3.6447  1.8256  1.8256  0.9003  0.9003  0.3329  0.3329  0.5800

 Free energy of the ion-electron system (eV)
  ---------------------------------------------------
  alpha Z        PSCENC =       167.50487419
  Ewald energy   TEWEN  =     28947.24083928
  -Hartree energ DENC   =    -39801.78795991
  -exchange      EXHF   =         0.00000000
  -V(xc)+E(xc)   XCENC  =      1064.24518496
  PAW double counting   =     31664.71578233   -31765.92735630
  entropy T*S    EENTRO =         0.00000000
  eigenvalues    EBANDS =     -3582.73692101
  atomic energy  EATOM  =     12644.75315347
  Solvation  Ediel_sol  =         0.00000000
  ---------------------------------------------------
  free energy    TOTEN  =      -661.99240297 eV

  energy without entropy =     -661.99240297  energy(sigma->0) =     -661.99240297


--------------------------------------------------------------------------------------------------------




--------------------------------------- Iteration      1(  14)  ---------------------------------------


    POTLOK:  cpu time    0.1556: real time    0.1587
    SETDIJ:  cpu time    0.0104: real time    0.0108
     EDDAV:  cpu time   12.4069: real time   12.5123
 BZINTS: Fermi energy: -2.081864;303.000000 electrons
         Band energy:***********;  BLOECHL correction:  0.000000
       DOS:  cpu time    0.0057: real time    0.0058
    CHARGE:  cpu time    0.1635: real time    0.1642
    MIXING:  cpu time    0.0042: real time    0.0042
    --------------------------------------------
      LOOP:  cpu time   12.7462: real time   12.8560

 eigenvalue-minimisations  :  4696
 total energy-change (2. order) :-0.3241866E-01  (-0.1246490E-01)
 number of electron     303.0000006 magnetization      -0.9017868
 augmentation part       13.6294380 magnetization      -0.9618157

 Broyden mixing:
  rms(total) = 0.36225E+00    rms(broyden)= 0.36220E+00
  rms(prec ) = 0.42581E+00
  weight for this iteration     100.00

 eigenvalues of (default mixing * dielectric matrix)
  average eigenvalue GAMMA=   1.3761
  3.5500  2.3746  2.3746  1.0416  1.0416  0.3328  0.3328  0.6684  0.6684

 Free energy of the ion-electron system (eV)
  ---------------------------------------------------
  alpha Z        PSCENC =       167.50487419
  Ewald energy   TEWEN  =     28947.24083928
  -Hartree energ DENC   =    -39800.98101592
  -exchange      EXHF   =         0.00000000
  -V(xc)+E(xc)   XCENC  =      1064.31685202
  PAW double counting   =     31863.92538952   -31965.04214872
  entropy T*S    EENTRO =         0.00000000
  eigenvalues    EBANDS =     -3583.74276548
  atomic energy  EATOM  =     12644.75315347
  Solvation  Ediel_sol  =         0.00000000
  ---------------------------------------------------
  free energy    TOTEN  =      -662.02482164 eV

  energy without entropy =     -662.02482164  energy(sigma->0) =     -662.02482164


--------------------------------------------------------------------------------------------------------




--------------------------------------- Iteration      1(  15)  ---------------------------------------


    POTLOK:  cpu time    0.1167: real time    0.1192
    SETDIJ:  cpu time    0.0086: real time    0.0086
     EDDAV:  cpu time   12.7653: real time   12.9636
 BZINTS: Fermi energy: -2.095774;303.000000 electrons
         Band energy:***********;  BLOECHL correction:  0.000000
       DOS:  cpu time    0.0045: real time    0.0045
    CHARGE:  cpu time    0.2060: real time    0.2076
    MIXING:  cpu time    0.0051: real time    0.0051
    --------------------------------------------
      LOOP:  cpu time   13.1061: real time   13.3085

 eigenvalue-minimisations  :  4736
 total energy-change (2. order) : 0.1543394E-01  (-0.9672066E-02)
 number of electron     303.0000005 magnetization      -0.9465177
 augmentation part       13.5805234 magnetization      -1.1102959

 Broyden mixing:
  rms(total) = 0.25859E+00    rms(broyden)= 0.25855E+00
  rms(prec ) = 0.31171E+00
  weight for this iteration     100.00

 eigenvalues of (default mixing * dielectric matrix)
  average eigenvalue GAMMA=   1.3579
  3.5834  2.3869  2.3869  1.2404  1.2404  0.3328  0.3328  0.7452  0.7452  0.5849

 Free energy of the ion-electron system (eV)
  ---------------------------------------------------
  alpha Z        PSCENC =       167.50487419
  Ewald energy   TEWEN  =     28947.24083928
  -Hartree energ DENC   =    -39799.66466258
  -exchange      EXHF   =         0.00000000
  -V(xc)+E(xc)   XCENC  =      1064.38163360
  PAW double counting   =     31873.59152784   -31974.63560115
  entropy T*S    EENTRO =         0.00000000
  eigenvalues    EBANDS =     -3585.18115235
  atomic energy  EATOM  =     12644.75315347
  Solvation  Ediel_sol  =         0.00000000
  ---------------------------------------------------
  free energy    TOTEN  =      -662.00938769 eV

  energy without entropy =     -662.00938769  energy(sigma->0) =     -662.00938769


--------------------------------------------------------------------------------------------------------




--------------------------------------- Iteration      1(  16)  ---------------------------------------


    POTLOK:  cpu time    0.1435: real time    0.1454
    SETDIJ:  cpu time    0.0104: real time    0.0104
     EDDAV:  cpu time   12.3305: real time   12.5392
 BZINTS: Fermi energy: -2.084521;303.000000 electrons
         Band energy:***********;  BLOECHL correction:  0.000000
       DOS:  cpu time    0.0043: real time    0.0043
    CHARGE:  cpu time    0.1646: real time    0.1687
    MIXING:  cpu time    0.0043: real time    0.0046
    --------------------------------------------
      LOOP:  cpu time   12.6576: real time   12.8725

 eigenvalue-minimisations  :  4568
 total energy-change (2. order) : 0.1269837E-01  (-0.1373250E-02)
 number of electron     303.0000004 magnetization      -0.9576382
 augmentation part       13.5476694 magnetization      -1.1338617

 Broyden mixing:
  rms(total) = 0.20483E+00    rms(broyden)= 0.20482E+00
  rms(prec ) = 0.24828E+00
  weight for this iteration     100.00

 eigenvalues of (default mixing * dielectric matrix)
  average eigenvalue GAMMA=   1.3501
  3.5965  2.5623  2.5623  1.1744  1.1744  0.8778  0.8778  0.3328  0.3328  0.6798
  0.6798

 Free energy of the ion-electron system (eV)
  ---------------------------------------------------
  alpha Z        PSCENC =       167.50487419
  Ewald energy   TEWEN  =     28947.24083928
  -Hartree energ DENC   =    -39798.62161069
  -exchange      EXHF   =         0.00000000
  -V(xc)+E(xc)   XCENC  =      1064.37521370
  PAW double counting   =     31903.27648277   -32004.28865132
  entropy T*S    EENTRO =         0.00000000
  eigenvalues    EBANDS =     -3586.23699074
  atomic energy  EATOM  =     12644.75315347
  Solvation  Ediel_sol  =         0.00000000
  ---------------------------------------------------
  free energy    TOTEN  =      -661.99668933 eV

  energy without entropy =     -661.99668933  energy(sigma->0) =     -661.99668933


[...]
   0.724E+01 -.216E+01 0.327E+01   -.705E+01 0.218E+01 -.322E+01   -.142E+00 -.479E-01 -.569E-01   -.156E-01 0.107E-02 -.240E-02
   0.291E+02 0.934E+01 0.155E+02   -.282E+02 -.964E+01 -.161E+02   -.884E+00 0.475E+00 0.689E+00   -.730E-01 -.240E-01 -.283E-01
   0.286E+02 -.101E+02 0.152E+02   -.277E+02 0.104E+02 -.158E+02   -.856E+00 -.489E+00 0.699E+00   -.722E-01 0.243E-01 -.281E-01
   -.264E+02 0.509E+01 0.135E+02   0.248E+02 -.502E+01 -.140E+02   0.160E+01 0.111E+00 0.475E+00   0.739E-01 -.248E-01 -.276E-01
   -.262E+02 -.109E+02 0.145E+02   0.252E+02 0.114E+02 -.150E+02   0.111E+01 -.650E+00 0.527E+00   0.725E-01 0.209E-01 -.277E-01
   -.762E+01 -.755E+01 0.648E+01   0.751E+01 0.845E+01 -.644E+01   0.114E+00 -.844E+00 -.482E-01   0.114E-01 -.583E-02 -.173E-02
   -.771E+01 -.570E+01 0.621E+01   0.754E+01 0.614E+01 -.617E+01   0.149E+00 -.477E+00 -.442E-01   0.122E-01 -.439E-02 -.188E-02
   -.476E+01 -.675E+01 0.780E+01   0.477E+01 0.695E+01 -.784E+01   0.850E-02 -.156E+00 0.346E-01   0.559E-02 0.331E-03 -.112E-02
   -.271E+01 -.499E+01 0.701E+01   0.272E+01 0.508E+01 -.699E+01   0.630E-01 -.119E+00 -.194E-01   0.415E-02 0.659E-03 -.887E-03
   0.533E+01 -.594E+01 0.661E+01   -.523E+01 0.603E+01 -.665E+01   -.148E+00 -.672E-01 0.393E-01   -.945E-02 0.215E-02 -.139E-02
   0.230E+01 -.326E+01 0.630E+01   -.229E+01 0.328E+01 -.629E+01   -.374E-01 -.428E-01 -.166E-01   -.637E-02 0.310E-02 -.103E-02
   0.156E+02 -.838E+01 0.450E+01   -.153E+02 0.821E+01 -.456E+01   -.321E+00 0.135E+00 0.763E-01   -.245E-01 0.913E-02 -.527E-02
   0.688E+01 -.108E+02 0.630E+01   -.668E+01 0.107E+02 -.628E+01   -.235E+00 0.637E-01 -.344E-01   -.152E-01 0.115E-01 -.292E-02
   -.574E+01 -.385E+02 0.300E+02   0.122E+02 0.348E+02 -.292E+02   -.615E+01 0.348E+01 -.831E+00   -.930E-01 0.110E+00 -.706E-01
   -.359E+00 -.206E+02 0.148E+02   0.745E+00 0.195E+02 -.150E+02   -.338E+00 0.102E+01 0.263E+00   -.152E-01 0.489E-01 -.172E-01
   0.517E+01 -.381E+02 0.259E+02   -.116E+02 0.344E+02 -.250E+02   0.618E+01 0.357E+01 -.913E+00   0.989E-01 0.105E+00 -.689E-01
   -.463E+00 -.195E+02 0.133E+02   0.117E+00 0.184E+02 -.135E+02   0.290E+00 0.106E+01 0.234E+00   0.200E-01 0.462E-01 -.169E-01
   -.143E+02 -.104E+02 0.757E+01   0.138E+02 0.103E+02 -.765E+01   0.427E+00 -.127E-02 0.983E-01   0.211E-01 0.495E-02 -.490E-02
   -.637E+01 -.123E+02 0.756E+01   0.614E+01 0.124E+02 -.753E+01   0.291E+00 -.698E-01 -.435E-01   0.135E-01 0.853E-02 -.261E-02
   -.315E+01 -.487E+01 0.769E+01   0.301E+01 0.489E+01 -.772E+01   0.716E-01 -.148E-01 0.258E-01   0.580E-02 0.339E-02 -.102E-02
   -.240E+01 -.331E+01 0.783E+01   0.241E+01 0.333E+01 -.784E+01   0.147E-02 -.281E-01 0.126E-01   0.119E-02 -.365E-03 -.762E-03
   0.122E+01 -.254E+01 0.715E+01   -.122E+01 0.254E+01 -.718E+01   -.262E-01 -.783E-02 0.310E-01   -.463E-03 0.241E-03 -.734E-03
   0.114E+01 -.904E+00 0.673E+01   -.118E+01 0.867E+00 -.671E+01   0.891E-01 0.407E-01 -.160E-01   0.968E-04 -.253E-02 -.659E-03
   0.436E+01 -.376E+01 0.677E+01   -.429E+01 0.365E+01 -.679E+01   -.450E-01 0.116E+00 0.188E-01   -.823E-02 0.451E-02 -.123E-02
   0.223E+01 -.185E+01 0.749E+01   -.239E+01 0.169E+01 -.751E+01   0.156E+00 0.158E+00 0.159E-01   -.262E-02 0.108E-02 -.830E-03
   0.202E+00 -.942E+01 0.106E+02   0.328E+00 0.894E+01 -.107E+02   -.497E+00 0.440E+00 0.103E+00   -.919E-02 0.192E-01 -.384E-02
   0.233E+01 -.188E+01 0.844E+01   -.227E+01 0.143E+01 -.846E+01   -.831E-01 0.444E+00 0.219E-01   -.140E-02 0.139E-01 -.134E-02
   -.127E+01 -.104E+02 0.790E+01   0.133E+01 0.959E+01 -.757E+01   -.724E-01 0.781E+00 -.326E+00   0.251E-02 0.381E-01 -.109E-01
   -.421E-01 -.696E+01 0.763E+01   0.193E+00 0.633E+01 -.765E+01   -.157E+00 0.650E+00 0.182E-01   0.248E-02 0.162E-01 -.246E-02
   -.545E+00 -.100E+02 0.104E+02   -.164E-01 0.972E+01 -.105E+02   0.541E+00 0.313E+00 0.876E-01   0.900E-02 0.165E-01 -.379E-02
   -.401E+01 -.531E+01 0.858E+01   0.402E+01 0.506E+01 -.861E+01   0.254E-01 0.224E+00 0.330E-01   0.106E-02 0.123E-01 -.133E-02
   -.252E+01 -.324E+01 -.615E+03   0.332E+01 0.331E+01 0.596E+03   -.832E+00 -.642E-01 0.191E+02   0.183E-01 -.228E-02 -.133E+00
   -.635E+02 -.144E+03 0.107E+03   0.708E+02 0.161E+03 -.126E+03   -.774E+01 -.175E+02 0.204E+02   0.413E-03 -.249E-03 0.117E-01
   0.560E+02 0.126E+03 -.139E+03   -.717E+02 -.161E+03 0.181E+03   0.162E+02 0.365E+02 -.426E+02   0.247E-03 -.101E-02 0.860E-02
 -----------------------------------------------------------------------------------------------
   -.800E+01 -.186E+02 0.364E+01   -.426E-13 0.227E-12 -.284E-13   0.798E+01 0.186E+02 -.294E+01   0.712E-02 -.304E-02 -.691E+00
 
 
 POSITION                                       TOTAL-FORCE (eV/Angst)
 -----------------------------------------------------------------------------------
      7.42111     12.75129      7.25460        -0.017990      0.010025      0.004669
      0.00095      1.42067      7.25588         0.015101     -0.014422      0.003341
      2.47839      0.02366      7.25169        -0.001553      0.041106     -0.001038
      2.47742      1.44477      7.26291         0.035077     -0.038962     -0.005461
      4.94962      0.02287      7.25285        -0.039208     -0.013875     -0.002957
      4.95103      1.44588      7.26312        -0.035320     -0.004064     -0.004795
      7.42885      0.00673      7.25581         0.004411     -0.001314      0.002759
      7.42580      1.43392      7.25463         0.021205     -0.003766      0.002354
      2.47066     12.73606      7.26421         0.036223      0.002726     -0.003431
      9.89346      1.40923      7.25349         0.034864      0.005548      0.000204
      4.94592     12.72758      7.26417        -0.050202      0.029061     -0.003850
     12.36485      1.39885      7.25354         0.003826     -0.022825     -0.000364
     13.59986      2.11640      7.25562        -0.017078      0.003705      0.002108
     -1.24926      3.53147      7.26684         0.019472     -0.019865     -0.003203
      1.23811      2.14323      7.26586        -0.028045      0.004705     -0.007253
      1.23635      3.56572      7.28971         0.024229      0.011488     -0.006436
      3.71462      2.17050      7.27888         0.004667     -0.016681     -0.005650
      3.71887      3.58646      7.32379         0.006717      0.006110     -0.005240
      6.18556      2.14219      7.26374         0.006136      0.029745     -0.004510
      6.20181      3.56380      7.28861        -0.041621     -0.019205      0.000679
      8.66440      2.12758      7.25450        -0.001858      0.008866      0.003445
      8.66874      3.53206      7.26285        -0.095920     -0.024420     -0.001235
     11.13514      2.10705      7.25221        -0.021694      0.006442     -0.000316
     11.12031      3.52465      7.25373        -0.003105      0.003723      0.002490
     12.35531      4.24162      7.26226        -0.043234      0.011358      0.001369
     -2.48564      5.65982      7.26975        -0.030104     -0.035175     -0.001273
     -0.01427      4.24638      7.29231        -0.059771     -0.022642     -0.014541
     -0.03795      5.66122      7.32055         0.028743      0.025671      0.012140
      2.47519      4.30639      7.33405         0.029334      0.026005      0.021327
      2.42962      5.71851      7.42044         0.201442      0.093847     -0.063384
      4.96373      4.31080      7.34290        -0.036765     -0.004641      0.021289
      5.00017      5.72107      7.44262        -0.233546      0.114465     -0.055566
      7.44999      4.24036      7.28708         0.103076     -0.023500     -0.008337
      7.47094      5.65270      7.31034        -0.030273      0.015470      0.019540
      9.88997      4.23366      7.25838         0.080034      0.031297     -0.000313
      9.89787      5.65220      7.26270         0.046474     -0.019052     -0.004299
     11.13025      6.36771      7.26040        -0.029265     -0.032379      0.005078
     -3.71044      7.78934      7.26032         0.005751      0.030107      0.003476
     -1.26441      6.37435      7.29822         0.001804      0.025957     -0.010042
     -1.26430      7.79436      7.29794         0.017758     -0.026730     -0.009557
      1.18213      6.36809      7.36728        -0.091503      0.135724      0.009046
      1.18143      7.80371      7.36849        -0.057061     -0.138231      0.014679
      6.24792      6.35800      7.37030         0.102797      0.148589      0.017090
      6.24437      7.79691      7.36750         0.123765     -0.144076      0.007746
      8.68890      6.37755      7.28488         0.022393      0.046112     -0.012454
      8.68708      7.79294      7.28528         0.002732     -0.038350     -0.011617
     -4.93267      8.50661      7.26269         0.033499      0.046161     -0.003737
     -4.93967      9.92836      7.25717         0.079493     -0.030989     -0.000393
     -2.48360      8.50599      7.26905        -0.050188      0.035276     -0.001317
     -2.47662      9.93117      7.26137        -0.031434     -0.018913      0.000362
     -0.03670      8.50967      7.32108         0.003046     -0.022375      0.008800
     -0.01237      9.92603      7.29282        -0.047769      0.019703     -0.012708
      2.42821      8.45577      7.42564         0.193230     -0.116283     -0.082339
      2.46984      9.86779      7.33517         0.046249      0.004486      0.024200
      4.99501      8.44179      7.43335        -0.215621     -0.091627     -0.054110
      4.95080      9.86036      7.33868        -0.048797     -0.013406      0.019709
      7.45933      8.50657      7.30982        -0.041917     -0.040848      0.013003
      7.43552      9.92278      7.28619         0.074318      0.032237     -0.012885
     -6.17338     10.63663      7.26118        -0.056524      0.018378     -0.003248
     -6.17694     12.05695      7.25264         0.009225     -0.008663      0.002871
     -3.70634     10.64266      7.25246        -0.026786     -0.012447      0.000389
     -3.70606     12.06408      7.25104         0.042602      0.003155     -0.002587
     -1.24234     10.64177      7.26645         0.010074      0.015883     -0.003890
     -1.23709     12.06220      7.25517         0.003398     -0.001934      0.001036
      1.23575     10.60813      7.29049         0.026790     -0.024401      0.001369
      1.23722     12.03331      7.26637        -0.022320      0.002849     -0.003728
      3.71177     10.58809      7.32239        -0.012217     -0.034112     -0.005111
      3.70947     12.00839      7.27952        -0.003698      0.041672     -0.004934
      6.18490     10.60243      7.28946        -0.013484      0.012049     -0.005622
      6.18301     12.02764      7.26534         0.040708     -0.019505     -0.004421
      3.69444      7.08671      8.11397        -0.003724      0.001519      0.228349
      3.69444      7.08671     14.09397        -0.489362     -1.106732      1.270198
      3.37343      6.36087     14.93931         0.488294      1.105191     -1.276961
 -----------------------------------------------------------------------------------
    total drift:                               -0.003731     -0.003890      0.003494


--------------------------------------------------------------------------------------------------------



  FREE ENERGIE OF THE ION-ELECTRON SYSTEM (eV)
  ---------------------------------------------------
  free  energy   TOTEN  =      -668.38614189 eV

  energy  without entropy=     -668.38614189  energy(sigma->0) =     -668.38614189
 


--------------------------------------------------------------------------------------------------------


    POTLOK:  cpu time    0.1488: real time    0.1496


--------------------------------------------------------------------------------------------------------


 stress matrix after NEB project (eV)
      2.51228     -0.48007      0.38553
     -0.48007     -1.74362      0.90529
      0.38553      0.90529     -4.20679
  FORCES: max atom, RMS     1.757984    0.303080
  FORCE total and by dimension    2.589513    1.276961
  Stress total and by dimension    5.426431    4.206786
     LOOP+:  cpu time  303.7882: real time  307.8759
    4ORBIT:  cpu time    0.0000: real time    0.0000
 


 total charge     
 
# of ion       s       p       d       tot
------------------------------------------
    1        0.865   1.780   0.000   2.644
    2        0.864   1.784   0.000   2.648
    3        0.865   1.782   0.000   2.647
    4        0.864   1.785   0.000   2.649
    5        0.865   1.784   0.000   2.650
    6        0.863   1.791   0.000   2.654
    7        0.863   1.781   0.000   2.644
    8        0.862   1.790   0.000   2.653
    9        0.862   1.783   0.000   2.645
   10        0.862   1.792   0.000   2.654
   11        0.865   1.785   0.000   2.650
   12        0.864   1.790   0.000   2.654
   13        0.866   1.790   0.000   2.656
   14        0.866   1.789   0.000   2.655
   15        0.864   1.782   0.000   2.647
   16        0.863   1.773   0.000   2.637
   17        0.864   1.775   0.000   2.639
   18        0.863   1.773   0.000   2.636
   19        0.866   1.786   0.000   2.652
   20        0.861   1.780   0.000   2.641
   21        0.854   1.755   0.000   2.609
   22        1.210   2.705   0.000   3.916
   23        0.866   1.794   0.000   2.660
   24        0.864   1.795   0.000   2.659
   25        0.864   1.789   0.000   2.653
   26        0.869   1.802   0.000   2.671
   27        0.867   1.791   0.000   2.657
   28        0.872   1.805   0.000   2.676
   29        0.862   1.760   0.000   2.622
   30        0.875   1.690   0.000   2.565
   31        0.861   1.757   0.000   2.618
   32        0.875   1.692   0.000   2.567
   33        0.856   1.757   0.000   2.613
   34        0.869   1.812   0.000   2.681
   35        0.853   1.760   0.000   2.612
   36        0.866   1.804   0.000   2.670
   37        0.866   1.795   0.000   2.661
   38        0.867   1.795   0.000   2.662
   39        0.868   1.800   0.000   2.668
   40        0.869   1.800   0.000   2.668
   41        0.876   1.788   0.000   2.664
   42        0.877   1.788   0.000   2.665
   43        0.876   1.787   0.000   2.663
   44        0.876   1.787   0.000   2.663
   45        0.869   1.805   0.000   2.675
   46        0.868   1.805   0.000   2.672
   47        0.869   1.797   0.000   2.666
   48        0.865   1.792   0.000   2.656
   49        0.868   1.796   0.000   2.664
   50        0.865   1.791   0.000   2.655
   51        0.871   1.805   0.000   2.676
   52        0.868   1.792   0.000   2.660
   53        0.875   1.691   0.000   2.565
   54        0.863   1.763   0.000   2.626
   55        0.873   1.683   0.000   2.556
   56        0.861   1.757   0.000   2.619
   57        0.872   1.804   0.000   2.676
   58        0.867   1.792   0.000   2.659
   59        0.867   1.788   0.000   2.654
   60        0.865   1.790   0.000   2.654
   61        0.866   1.789   0.000   2.655
   62        0.864   1.790   0.000   2.654
   63        0.866   1.790   0.000   2.656
   64        0.865   1.788   0.000   2.653
   65        0.864   1.775   0.000   2.639
   66        0.865   1.787   0.000   2.652
   67        0.863   1.773   0.000   2.636
   68        0.862   1.774   0.000   2.637
   69        0.864   1.773   0.000   2.637
   70        0.864   1.782   0.000   2.645
   71        0.389   6.285   4.289  10.964
   72        1.036   1.403   0.000   2.439
   73        1.637   3.515   0.000   5.152
--------------------------------------------------
tot         64.020 136.757   4.289 205.067
 


 magnetization (x)
 
# of ion       s       p       d       tot
------------------------------------------
    1        0.000   0.005   0.000   0.005
    2       -0.000  -0.001   0.000  -0.001
    3        0.000   0.004   0.000   0.005
    4        0.000   0.004   0.000   0.005
    5        0.000   0.005   0.000   0.005
    6        0.000   0.006   0.000   0.007
    7        0.000   0.004   0.000   0.004
    8       -0.000  -0.000   0.000  -0.000
    9        0.001   0.010   0.000   0.010
   10       -0.000  -0.001   0.000  -0.002
   11        0.001   0.013   0.000   0.014
   12       -0.000  -0.003   0.000  -0.004
   13        0.000   0.006   0.000   0.006
   14       -0.000   0.001   0.000   0.001
   15        0.000   0.005   0.000   0.006
   16        0.001   0.003   0.000   0.003
   17       -0.001  -0.005   0.000  -0.006
   18        0.001   0.022   0.000   0.023
   19        0.000   0.003   0.000   0.003
   20        0.001   0.005   0.000   0.005
   21        0.000   0.007   0.000   0.007
   22        0.000   0.011   0.000   0.012
   23        0.001   0.016   0.000   0.017
   24       -0.001  -0.004   0.000  -0.005
   25        0.001   0.012   0.000   0.013
   26       -0.000  -0.001   0.000  -0.002
   27       -0.000   0.000   0.000   0.000
   28        0.000   0.001   0.000   0.002
   29       -0.001  -0.004   0.000  -0.005
   30        0.015   0.080   0.000   0.094
   31       -0.001  -0.005   0.000  -0.005
   32        0.015   0.081   0.000   0.096
   33       -0.000  -0.004   0.000  -0.004
   34        0.000   0.004   0.000   0.004
   35        0.001   0.024   0.000   0.025
   36       -0.000  -0.003   0.000  -0.003
   37        0.000   0.003   0.000   0.003
   38       -0.000  -0.001   0.000  -0.001
   39        0.001   0.011   0.000   0.011
   40        0.000   0.003   0.000   0.003
   41       -0.000   0.013   0.000   0.013
   42       -0.001   0.006   0.000   0.005
   43       -0.000   0.010   0.000   0.010
   44       -0.001   0.004   0.000   0.003
   45        0.001   0.018   0.000   0.019
   46       -0.000   0.003   0.000   0.002
   47        0.000   0.007   0.000   0.007
   48        0.000   0.004   0.000   0.004
   49        0.000   0.005   0.000   0.006
   50        0.000   0.005   0.000   0.005
   51        0.000   0.005   0.000   0.005
   52       -0.000  -0.001   0.000  -0.002
   53        0.015   0.087   0.000   0.102
   54       -0.001  -0.008   0.000  -0.009
   55        0.015   0.089   0.000   0.104
   56       -0.001  -0.009   0.000  -0.010
   57        0.001   0.006   0.000   0.007
   58       -0.000  -0.002   0.000  -0.002
   59        0.001   0.011   0.000   0.012
   60       -0.000  -0.002   0.000  -0.002
   61       -0.000   0.001   0.000   0.001
   62        0.000   0.005   0.000   0.005
   63        0.000   0.006   0.000   0.007
   64       -0.000  -0.001   0.000  -0.001
   65        0.001   0.008   0.000   0.010
   66       -0.000   0.000   0.000  -0.000
   67        0.002   0.028   0.000   0.030
   68       -0.001  -0.007   0.000  -0.008
   69        0.001   0.008   0.000   0.009
   70       -0.000  -0.001   0.000  -0.001
   71       -0.035   0.013  -1.949  -1.971
   72        0.000   0.000   0.000   0.000
   73       -0.000  -0.000   0.000  -0.000
--------------------------------------------------
tot          0.033   0.629  -1.949  -1.287
 
 BZINTS: Fermi energy: -2.021066;303.000000 electrons
         Band energy:***********;  BLOECHL correction: -0.001146

 total amount of memory used by VASP MPI-rank0   115936. kBytes
=======================================================================

   base      :      30000. kBytes
   nonl-proj :      27242. kBytes
   fftplans  :       4700. kBytes
   grid      :      15193. kBytes
   one-center:        217. kBytes
   wavefun   :      38584. kBytes
 
  
  
 General timing and accounting informations for this job:
 ========================================================
  
                  Total CPU time used (sec):      320.966
                            User time (sec):      311.335
                          System time (sec):        9.631
                         Elapsed time (sec):      334.404
  
                   Maximum memory used (kb):      473580.
                   Average memory used (kb):           0.
  
                          Minor page faults:      1670096
                          Major page faults:            0
                 Voluntary context switches:         8938
