       N       E                     dE             d eps       ncg     rms          rms(c)
DAV:   1     0.250552118586E+04    0.25055E+04   -0.11208E+05  4392   0.107E+03
DAV:   2    -0.245487086979E+03   -0.27510E+04   -0.26221E+04  5472   0.279E+02
DAV:   3    -0.702587438913E+03   -0.45710E+03   -0.45364E+03  4560   0.120E+02
DAV:   4    -0.719026117319E+03   -0.16439E+02   -0.16298E+02  4656   0.279E+01
DAV:   5    -0.719568865728E+03   -0.54275E+00   -0.54119E+00  5272   0.427E+00    0.477E+01
DAV:   6    -0.719712723584E+03   -0.14386E+00   -0.88987E+01  4880   0.278E+01    0.745E+01
DAV:   7    -0.673751935334E+03    0.45961E+02   -0.63353E+01  4952   0.537E+01    0.267E+01
DAV:   8    -0.670372615577E+03    0.33793E+01   -0.38040E+01  4888   0.138E+01    0.264E+01
DAV:   9    -0.664257493320E+03    0.61151E+01   -0.24776E+01  4624   0.140E+01    0.203E+01
DAV:  10    -0.662342271436E+03    0.19152E+01   -0.20971E+01  5144   0.130E+01    0.115E+01
DAV:  11    -0.661607983460E+03    0.73429E+00   -0.19008E+00  5248   0.352E+00    0.764E+00
DAV:  12    -0.661956928024E+03   -0.34894E+00   -0.44113E-01  4688   0.181E+00    0.696E+00
DAV:  13    -0.662026284985E+03   -0.69357E-01   -0.40680E-01  4888   0.171E+00    0.417E+00
DAV:  14    -0.662064529654E+03   -0.38245E-01   -0.76007E-02  4512   0.727E-01    0.396E+00
DAV:  15    -0.662074999011E+03   -0.10469E-01   -0.81932E-02  4816   0.543E-01    0.319E+00
DAV:  16    -0.662065887707E+03    0.91113E-02   -0.30140E-02  4928   0.369E-01    0.243E+00
DAV:  17    -0.662050621602E+03    0.15266E-01   -0.13159E-02  5144   0.275E-01    0.187E+00
DAV:  18    -0.662031395509E+03    0.19226E-01   -0.12131E-02  5272   0.357E-01    0.118E+00
DAV:  19    -0.662024278587E+03    0.71169E-02   -0.77671E-03  5288   0.249E-01    0.732E-01
DAV:  20    -0.662021727390E+03    0.25512E-02   -0.26849E-03  4872   0.142E-01    0.420E-01
DAV:  21    -0.662021843964E+03   -0.11657E-03   -0.53546E-04  3368   0.582E-02    0.395E-01
DAV:  22    -0.662020800306E+03    0.10437E-02   -0.18480E-03  4224   0.154E-01    0.949E-02
DAV:  23    -0.662020878464E+03   -0.78158E-04   -0.26886E-04  3088   0.385E-02
   1 F= -.66844738E+03 E0= -.66844738E+03  d E =0.000000E+00  mag=    -1.0057
