 running on   48 total cores
 distrk:  each k-point on   48 cores,    1 groups
 distr:  one band on   12 cores,    4 groups
 using from now: INCAR     
 vasp.5.4.4.18Apr17-6-g9f103f2a35 (build Jan 14 2022 15:04:31) complex          
  
 POSCAR found type information on POSCAR  C  N  C  Cr
 POSCAR found :  4 types and      71 ions
 scaLAPACK will be used
 LDA part: xc-table for Pade appr. of Perdew
 POSCAR found type information on POSCAR  C  N  C  Cr
 POSCAR found :  4 types and      71 ions
 POSCAR, INCAR and KPOINTS ok, starting setup
 FFT: planning ...
 WAVECAR not read
 entering main loop
       N       E                     dE             d eps       ncg     rms          rms(c)
DAV:   1     0.246668801356E+04    0.24667E+04   -0.10793E+05  3368   0.107E+03
DAV:   2    -0.231186032470E+03   -0.26979E+04   -0.25783E+04  4216   0.281E+02
DAV:   3    -0.687343115808E+03   -0.45616E+03   -0.45340E+03  3568   0.121E+02
DAV:   4    -0.704008225570E+03   -0.16665E+02   -0.16524E+02  3552   0.285E+01
DAV:   5    -0.704549585410E+03   -0.54136E+00   -0.53951E+00  4064   0.435E+00    0.469E+01
RMM:   6    -0.731278969453E+03   -0.26729E+02   -0.52380E+02  4100   0.391E+01    0.839E+01
RMM:   7    -0.662635424210E+03    0.68644E+02   -0.59406E+01  3054   0.136E+01    0.322E+01
RMM:   8    -0.662446978559E+03    0.18845E+00   -0.22489E+01  3111   0.707E+00    0.284E+01
RMM:   9    -0.647333548072E+03    0.15113E+02   -0.20358E+01  2970   0.844E+00    0.117E+01
RMM:  10    -0.647778432576E+03   -0.44488E+00   -0.31210E+00  2997   0.310E+00    0.146E+01
RMM:  11    -0.646696161846E+03    0.10823E+01   -0.41236E-01  3107   0.106E+00    0.768E+00
RMM:  12    -0.646592723907E+03    0.10344E+00   -0.16103E-01  2944   0.945E-01    0.661E+00
RMM:  13    -0.646701311626E+03   -0.10859E+00   -0.31100E-02  2971   0.366E-01    0.729E+00
RMM:  14    -0.646460462710E+03    0.24085E+00   -0.38004E-02  2961   0.467E-01    0.692E+00
RMM:  15    -0.646486038123E+03   -0.25575E-01   -0.77369E-03  3012   0.133E-01    0.541E+00
RMM:  16    -0.646526904946E+03   -0.40867E-01   -0.31596E-02  2944   0.477E-01    0.437E+00
RMM:  17    -0.646517711022E+03    0.91939E-02   -0.42158E-02  3030   0.307E-01    0.346E+00
RMM:  18    -0.646542924142E+03   -0.25213E-01   -0.13859E-02  3007   0.206E-01    0.420E+00
RMM:  19    -0.646545848116E+03   -0.29240E-02   -0.66921E-03  3046   0.141E-01    0.418E+00
RMM:  20    -0.646548446316E+03   -0.25982E-02   -0.16702E-03  2865   0.445E-02    0.422E+00
RMM:  21    -0.646583346671E+03   -0.34900E-01   -0.46741E-03  2961   0.982E-02    0.415E+00
RMM:  22    -0.646606267032E+03   -0.22920E-01   -0.51905E-02  2949   0.345E-01    0.276E+00
RMM:  23    -0.646586233056E+03    0.20034E-01   -0.12186E-02  3010   0.198E-01    0.314E+00
RMM:  24    -0.646572455973E+03    0.13777E-01   -0.29622E-03  3063   0.935E-02    0.323E+00
RMM:  25    -0.646582567918E+03   -0.10112E-01   -0.10953E-03  2934   0.771E-02    0.322E+00
RMM:  26    -0.646583148764E+03   -0.58085E-03   -0.20566E-03  2962   0.629E-02    0.301E+00
RMM:  27    -0.646601453177E+03   -0.18304E-01   -0.59720E-03  2971   0.112E-01    0.254E+00
RMM:  28    -0.646580631530E+03    0.20822E-01   -0.22716E-02  2962   0.232E-01    0.206E+00
RMM:  29    -0.646554962083E+03    0.25669E-01   -0.20552E-02  2986   0.208E-01    0.228E+00
RMM:  30    -0.646566673810E+03   -0.11712E-01   -0.52459E-03  3162   0.115E-01    0.228E+00
RMM:  31    -0.646567023432E+03   -0.34962E-03   -0.14302E-03  2951   0.815E-02    0.230E+00
RMM:  32    -0.646576487128E+03   -0.94637E-02   -0.25001E-03  2946   0.101E-01    0.241E+00
RMM:  33    -0.646580248934E+03   -0.37618E-02   -0.41771E-03  2949   0.104E-01    0.265E+00
RMM:  34    -0.646569672336E+03    0.10577E-01   -0.20307E-02  2950   0.223E-01    0.308E+00
RMM:  35    -0.646578427255E+03   -0.87549E-02   -0.39365E-03  2977   0.145E-01    0.301E+00
RMM:  36    -0.646553711766E+03    0.24715E-01   -0.91214E-03  2950   0.192E-01    0.280E+00
RMM:  37    -0.646549405971E+03    0.43058E-02   -0.83331E-03  2947   0.134E-01    0.270E+00
RMM:  38    -0.646558930263E+03   -0.95243E-02   -0.16504E-02  2945   0.272E-01    0.313E+00
RMM:  39    -0.646539522101E+03    0.19408E-01   -0.24382E-02  2969   0.291E-01    0.253E+00
RMM:  40    -0.646547340985E+03   -0.78189E-02   -0.14674E-02  2984   0.140E-01    0.150E+00
RMM:  41    -0.646558242375E+03   -0.10901E-01   -0.34924E-03  3001   0.117E-01    0.146E+00
RMM:  42    -0.646562855826E+03   -0.46135E-02   -0.17447E-03  2935   0.976E-02    0.181E+00
RMM:  43    -0.646603326785E+03   -0.40471E-01   -0.39545E-02  2968   0.331E-01    0.255E+00
RMM:  44    -0.646684909983E+03   -0.81583E-01   -0.54440E-02  2969   0.319E-01    0.417E+00
RMM:  45    -0.646688294581E+03   -0.33846E-02   -0.10757E-02  3040   0.195E-01    0.448E+00
RMM:  46    -0.646684379476E+03    0.39151E-02   -0.22874E-03  3104   0.683E-02    0.462E+00
RMM:  47    -0.646698558581E+03   -0.14179E-01   -0.25800E-03  2920   0.822E-02    0.473E+00
RMM:  48    -0.646727119575E+03   -0.28561E-01   -0.30142E-03  2967   0.730E-02    0.491E+00
RMM:  49    -0.646731495424E+03   -0.43758E-02   -0.13084E-03  2918   0.450E-02    0.502E+00
RMM:  50    -0.646730436115E+03    0.10593E-02   -0.28772E-04  2211   0.248E-02
   1 F= -.65313048E+03 E0= -.65311676E+03  d E =-.653130E+03  mag=    -0.4320
 curvature:   0.00 expect dE= 0.000E+00 dE for cont linesearch  0.000E+00
 trial: gam= 0.00000 g(F)=  0.113E+00 g(S)=  0.000E+00 ort = 0.000E+00 (trialstep = 0.100E+01)
 search vector abs. value=  0.113E+00
 bond charge predicted
       N       E                     dE             d eps       ncg     rms          rms(c)
DAV:   1    -0.646739480468E+03   -0.79850E-02   -0.95700E+00  3376   0.967E+00    0.576E+00
RMM:   2    -0.649226865046E+03   -0.24874E+01   -0.24357E+00  3044   0.261E+00    0.186E+01
RMM:   3    -0.646896506243E+03    0.23304E+01   -0.19816E+00  3128   0.210E+00    0.379E+00
RMM:   4    -0.646881082506E+03    0.15424E-01   -0.16857E-01  3288   0.584E-01    0.282E+00
RMM:   5    -0.646783824029E+03    0.97258E-01   -0.86104E-02  3014   0.325E-01    0.192E+00
RMM:   6    -0.646784846572E+03   -0.10225E-02   -0.42122E-02  3175   0.210E-01    0.137E+00
RMM:   7    -0.646848146680E+03   -0.63300E-01   -0.25762E-02  3067   0.196E-01    0.783E-01
RMM:   8    -0.646932175744E+03   -0.84029E-01   -0.33318E-02  3027   0.222E-01    0.350E-01
RMM:   9    -0.646970024472E+03   -0.37849E-01   -0.96589E-03  3035   0.114E-01    0.285E-01
RMM:  10    -0.647010338418E+03   -0.40314E-01   -0.73861E-03  3070   0.853E-02    0.177E-01
RMM:  11    -0.647048794972E+03   -0.38457E-01   -0.62546E-03  2952   0.706E-02    0.135E-01
RMM:  12    -0.647069559748E+03   -0.20765E-01   -0.30816E-03  2618   0.450E-02    0.975E-02
RMM:  13    -0.647077697889E+03   -0.81381E-02   -0.95270E-04  2336   0.264E-02    0.756E-02
RMM:  14    -0.647080451247E+03   -0.27534E-02   -0.49175E-04  2264   0.200E-02    0.483E-02
RMM:  15    -0.647081158584E+03   -0.70734E-03   -0.12450E-04  2238   0.140E-02    0.232E-02
RMM:  16    -0.647081044114E+03    0.11447E-03   -0.42000E-05  2118   0.759E-03    0.939E-03
RMM:  17    -0.647081309092E+03   -0.26498E-03   -0.18681E-05  1679   0.486E-03    0.497E-03
RMM:  18    -0.647081850614E+03   -0.54152E-03   -0.31626E-05  1657   0.551E-03    0.299E-03
RMM:  19    -0.647081957693E+03   -0.10708E-03   -0.12096E-05  1217   0.336E-03    0.175E-03
RMM:  20    -0.647082017227E+03   -0.59535E-04   -0.10024E-05  1220   0.301E-03    0.329E-03
RMM:  21    -0.647082056005E+03   -0.38778E-04   -0.47654E-06  1092   0.239E-03    0.796E-04
RMM:  22    -0.647082079548E+03   -0.23543E-04   -0.13646E-06   893   0.181E-03    0.706E-04
RMM:  23    -0.647082092562E+03   -0.13015E-04   -0.84208E-07   837   0.168E-03    0.499E-04
RMM:  24    -0.647082097288E+03   -0.47254E-05   -0.54835E-07   747   0.156E-03
   2 F= -.65348334E+03 E0= -.65346643E+03  d E =-.352861E+00  mag=    -1.5471
 trial-energy change:   -0.352861  1 .order   -0.005600   -0.113027    0.101828
 step:   0.9538(harm=  0.5261)  dis= 0.01910  next Energy=  -653.485663 (dE=-0.355E+00)
 bond charge predicted
       N       E                     dE             d eps       ncg     rms          rms(c)
DAV:   1    -0.647086659124E+03   -0.45666E-02   -0.20650E-02  3504   0.439E-01    0.604E-02
RMM:   2    -0.647086762761E+03   -0.10364E-03   -0.18418E-03  3020   0.786E-02    0.117E-01
RMM:   3    -0.647086618631E+03    0.14413E-03   -0.21789E-04  2206   0.254E-02    0.254E-02
RMM:   4    -0.647086570622E+03    0.48009E-04   -0.28445E-05  1950   0.108E-02    0.184E-02
RMM:   5    -0.647086534270E+03    0.36351E-04   -0.14074E-05  1826   0.779E-03    0.823E-03
RMM:   6    -0.647086579278E+03   -0.45007E-04   -0.38848E-06  1731   0.466E-03    0.339E-03
RMM:   7    -0.647086656892E+03   -0.77615E-04   -0.21689E-06  1413   0.287E-03    0.180E-03
RMM:   8    -0.647086703807E+03   -0.46915E-04   -0.11992E-06  1033   0.201E-03    0.116E-03
RMM:   9    -0.647086732437E+03   -0.28630E-04   -0.80849E-07   864   0.175E-03    0.630E-04
RMM:  10    -0.647086748592E+03   -0.16155E-04   -0.70196E-07   820   0.167E-03    0.364E-04
RMM:  11    -0.647086751952E+03   -0.33598E-05   -0.34255E-07   710   0.157E-03
   3 F= -.65348795E+03 E0= -.65347101E+03  d E =-.357470E+00  mag=    -1.5646
 curvature:  -0.05 expect dE=-0.767E-02 dE for cont linesearch -0.409E-02
 ZBRENT: interpolating
 opt :   0.5124  next Energy=  -653.509431 (dE=-0.379E+00)
 bond charge predicted
       N       E                     dE             d eps       ncg     rms          rms(c)
DAV:   1    -0.647112730377E+03   -0.25982E-01   -0.18868E+00  3312   0.419E+00    0.574E-01
RMM:   2    -0.647130881101E+03   -0.18151E-01   -0.16996E-01  3039   0.765E-01    0.117E+00
RMM:   3    -0.647116948168E+03    0.13933E-01   -0.19083E-02  3225   0.237E-01    0.251E-01
RMM:   4    -0.647115030106E+03    0.19181E-02   -0.23054E-03  3131   0.842E-02    0.182E-01
RMM:   5    -0.647113844549E+03    0.11856E-02   -0.10158E-03  2943   0.596E-02    0.809E-02
RMM:   6    -0.647115455054E+03   -0.16105E-02   -0.28088E-04  2804   0.314E-02    0.307E-02
RMM:   7    -0.647117937266E+03   -0.24822E-02   -0.12930E-04  2196   0.140E-02    0.179E-02
RMM:   8    -0.647119545451E+03   -0.16082E-02   -0.97707E-05  2127   0.108E-02    0.846E-03
RMM:   9    -0.647120266652E+03   -0.72120E-03   -0.43763E-05  1988   0.625E-03    0.687E-03
RMM:  10    -0.647120546087E+03   -0.27943E-03   -0.15646E-05  1451   0.413E-03    0.401E-03
RMM:  11    -0.647120617982E+03   -0.71896E-04   -0.81139E-06  1357   0.336E-03    0.150E-03
RMM:  12    -0.647120639048E+03   -0.21065E-04   -0.21953E-06  1148   0.229E-03    0.100E-03
RMM:  13    -0.647120648112E+03   -0.90641E-05   -0.11239E-06  1010   0.184E-03
   4 F= -.65352136E+03 E0= -.65350552E+03  d E =-.390881E+00  mag=    -1.7275
 curvature:  -0.26 expect dE=-0.118E-01 dE for cont linesearch -0.658E-02
 ZBRENT: interpolating
 opt :   0.1420  next Energy=  -653.534560 (dE=-0.404E+00)
 bond charge predicted
       N       E                     dE             d eps       ncg     rms          rms(c)
DAV:   1    -0.647128355159E+03   -0.77161E-02   -0.13320E+00  3344   0.352E+00    0.456E-01
RMM:   2    -0.647139921172E+03   -0.11566E-01   -0.11364E-01  3033   0.628E-01    0.889E-01
RMM:   3    -0.647131886681E+03    0.80345E-02   -0.11640E-02  3243   0.188E-01    0.204E-01
RMM:   4    -0.647130826824E+03    0.10599E-02   -0.14119E-03  3110   0.672E-02    0.152E-01
RMM:   5    -0.647130162954E+03    0.66387E-03   -0.63360E-04  2936   0.479E-02    0.662E-02
RMM:   6    -0.647131068150E+03   -0.90520E-03   -0.17968E-04  2624   0.262E-02    0.218E-02
RMM:   7    -0.647132402003E+03   -0.13339E-02   -0.65561E-05  2096   0.109E-02    0.129E-02
RMM:   8    -0.647133308005E+03   -0.90600E-03   -0.47699E-05  2016   0.814E-03    0.591E-03
RMM:   9    -0.647133711397E+03   -0.40339E-03   -0.21205E-05  1751   0.465E-03    0.466E-03
RMM:  10    -0.647133886012E+03   -0.17462E-03   -0.90322E-06  1350   0.335E-03    0.283E-03
RMM:  11    -0.647133941559E+03   -0.55547E-04   -0.47105E-06  1211   0.271E-03    0.989E-04
RMM:  12    -0.647133950577E+03   -0.90178E-05   -0.13262E-06  1045   0.197E-03
   5 F= -.65353419E+03 E0= -.65352048E+03  d E =-.403711E+00  mag=    -1.8363
 curvature:  -0.51 expect dE=-0.186E-02 dE for cont linesearch -0.101E-02
 ZBRENT: interpolating
 opt :   0.0408  next Energy=  -653.535162 (dE=-0.405E+00)
 bond charge predicted
       N       E                     dE             d eps       ncg     rms          rms(c)
DAV:   1    -0.647134625606E+03   -0.68405E-03   -0.99548E-02  3424   0.965E-01    0.120E-01
RMM:   2    -0.647135362998E+03   -0.73739E-03   -0.83142E-03  3034   0.169E-01    0.227E-01
RMM:   3    -0.647134846494E+03    0.51650E-03   -0.80062E-04  3007   0.499E-02    0.552E-02
RMM:   4    -0.647134763032E+03    0.83463E-04   -0.88783E-05  2218   0.183E-02    0.414E-02
RMM:   5    -0.647134696953E+03    0.66079E-04   -0.45000E-05  1989   0.134E-02    0.184E-02
RMM:   6    -0.647134771856E+03   -0.74903E-04   -0.13861E-05  1830   0.842E-03    0.540E-03
RMM:   7    -0.647134907841E+03   -0.13599E-03   -0.48045E-06  1753   0.422E-03    0.301E-03
RMM:   8    -0.647134986859E+03   -0.79018E-04   -0.28085E-06  1266   0.263E-03    0.157E-03
RMM:   9    -0.647135039444E+03   -0.52585E-04   -0.20244E-06  1059   0.205E-03    0.110E-03
RMM:  10    -0.647135063787E+03   -0.24343E-04   -0.10440E-06   892   0.180E-03    0.511E-04
RMM:  11    -0.647135072172E+03   -0.83847E-05   -0.65650E-07   818   0.169E-03
   6 F= -.65353518E+03 E0= -.65352209E+03  d E =-.404693E+00  mag=    -1.8600
 curvature:  -0.49 expect dE=-0.446E-03 dE for cont linesearch -0.625E-04
 trial: gam= 0.04146 g(F)=  0.904E-03 g(S)=  0.000E+00 ort =-0.378E-02 (trialstep = 0.808E+00)
 search vector abs. value=  0.784E-03
 reached required accuracy - stopping structural energy minimisation
