  71  71   0   0
  0.4003301E+02  0.1485689E-08  0.1475989E-08  0.1500000E-08  0.3000000E-15
  1.000000000000000E-004
  CAR 
 unknown system                          
      5.27898656    -48.54841705  301     -2.08673563      1.00000000
    -48.548  0.0000E+00  0.0000E+00  0.0000E+00  0.0000E+00
    -48.369  0.0000E+00  0.0000E+00  0.0000E+00  0.0000E+00
    -48.190  0.0000E+00  0.0000E+00  0.0000E+00  0.0000E+00
    -48.010  0.0000E+00  0.0000E+00  0.0000E+00  0.0000E+00
    -47.831  0.0000E+00  0.0000E+00  0.0000E+00  0.0000E+00
    -47.651  0.0000E+00  0.0000E+00  0.0000E+00  0.0000E+00
    -47.472  0.0000E+00  0.0000E+00  0.0000E+00  0.0000E+00
    -47.292  0.0000E+00  0.0000E+00  0.0000E+00  0.0000E+00
    -47.113  0.0000E+00  0.0000E+00  0.0000E+00  0.0000E+00
    -46.934  0.0000E+00  0.0000E+00  0.0000E+00  0.0000E+00
    -46.754  0.0000E+00  0.0000E+00  0.0000E+00  0.0000E+00
    -46.575  0.0000E+00  0.1557E-12  0.0000E+00  0.2794E-13
    -46.395  0.0000E+00  0.2293E-06  0.0000E+00  0.4114E-07
    -46.216  0.0000E+00  0.7406E-03  0.0000E+00  0.1329E-03
    -46.036  0.0000E+00  0.1091E-01  0.0000E+00  0.2091E-02
    -45.857  0.0000E+00  0.1462E-01  0.0000E+00  0.4715E-02
    -45.678  0.0000E+00  0.1507E-01  0.0000E+00  0.7419E-02
    -45.498  0.0000E+00  0.4521E-03  0.0000E+00  0.7500E-02
    -45.319  0.0000E+00  0.7183E-07  0.0000E+00  0.7500E-02
    -45.139  0.0000E+00  0.2559E-13  0.0000E+00  0.7500E-02
    -44.960  0.0000E+00  0.0000E+00  0.0000E+00  0.7500E-02
    -44.780  0.0000E+00  0.0000E+00  0.0000E+00  0.7500E-02
    -44.601  0.1547E-17  0.0000E+00  0.2776E-18  0.7500E-02
    -44.422  0.1125E-09  0.0000E+00  0.2019E-10  0.7500E-02
    -44.242  0.1297E-04  0.0000E+00  0.2328E-05  0.7500E-02
    -44.063  0.3931E-02  0.0000E+00  0.7077E-03  0.7500E-02
    -43.883  0.1111E-01  0.0000E+00  0.2701E-02  0.7500E-02
    -43.704  0.1354E-01  0.0000E+00  0.5131E-02  0.7500E-02
    -43.525  0.1229E-01  0.0000E+00  0.7336E-02  0.7500E-02
    -43.345  0.9140E-03  0.0000E+00  0.7500E-02  0.7500E-02
    -43.166  0.3612E-06  0.0000E+00  0.7500E-02  0.7500E-02
    -42.986  0.3178E-12  0.0000E+00  0.7500E-02  0.7500E-02
    -42.807  0.0000E+00  0.0000E+00  0.7500E-02  0.7500E-02
    -42.627  0.0000E+00  0.0000E+00  0.7500E-02  0.7500E-02
    -42.448  0.0000E+00  0.0000E+00  0.7500E-02  0.7500E-02
    -42.269  0.0000E+00  0.0000E+00  0.7500E-02  0.7500E-02
    -42.089  0.0000E+00  0.0000E+00  0.7500E-02  0.7500E-02
    -41.910  0.0000E+00  0.0000E+00  0.7500E-02  0.7500E-02
    -41.730  0.0000E+00  0.0000E+00  0.7500E-02  0.7500E-02
    -41.551  0.0000E+00  0.0000E+00  0.7500E-02  0.7500E-02
    -41.371  0.0000E+00  0.0000E+00  0.7500E-02  0.7500E-02
    -41.192  0.0000E+00  0.0000E+00  0.7500E-02  0.7500E-02
    -41.013  0.0000E+00  0.0000E+00  0.7500E-02  0.7500E-02
    -40.833  0.0000E+00  0.0000E+00  0.7500E-02  0.7500E-02
    -40.654  0.0000E+00  0.0000E+00  0.7500E-02  0.7500E-02
    -40.474  0.0000E+00  0.0000E+00  0.7500E-02  0.7500E-02
    -40.295  0.0000E+00  0.0000E+00  0.7500E-02  0.7500E-02
    -40.115  0.0000E+00  0.0000E+00  0.7500E-02  0.7500E-02
    -39.936  0.0000E+00  0.0000E+00  0.7500E-02  0.7500E-02
    -39.757  0.0000E+00  0.0000E+00  0.7500E-02  0.7500E-02
    -39.577  0.0000E+00  0.0000E+00  0.7500E-02  0.7500E-02
    -39.398  0.0000E+00  0.0000E+00  0.7500E-02  0.7500E-02
    -39.218  0.0000E+00  0.0000E+00  0.7500E-02  0.7500E-02
    -39.039  0.0000E+00  0.0000E+00  0.7500E-02  0.7500E-02
    -38.859  0.0000E+00  0.0000E+00  0.7500E-02  0.7500E-02
    -38.680  0.0000E+00  0.0000E+00  0.7500E-02  0.7500E-02
    -38.501  0.0000E+00  0.0000E+00  0.7500E-02  0.7500E-02
    -38.321  0.0000E+00  0.0000E+00  0.7500E-02  0.7500E-02
    -38.142  0.0000E+00  0.0000E+00  0.7500E-02  0.7500E-02
    -37.962  0.0000E+00  0.0000E+00  0.7500E-02  0.7500E-02
    -37.783  0.0000E+00  0.0000E+00  0.7500E-02  0.7500E-02
    -37.604  0.0000E+00  0.0000E+00  0.7500E-02  0.7500E-02
    -37.424  0.0000E+00  0.0000E+00  0.7500E-02  0.7500E-02
    -37.245  0.0000E+00  0.0000E+00  0.7500E-02  0.7500E-02
    -37.065  0.0000E+00  0.0000E+00  0.7500E-02  0.7500E-02
    -36.886  0.0000E+00  0.0000E+00  0.7500E-02  0.7500E-02
    -36.706  0.0000E+00  0.0000E+00  0.7500E-02  0.7500E-02
    -36.527  0.0000E+00  0.0000E+00  0.7500E-02  0.7500E-02
    -36.348  0.0000E+00  0.0000E+00  0.7500E-02  0.7500E-02
    -36.168  0.0000E+00  0.0000E+00  0.7500E-02  0.7500E-02
    -35.989  0.0000E+00  0.0000E+00  0.7500E-02  0.7500E-02
    -35.809  0.0000E+00  0.0000E+00  0.7500E-02  0.7500E-02
    -35.630  0.0000E+00  0.0000E+00  0.7500E-02  0.7500E-02
    -35.450  0.0000E+00  0.0000E+00  0.7500E-02  0.7500E-02
    -35.271  0.0000E+00  0.0000E+00  0.7500E-02  0.7500E-02
    -35.092  0.0000E+00  0.0000E+00  0.7500E-02  0.7500E-02
    -34.912  0.0000E+00  0.0000E+00  0.7500E-02  0.7500E-02
    -34.733  0.0000E+00  0.0000E+00  0.7500E-02  0.7500E-02
    -34.553  0.0000E+00  0.0000E+00  0.7500E-02  0.7500E-02
    -34.374  0.0000E+00  0.0000E+00  0.7500E-02  0.7500E-02
    -34.194  0.0000E+00  0.0000E+00  0.7500E-02  0.7500E-02
    -34.015  0.0000E+00  0.0000E+00  0.7500E-02  0.7500E-02
    -33.836  0.0000E+00  0.0000E+00  0.7500E-02  0.7500E-02
    -33.656  0.0000E+00  0.0000E+00  0.7500E-02  0.7500E-02
    -33.477  0.0000E+00  0.0000E+00  0.7500E-02  0.7500E-02
    -33.297  0.0000E+00  0.0000E+00  0.7500E-02  0.7500E-02
    -33.118  0.0000E+00  0.0000E+00  0.7500E-02  0.7500E-02
    -32.938  0.0000E+00  0.0000E+00  0.7500E-02  0.7500E-02
    -32.759  0.0000E+00  0.0000E+00  0.7500E-02  0.7500E-02
    -32.580  0.0000E+00  0.0000E+00  0.7500E-02  0.7500E-02
    -32.400  0.0000E+00  0.0000E+00  0.7500E-02  0.7500E-02
    -32.221  0.0000E+00  0.0000E+00  0.7500E-02  0.7500E-02
    -32.041  0.0000E+00  0.0000E+00  0.7500E-02  0.7500E-02
    -31.862  0.0000E+00  0.0000E+00  0.7500E-02  0.7500E-02
    -31.682  0.0000E+00  0.0000E+00  0.7500E-02  0.7500E-02
    -31.503  0.0000E+00  0.0000E+00  0.7500E-02  0.7500E-02
    -31.324  0.0000E+00  0.0000E+00  0.7500E-02  0.7500E-02
    -31.144  0.0000E+00  0.0000E+00  0.7500E-02  0.7500E-02
    -30.965  0.0000E+00  0.0000E+00  0.7500E-02  0.7500E-02
    -30.785  0.0000E+00  0.0000E+00  0.7500E-02  0.7500E-02
    -30.606  0.0000E+00  0.0000E+00  0.7500E-02  0.7500E-02
    -30.427  0.0000E+00  0.0000E+00  0.7500E-02  0.7500E-02
    -30.247  0.0000E+00  0.0000E+00  0.7500E-02  0.7500E-02
    -30.068  0.0000E+00  0.0000E+00  0.7500E-02  0.7500E-02
    -29.888  0.0000E+00  0.0000E+00  0.7500E-02  0.7500E-02
    -29.709  0.0000E+00  0.0000E+00  0.7500E-02  0.7500E-02
    -29.529  0.0000E+00  0.0000E+00  0.7500E-02  0.7500E-02
    -29.350  0.0000E+00  0.0000E+00  0.7500E-02  0.7500E-02
    -29.171  0.0000E+00  0.0000E+00  0.7500E-02  0.7500E-02
    -28.991  0.0000E+00  0.0000E+00  0.7500E-02  0.7500E-02
    -28.812  0.0000E+00  0.0000E+00  0.7500E-02  0.7500E-02
    -28.632  0.0000E+00  0.0000E+00  0.7500E-02  0.7500E-02
    -28.453  0.0000E+00  0.0000E+00  0.7500E-02  0.7500E-02
    -28.273  0.0000E+00  0.0000E+00  0.7500E-02  0.7500E-02
    -28.094  0.0000E+00  0.0000E+00  0.7500E-02  0.7500E-02
    -27.915  0.0000E+00  0.0000E+00  0.7500E-02  0.7500E-02
    -27.735  0.0000E+00  0.0000E+00  0.7500E-02  0.7500E-02
    -27.556  0.0000E+00  0.0000E+00  0.7500E-02  0.7500E-02
    -27.376  0.0000E+00  0.0000E+00  0.7500E-02  0.7500E-02
    -27.197  0.0000E+00  0.0000E+00  0.7500E-02  0.7500E-02
    -27.017  0.0000E+00  0.0000E+00  0.7500E-02  0.7500E-02
    -26.838  0.0000E+00  0.0000E+00  0.7500E-02  0.7500E-02
    -26.659  0.0000E+00  0.0000E+00  0.7500E-02  0.7500E-02
    -26.479  0.0000E+00  0.0000E+00  0.7500E-02  0.7500E-02
    -26.300  0.0000E+00  0.0000E+00  0.7500E-02  0.7500E-02
    -26.120  0.0000E+00  0.0000E+00  0.7500E-02  0.7500E-02
    -25.941  0.0000E+00  0.0000E+00  0.7500E-02  0.7500E-02
    -25.761  0.0000E+00  0.0000E+00  0.7500E-02  0.7500E-02
    -25.582  0.0000E+00  0.0000E+00  0.7500E-02  0.7500E-02
    -25.403  0.0000E+00  0.0000E+00  0.7500E-02  0.7500E-02
    -25.223  0.0000E+00  0.0000E+00  0.7500E-02  0.7500E-02
    -25.044  0.0000E+00  0.0000E+00  0.7500E-02  0.7500E-02
    -24.864  0.0000E+00  0.0000E+00  0.7500E-02  0.7500E-02
    -24.685  0.0000E+00  0.0000E+00  0.7500E-02  0.7500E-02
    -24.506  0.8111E-13  0.5131E-13  0.7500E-02  0.7500E-02
    -24.326  0.1508E-06  0.1122E-06  0.7500E-02  0.7500E-02
    -24.147  0.6082E-03  0.5281E-03  0.7609E-02  0.7595E-02
    -23.967  0.1048E-01  0.1030E-01  0.9490E-02  0.9442E-02
    -23.788  0.2836E-02  0.3101E-02  0.9999E-02  0.9999E-02
    -23.608  0.5328E-05  0.6750E-05  0.1000E-01  0.1000E-01
    -23.429  0.2492E-10  0.3706E-10  0.1000E-01  0.1000E-01
    -23.250  0.0000E+00  0.0000E+00  0.1000E-01  0.1000E-01
    -23.070  0.0000E+00  0.0000E+00  0.1000E-01  0.1000E-01
    -22.891  0.0000E+00  0.0000E+00  0.1000E-01  0.1000E-01
    -22.711  0.0000E+00  0.0000E+00  0.1000E-01  0.1000E-01
    -22.532  0.0000E+00  0.0000E+00  0.1000E-01  0.1000E-01
    -22.352  0.0000E+00  0.0000E+00  0.1000E-01  0.1000E-01
    -22.173  0.0000E+00  0.0000E+00  0.1000E-01  0.1000E-01
    -21.994  0.1710E-12  0.1166E-12  0.1000E-01  0.1000E-01
    -21.814  0.1818E-06  0.1422E-06  0.1000E-01  0.1000E-01
    -21.635  0.5257E-03  0.4668E-03  0.1009E-01  0.1008E-01
    -21.455  0.9935E-02  0.9684E-02  0.1188E-01  0.1182E-01
    -21.276  0.1290E-01  0.1298E-01  0.1419E-01  0.1415E-01
    -21.096  0.1051E-01  0.1033E-01  0.1608E-01  0.1600E-01
    -20.917  0.1782E-01  0.1779E-01  0.1928E-01  0.1920E-01
    -20.738  0.5222E-02  0.5492E-02  0.2021E-01  0.2018E-01
    -20.558  0.1422E-01  0.1337E-01  0.2276E-01  0.2258E-01
    -20.379  0.2081E-01  0.2128E-01  0.2650E-01  0.2640E-01
    -20.199  0.1177E-01  0.1177E-01  0.2861E-01  0.2851E-01
    -20.020  0.7812E-02  0.8011E-02  0.3001E-01  0.2995E-01
    -19.840  0.1129E-01  0.1090E-01  0.3204E-01  0.3190E-01
    -19.661  0.2299E-01  0.2278E-01  0.3616E-01  0.3599E-01
    -19.482  0.1041E-01  0.1088E-01  0.3803E-01  0.3794E-01
    -19.302  0.1548E-01  0.1506E-01  0.4081E-01  0.4065E-01
    -19.123  0.1101E-01  0.1114E-01  0.4278E-01  0.4265E-01
    -18.943  0.1436E-01  0.1426E-01  0.4536E-01  0.4520E-01
    -18.764  0.1271E-01  0.1298E-01  0.4764E-01  0.4753E-01
    -18.584  0.1506E-01  0.1494E-01  0.5034E-01  0.5021E-01
    -18.405  0.1529E-01  0.1529E-01  0.5308E-01  0.5296E-01
    -18.226  0.1972E-01  0.1928E-01  0.5662E-01  0.5641E-01
    -18.046  0.1264E-01  0.1301E-01  0.5889E-01  0.5875E-01
    -17.867  0.9725E-02  0.1013E-01  0.6064E-01  0.6057E-01
    -17.687  0.7928E-02  0.7566E-02  0.6206E-01  0.6192E-01
    -17.508  0.1866E-01  0.1857E-01  0.6541E-01  0.6525E-01
    -17.329  0.1780E-01  0.1770E-01  0.6860E-01  0.6843E-01
    -17.149  0.1770E-01  0.1771E-01  0.7178E-01  0.7161E-01
    -16.970  0.1853E-01  0.1841E-01  0.7510E-01  0.7491E-01
    -16.790  0.1514E-01  0.1527E-01  0.7782E-01  0.7765E-01
    -16.611  0.1340E-01  0.1359E-01  0.8022E-01  0.8009E-01
    -16.431  0.1139E-01  0.1117E-01  0.8226E-01  0.8210E-01
    -16.252  0.1283E-01  0.1319E-01  0.8457E-01  0.8446E-01
    -16.073  0.1232E-01  0.1175E-01  0.8678E-01  0.8657E-01
    -15.893  0.1887E-01  0.1871E-01  0.9016E-01  0.8993E-01
    -15.714  0.1524E-01  0.1491E-01  0.9290E-01  0.9260E-01
    -15.534  0.8369E-02  0.9682E-02  0.9440E-01  0.9434E-01
    -15.355  0.7718E-02  0.7307E-02  0.9578E-01  0.9565E-01
    -15.175  0.1025E-01  0.1050E-01  0.9762E-01  0.9754E-01
    -14.996  0.1223E-01  0.1206E-01  0.9982E-01  0.9970E-01
    -14.817  0.1649E-01  0.1608E-01  0.1028E+00  0.1026E+00
    -14.637  0.2045E-01  0.2028E-01  0.1064E+00  0.1062E+00
    -14.458  0.1699E-01  0.1768E-01  0.1095E+00  0.1094E+00
    -14.278  0.1191E-01  0.1175E-01  0.1116E+00  0.1115E+00
    -14.099  0.1501E-01  0.1513E-01  0.1143E+00  0.1142E+00
    -13.919  0.1746E-01  0.1662E-01  0.1175E+00  0.1172E+00
    -13.740  0.1783E-01  0.1865E-01  0.1207E+00  0.1205E+00
    -13.561  0.1139E-01  0.1128E-01  0.1227E+00  0.1226E+00
    -13.381  0.1622E-01  0.1579E-01  0.1256E+00  0.1254E+00
    -13.202  0.1060E-01  0.1108E-01  0.1275E+00  0.1274E+00
    -13.022  0.1286E-01  0.1219E-01  0.1298E+00  0.1296E+00
    -12.843  0.1773E-01  0.1865E-01  0.1330E+00  0.1329E+00
    -12.663  0.1521E-01  0.1449E-01  0.1357E+00  0.1355E+00
    -12.484  0.1584E-01  0.1615E-01  0.1386E+00  0.1384E+00
    -12.305  0.1023E-01  0.1080E-01  0.1404E+00  0.1404E+00
    -12.125  0.6773E-02  0.6316E-02  0.1416E+00  0.1415E+00
    -11.946  0.1872E-01  0.1850E-01  0.1450E+00  0.1448E+00
    -11.766  0.2617E-01  0.2629E-01  0.1497E+00  0.1495E+00
    -11.587  0.2239E-01  0.2160E-01  0.1537E+00  0.1534E+00
    -11.408  0.1999E-01  0.2123E-01  0.1573E+00  0.1572E+00
    -11.228  0.4556E-02  0.4659E-02  0.1581E+00  0.1580E+00
    -11.049  0.1329E-01  0.1298E-01  0.1605E+00  0.1604E+00
    -10.869  0.2033E-01  0.2006E-01  0.1641E+00  0.1640E+00
    -10.690  0.1458E-01  0.1454E-01  0.1667E+00  0.1666E+00
    -10.510  0.1772E-01  0.1766E-01  0.1699E+00  0.1698E+00
    -10.331  0.2903E-01  0.2871E-01  0.1751E+00  0.1749E+00
    -10.152  0.2488E-01  0.2550E-01  0.1796E+00  0.1795E+00
     -9.972  0.2604E-01  0.2544E-01  0.1843E+00  0.1840E+00
     -9.793  0.2054E-01  0.2119E-01  0.1880E+00  0.1878E+00
     -9.613  0.2183E-01  0.2136E-01  0.1919E+00  0.1917E+00
     -9.434  0.2983E-01  0.3012E-01  0.1972E+00  0.1971E+00
     -9.254  0.2788E-01  0.2747E-01  0.2022E+00  0.2020E+00
     -9.075  0.3503E-01  0.3496E-01  0.2085E+00  0.2083E+00
     -8.896  0.3737E-01  0.3774E-01  0.2152E+00  0.2151E+00
     -8.716  0.3216E-01  0.3205E-01  0.2210E+00  0.2208E+00
     -8.537  0.4461E-01  0.4324E-01  0.2290E+00  0.2286E+00
     -8.357  0.5881E-01  0.5953E-01  0.2395E+00  0.2392E+00
     -8.178  0.2821E-01  0.2891E-01  0.2446E+00  0.2444E+00
     -7.998  0.2879E-01  0.2813E-01  0.2498E+00  0.2495E+00
     -7.819  0.3260E-01  0.3338E-01  0.2556E+00  0.2555E+00
     -7.640  0.2281E-01  0.2297E-01  0.2597E+00  0.2596E+00
     -7.460  0.3436E-01  0.3278E-01  0.2659E+00  0.2655E+00
     -7.281  0.3816E-01  0.3928E-01  0.2727E+00  0.2725E+00
     -7.101  0.3215E-01  0.3256E-01  0.2785E+00  0.2784E+00
     -6.922  0.3172E-01  0.3172E-01  0.2842E+00  0.2841E+00
     -6.742  0.2218E-01  0.2198E-01  0.2882E+00  0.2880E+00
     -6.563  0.1811E-01  0.1814E-01  0.2914E+00  0.2913E+00
     -6.384  0.2060E-01  0.2214E-01  0.2951E+00  0.2952E+00
     -6.204  0.2981E-01  0.2945E-01  0.3005E+00  0.3005E+00
     -6.025  0.3373E-01  0.3260E-01  0.3065E+00  0.3064E+00
     -5.845  0.3115E-01  0.3125E-01  0.3121E+00  0.3120E+00
     -5.666  0.2114E-01  0.2342E-01  0.3159E+00  0.3162E+00
     -5.486  0.1626E-01  0.1512E-01  0.3188E+00  0.3189E+00
     -5.307  0.1713E-01  0.1785E-01  0.3219E+00  0.3221E+00
     -5.128  0.1769E-01  0.1935E-01  0.3251E+00  0.3256E+00
     -4.948  0.2459E-01  0.3181E-01  0.3295E+00  0.3313E+00
     -4.769  0.3587E-01  0.2901E-01  0.3359E+00  0.3365E+00
     -4.589  0.3183E-01  0.3202E-01  0.3416E+00  0.3422E+00
     -4.410  0.1515E-01  0.1188E-01  0.3443E+00  0.3443E+00
     -4.231  0.5768E-02  0.7263E-02  0.3454E+00  0.3457E+00
     -4.051  0.1244E-01  0.1582E-01  0.3476E+00  0.3485E+00
     -3.872  0.1433E-01  0.2447E-01  0.3502E+00  0.3529E+00
     -3.692  0.1348E-01  0.1251E-01  0.3526E+00  0.3551E+00
     -3.513  0.1831E-01  0.7753E-02  0.3559E+00  0.3565E+00
     -3.333  0.1449E-01  0.1606E-01  0.3585E+00  0.3594E+00
     -3.154  0.1160E-01  0.2020E-01  0.3606E+00  0.3630E+00
     -2.975  0.5040E-02  0.4276E-02  0.3615E+00  0.3638E+00
     -2.795  0.2252E-02  0.8997E-02  0.3619E+00  0.3654E+00
     -2.616  0.5759E-04  0.6569E-02  0.3619E+00  0.3666E+00
     -2.436  0.3312E-05  0.1606E-02  0.3619E+00  0.3669E+00
     -2.257  0.1640E-02  0.1439E-02  0.3622E+00  0.3671E+00
     -2.077  0.1269E-01  0.6188E-02  0.3644E+00  0.3682E+00
     -1.898  0.6506E-02  0.2881E-02  0.3656E+00  0.3688E+00
     -1.719  0.1023E-03  0.7477E-02  0.3656E+00  0.3701E+00
     -1.539  0.2373E-02  0.1493E-01  0.3661E+00  0.3728E+00
     -1.360  0.8635E-02  0.1598E-01  0.3676E+00  0.3756E+00
     -1.180  0.2925E-02  0.1148E-01  0.3681E+00  0.3777E+00
     -1.001  0.6839E-02  0.3091E-02  0.3694E+00  0.3783E+00
     -0.821  0.2984E-01  0.1576E-01  0.3747E+00  0.3811E+00
     -0.642  0.2707E-01  0.1801E-01  0.3796E+00  0.3843E+00
     -0.463  0.2446E-01  0.1295E-01  0.3840E+00  0.3866E+00
     -0.283  0.2414E-01  0.1983E-01  0.3883E+00  0.3902E+00
     -0.104  0.1821E-01  0.1246E-01  0.3916E+00  0.3924E+00
      0.076  0.9252E-02  0.9038E-02  0.3932E+00  0.3941E+00
      0.255  0.2019E-01  0.2257E-01  0.3968E+00  0.3981E+00
      0.435  0.2390E-01  0.1708E-01  0.4011E+00  0.4012E+00
      0.614  0.1607E-01  0.1468E-01  0.4040E+00  0.4038E+00
      0.793  0.1082E-01  0.1621E-01  0.4060E+00  0.4067E+00
      0.973  0.1293E-01  0.1823E-01  0.4083E+00  0.4100E+00
      1.152  0.1698E-01  0.9660E-02  0.4113E+00  0.4117E+00
      1.332  0.1506E-01  0.1812E-01  0.4140E+00  0.4150E+00
      1.511  0.1869E-01  0.1618E-01  0.4174E+00  0.4179E+00
      1.690  0.2198E-01  0.2463E-01  0.4213E+00  0.4223E+00
      1.870  0.2507E-01  0.2475E-01  0.4258E+00  0.4267E+00
      2.049  0.3473E-01  0.3604E-01  0.4320E+00  0.4332E+00
      2.229  0.2649E-01  0.2787E-01  0.4368E+00  0.4382E+00
      2.408  0.1778E-01  0.2270E-01  0.4400E+00  0.4423E+00
      2.588  0.4036E-01  0.3867E-01  0.4472E+00  0.4492E+00
      2.767  0.4893E-01  0.4856E-01  0.4560E+00  0.4579E+00
      2.946  0.2164E-01  0.1136E-01  0.4599E+00  0.4600E+00
      3.126  0.5858E-03  0.2100E-03  0.4600E+00  0.4600E+00
      3.305  0.1127E-06  0.2632E-07  0.4600E+00  0.4600E+00
      3.485  0.6173E-13  0.8103E-14  0.4600E+00  0.4600E+00
      3.664  0.0000E+00  0.0000E+00  0.4600E+00  0.4600E+00
      3.844  0.0000E+00  0.0000E+00  0.4600E+00  0.4600E+00
      4.023  0.0000E+00  0.0000E+00  0.4600E+00  0.4600E+00
      4.202  0.0000E+00  0.0000E+00  0.4600E+00  0.4600E+00
      4.382  0.0000E+00  0.0000E+00  0.4600E+00  0.4600E+00
      4.561  0.0000E+00  0.0000E+00  0.4600E+00  0.4600E+00
      4.741  0.0000E+00  0.0000E+00  0.4600E+00  0.4600E+00
      4.920  0.0000E+00  0.0000E+00  0.4600E+00  0.4600E+00
      5.100  0.0000E+00  0.0000E+00  0.4600E+00  0.4600E+00
      5.279  0.0000E+00  0.0000E+00  0.4600E+00  0.4600E+00
