       N       E                     dE             d eps       ncg     rms          rms(c)
DAV:   1     0.260108299749E+04    0.26011E+04   -0.10355E+05  3920   0.115E+03
DAV:   2     0.298133019517E+02   -0.25713E+04   -0.24735E+04  4792   0.291E+02
DAV:   3    -0.498667350415E+03   -0.52848E+03   -0.52446E+03  4120   0.147E+02
DAV:   4    -0.520676550087E+03   -0.22009E+02   -0.21487E+02  4336   0.413E+01
DAV:   5    -0.521614111479E+03   -0.93756E+00   -0.92852E+00  5016   0.691E+00    0.396E+01
DAV:   6    -0.497286205860E+03    0.24328E+02   -0.55581E+01  4296   0.249E+01    0.242E+01
DAV:   7    -0.493479350075E+03    0.38069E+01   -0.40546E+01  4264   0.164E+01    0.159E+01
DAV:   8    -0.491733515696E+03    0.17458E+01   -0.15261E+01  4080   0.116E+01    0.111E+01
DAV:   9    -0.491916446372E+03   -0.18293E+00   -0.15551E+01  4816   0.905E+00    0.625E+00
DAV:  10    -0.491203716707E+03    0.71273E+00   -0.68315E+00  4568   0.784E+00    0.317E+00
DAV:  11    -0.491150219487E+03    0.53497E-01   -0.28951E+00  4608   0.386E+00    0.227E+00
DAV:  12    -0.491068871686E+03    0.81348E-01   -0.15305E+00  4872   0.258E+00    0.138E+00
DAV:  13    -0.491028981533E+03    0.39890E-01   -0.23422E-01  4008   0.132E+00    0.659E-01
DAV:  14    -0.491026092833E+03    0.28887E-02   -0.74729E-02  4000   0.650E-01    0.349E-01
DAV:  15    -0.491026498480E+03   -0.40565E-03   -0.40210E-02  4032   0.428E-01    0.322E-01
DAV:  16    -0.491025691152E+03    0.80733E-03   -0.32079E-02  4456   0.328E-01    0.215E-01
DAV:  17    -0.491025492296E+03    0.19886E-03   -0.14036E-02  4200   0.204E-01    0.137E-01
DAV:  18    -0.491025354527E+03    0.13777E-03   -0.41422E-03  3520   0.114E-01    0.690E-02
DAV:  19    -0.491025336786E+03    0.17741E-04   -0.50761E-04  2256   0.505E-02
   1 F= -.49505378E+03 E0= -.49505378E+03  d E =0.000000E+00  mag=    -0.0000
